Title
82322
    1SAPS     N    1   2.246   2.848  11.208 -0.3003  0.0670 -0.6484
    1SAPS   HN1    2   2.259   2.776  11.134  1.1033  0.0641 -0.4305
    1SAPS   HN2    3   2.202   2.798  11.289 -2.6789  0.9699 -1.3127
    1SAPS   HN3    4   2.191   2.929  11.173  1.2020  1.1981 -0.4885
    1SAPS   C12    5   2.377   2.908  11.250  0.1576  0.4202 -0.4471
    1SAPS  H12A    6   2.380   3.014  11.231  0.3842  0.1317 -2.1631
    1SAPS   C13    7   2.403   2.884  11.407  0.3255  0.0190 -0.4024
    1SAPS  O13A    8   2.334   2.796  11.460 -0.0488 -0.0358  0.0385
    1SAPS  O13B    9   2.504   2.933  11.463 -0.2905  0.0498  0.4654
    1SAPS   C11   10   2.485   2.828  11.174  0.2485  0.1214 -0.4106
    1SAPS  H11A   11   2.468   2.722  11.204 -1.7463  0.8227  1.1539
    1SAPS  H11B   12   2.587   2.859  11.207 -0.3623  1.6792  0.0899
    1SAPS     P   13   2.519   2.983  10.977 -0.0499 -0.0547 -0.1860
    1SAPS   O13   14   2.425   3.029  10.880  0.0862 -0.2415  0.0107
    1SAPS   O14   15   2.556   3.076  11.084 -0.3889  0.3116  0.3264
    1SAPS   O12   16   2.477   2.842  11.031  0.1512 -0.0067 -0.2506
    1SAPS   O11   17   2.641   2.942  10.887 -0.4480  0.1963 -0.0564
    1SAPS    C1   18   2.770   2.926  10.947 -0.2256  0.0265 -0.1572
    1SAPS    HA   19   2.804   3.009  11.012  0.0840 -0.2871  0.0880
    1SAPS    HB   20   2.765   2.831  11.005  1.8254 -0.2253 -0.3118
    1SAPS    C2   21   2.886   2.894  10.841 -0.0750  0.9827  0.3347
    1SAPS    HS   22   2.976   2.870  10.902 -0.2549  0.3523  0.3621
    1SAPS   O21   23   2.898   3.005  10.751  0.7370 -0.6730  0.4032
    1SAPS   C21   24   3.022   3.043  10.721  0.2057 -0.3596 -0.3565
    1SAPS   O22   25   3.128   2.996  10.767 -0.4030 -0.2910 -0.0673
    1SAPS   C22   26   3.013   3.174  10.639  0.1953 -0.0077 -0.4682
    1SAPS   H2R   27   3.072   3.156  10.546  1.8893 -0.4242  0.6281
    1SAPS   H2S   28   2.906   3.189  10.612  0.3646 -0.0436 -1.2012
    1SAPS    C3   29   2.858   2.771  10.757  0.1958 -0.4182  0.3179
    1SAPS    HX   30   2.760   2.784  10.707  0.3586  3.0123  0.6726
    1SAPS    HY   31   2.837   2.695  10.835  0.1481  1.1580  1.8811
    1SAPS   O31   32   2.965   2.732  10.663 -0.2910  0.0768  0.5371
    1SAPS   C31   33   2.936   2.636  10.594 -0.1904 -0.1493 -0.5954
    1SAPS   O32   34   2.826   2.585  10.598  0.3443  0.4163  0.1341
    1SAPS   C32   35   3.058   2.589  10.517 -1.2073  0.6573  0.6361
    1SAPS   H2X   36   3.129   2.561  10.597  2.4884 -0.0334 -2.5592
    1SAPS   H2Y   37   3.110   2.674  10.468 -0.6857 -0.8639 -1.6105
    1SAPS   C23   38   3.067   3.301  10.717  0.0066 -0.1943 -0.1679
    1SAPS   H3R   39   3.176   3.280  10.707 -0.4888 -3.3382 -0.0511
    1SAPS   H3S   40   3.042   3.300  10.825 -1.2755 -0.9376 -0.4514
    1SAPS   C24   41   3.023   3.437  10.651  0.5684  0.4962  0.3982
    1SAPS   H4R   42   2.917   3.426  10.618  0.3712  1.9921  0.4659
    1SAPS   H4S   43   3.077   3.450  10.554 -0.9333  0.0937 -0.5319
    1SAPS   C25   44   3.005   3.555  10.746 -1.4748  0.5477 -0.0568
    1SAPS   H5R   45   2.909   3.604  10.725 -1.7521  0.7140  1.4680
    1SAPS   C26   46   3.083   3.606  10.844 -0.0549  0.1805 -0.6025
    1SAPS   H6R   47   3.039   3.680  10.913  0.0708 -0.7662  0.5257
    1SAPS   C27   48   3.218   3.557  10.890  0.1074  0.2598  0.3136
    1SAPS   H7R   49   3.240   3.458  10.844 -0.3832  1.1347 -1.9071
    1SAPS   H7S   50   3.199   3.540  10.999 -2.2373  3.1141  0.4609
    1SAPS   C28   51   3.341   3.639  10.862 -0.0056 -0.5300  0.1857
    1SAPS   H8R   52   3.332   3.694  10.767  0.7184 -2.8445 -1.2960
    1SAPS   C29   53   3.449   3.667  10.936  0.2557  0.1093 -0.6960
    1SAPS   H9R   54   3.513   3.752  10.909 -0.4297  1.4679  1.6876
    1SAPS  C210   55   3.471   3.616  11.069 -0.1123  0.1574 -0.3098
    1SAPS  H10R   56   3.555   3.543  11.072  1.4029  1.8391 -0.3963
    1SAPS  H10S   57   3.380   3.565  11.108 -0.4130  1.0743  0.2099
    1SAPS  C211   58   3.506   3.732  11.159  0.5737 -0.2244  0.6952
    1SAPS  H11R   59   3.541   3.826  11.115  0.3575  0.6834  2.3757
    1SAPS  C212   60   3.497   3.735  11.293 -0.0893 -0.1958  0.3993
    1SAPS  H12R   61   3.532   3.825  11.346 -1.0314  1.4193 -1.5953
    1SAPS  C213   62   3.462   3.623  11.383  1.3393  0.0484  0.7311
    1SAPS  H13R   63   3.551   3.573  11.427  1.6920  0.7569  0.8309
    1SAPS  H13S   64   3.407   3.547  11.323  1.2054  1.1624 -0.5939
    1SAPS  C214   65   3.358   3.669  11.482 -0.5423  0.2650 -0.0609
    1SAPS  H14R   66   3.403   3.745  11.547 -0.8505  0.7930 -0.4519
    1SAPS  C215   67   3.226   3.634  11.501  0.1160 -0.7214  0.6132
    1SAPS  H15R   68   3.175   3.663  11.594 -0.2546 -1.1351  0.5415
    1SAPS  C216   69   3.148   3.535  11.420 -0.1496 -0.3098 -0.3239
    1SAPS  H16R   70   3.197   3.519  11.322 -0.8331 -0.1555 -0.6884
    1SAPS  H16S   71   3.055   3.587  11.392 -0.2169 -0.2666 -0.0238
    1SAPS  C217   72   3.122   3.415  11.506  0.1282  0.4367 -0.8666
    1SAPS  H17R   73   3.212   3.368  11.551 -0.2649  0.7542  0.2899
    1SAPS  H17S   74   3.079   3.338  11.438  0.8065 -0.5419 -0.2236
    1SAPS  C218   75   3.023   3.433  11.617 -0.4373 -0.5742 -0.4507
    1SAPS  H18R   76   2.956   3.519  11.594  1.3032  0.6033 -1.2818
    1SAPS  H18S   77   3.080   3.477  11.702 -1.5916  2.2336 -1.0300
    1SAPS  C219   78   2.936   3.317  11.662  0.4792  0.7064  0.1281
    1SAPS  H19R   79   3.006   3.231  11.673 -2.2549 -1.7108 -0.2084
    1SAPS  H19S   80   2.875   3.283  11.575 -0.8621 -0.5680  1.5009
    1SAPS  C220   81   2.861   3.325  11.795 -0.0213  0.3568 -0.6458
    1SAPS  H20R   82   2.925   3.307  11.884 -0.3114  1.4022 -0.2143
    1SAPS  H20S   83   2.783   3.245  11.794 -1.4529  1.7026 -2.1661
    1SAPS  H20T   84   2.797   3.414  11.811  1.9296  1.4788  1.5210
    1SAPS   C33   85   3.031   2.470  10.417  0.0254  0.1801 -0.0017
    1SAPS   H3X   86   2.969   2.516  10.337 -1.8054 -0.9691  0.6932
    1SAPS   H3Y   87   2.972   2.391  10.468 -0.0342 -0.8644 -1.6264
    1SAPS   C34   88   3.160   2.407  10.359 -0.0769  0.6047  0.6747
    1SAPS   H4X   89   3.121   2.321  10.300  1.0732  1.9538 -2.2275
    1SAPS   H4Y   90   3.226   2.358  10.434  3.6649  2.3027 -1.2412
    1SAPS   C35   91   3.255   2.500  10.286 -0.2440  0.3012  0.3191
    1SAPS   H5X   92   3.355   2.453  10.274 -0.4819 -1.1020  3.1435
    1SAPS   H5Y   93   3.267   2.591  10.348  0.1770 -0.5967  1.5883
    1SAPS   C36   94   3.200   2.546  10.152 -0.3793 -0.3931 -1.3618
    1SAPS   H6X   95   3.089   2.540  10.149 -0.4115 -0.3686 -0.5038
    1SAPS   H6Y   96   3.253   2.480  10.081  0.6306 -1.3115  0.1851
    1SAPS   C37   97   3.244   2.688  10.111 -0.1980 -0.3906  0.4599
    1SAPS   H7X   98   3.350   2.675  10.139  0.1705  0.2308 -0.5651
    1SAPS   H7Y   99   3.199   2.767  10.174 -2.6672 -0.1604 -1.4199
    1SAPS   C38  100   3.217   2.716   9.958 -0.2777  0.6002  0.2485
    1SAPS   H8X  101   3.109   2.719   9.931 -0.6352  1.1658  1.6939
    1SAPS   H8Y  102   3.263   2.641   9.889 -0.6988  0.7381 -0.1906
    1SAPS   C39  103   3.276   2.849   9.911 -0.6817 -0.5512  0.0283
    1SAPS   H9X  104   3.383   2.848   9.941  0.0224  1.6343 -2.1124
    1SAPS   H9Y  105   3.228   2.923   9.979  1.0266  1.2575 -0.6284
    1SAPS  C310  106   3.237   2.877   9.767  0.2064  0.0678  0.4111
    1SAPS  H10X  107   3.127   2.886   9.757  0.4071  1.6190 -1.0694
    1SAPS  H10Y  108   3.269   2.789   9.707  1.8243  0.0548  1.2375
    1SAPS  C311  109   3.294   3.005   9.710 -0.7026 -0.2797 -0.2419
    1SAPS  H11X  110   3.405   3.012   9.711 -0.5882 -1.4408 -1.7564
    1SAPS  H11Y  111   3.257   3.083   9.780 -2.3188 -0.3764 -0.9433
    1SAPS  C312  112   3.239   3.042   9.566  0.4488  0.4553  0.0568
    1SAPS  H12X  113   3.270   3.148   9.552  0.3808  0.6190  1.1107
    1SAPS  H12Y  114   3.130   3.022   9.566  0.8132 -2.0617 -1.9919
    1SAPS  C313  115   3.295   2.961   9.452 -0.1774  0.3733 -0.0800
    1SAPS  H13X  116   3.296   2.852   9.475  0.3880  0.5108  0.5560
    1SAPS  H13Y  117   3.401   2.988   9.437 -1.0175  3.1240 -1.7382
    1SAPS  C314  118   3.220   2.985   9.320  0.1115  0.3098 -1.0691
    1SAPS  H14X  119   3.223   3.089   9.282 -1.5935  0.9204  0.3512
    1SAPS  H14Y  120   3.117   2.952   9.345  0.5062  0.4324  0.9450
    1SAPS  C315  121   3.284   2.894   9.210 -0.6817  0.4075  0.1298
    1SAPS  H15X  122   3.392   2.880   9.230  0.1209  2.0574 -2.5597
    1SAPS  H15Y  123   3.281   2.956   9.118  0.9156  0.8052  0.3254
    1SAPS  C316  124   3.208   2.764   9.193  0.5129 -0.3643 -0.9223
    1SAPS  H16X  125   3.100   2.784   9.173  0.5718  0.6122 -0.3308
    1SAPS  H16Y  126   3.204   2.711   9.290 -2.1722 -0.2657 -0.8975
    1SAPS  C317  127   3.263   2.668   9.085 -0.2796  0.3805  0.3380
    1SAPS  H17X  128   3.369   2.651   9.113  0.8564  3.3704 -1.6506
    1SAPS  H17Y  129   3.244   2.720   8.989 -2.5372  2.0972  1.5896
    1SAPS  C318  130   3.185   2.538   9.081  0.3058 -0.1297 -0.0046
    1SAPS  H18X  131   3.207   2.484   8.987  2.2780  0.8253 -0.1531
    1SAPS  H18Y  132   3.075   2.549   9.089 -0.2361 -1.6068 -3.8136
    1SAPS  H18Z  133   3.221   2.477   9.167  0.3904 -0.7166 -0.4496
    2SAPS     N  134   1.856   4.490  10.889 -0.2532  0.6732 -0.0938
    2SAPS   HN1  135   1.792   4.491  10.971  1.7753  1.8434  1.5780
    2SAPS   HN2  136   1.863   4.585  10.849 -0.3725  0.2025 -1.2570
    2SAPS   HN3  137   1.829   4.423  10.815 -0.3993 -2.1880  2.3403
    2SAPS   C12  138   1.991   4.440  10.930 -0.2112  0.4528 -0.6533
    2SAPS  H12A  139   2.025   4.506  11.008 -0.8712 -3.3074  3.1903
    2SAPS   C13  140   1.998   4.299  11.006  0.0021  0.3589  0.7023
    2SAPS  O13A  141   1.892   4.240  11.031  0.1716 -0.2653  0.3783
    2SAPS  O13B  142   2.112   4.251  11.033 -0.2109 -1.0911  0.4154
    2SAPS   C11  143   2.086   4.422  10.818 -0.4422  0.0930  0.0195
    2SAPS  H11A  144   2.031   4.367  10.739  0.0052 -0.9049  0.3825
    2SAPS  H11B  145   2.175   4.360  10.844 -0.3870 -0.4222 -1.3367
    2SAPS     P  146   2.252   4.635  10.819 -0.2824  0.3286 -0.0760
    2SAPS   O13  147   2.270   4.744  10.719  0.1979  0.0877  0.2072
    2SAPS   O14  148   2.237   4.679  10.962  0.3976  0.3211 -0.4469
    2SAPS   O12  149   2.125   4.553  10.770 -0.2091 -0.7002 -0.5058
    2SAPS   O11  150   2.377   4.524  10.806  0.4049  0.4838 -0.4299
    2SAPS    C1  151   2.399   4.451  10.687  0.8331 -0.0125  0.1578
    2SAPS    HA  152   2.391   4.344  10.717  3.6184 -0.4435 -0.3958
    2SAPS    HB  153   2.333   4.472  10.601  2.2901  1.8473 -0.5668
    2SAPS    C2  154   2.544   4.479  10.644 -0.1050  0.3819  0.5272
    2SAPS    HS  155   2.612   4.468  10.732  1.4635 -1.6736 -0.8418
    2SAPS   O21  156   2.553   4.615  10.599  0.9419 -0.6888 -0.2036
    2SAPS   C21  157   2.670   4.661  10.549  1.0291  0.2830  0.3445
    2SAPS   O22  158   2.780   4.613  10.572  0.3076 -0.4309  0.6038
    2SAPS   C22  159   2.638   4.777  10.456 -0.0904 -1.0158 -0.1219
    2SAPS   H2R  160   2.584   4.725  10.374 -0.2947 -0.6234 -0.2370
    2SAPS   H2S  161   2.578   4.854  10.507  2.1629  0.5817  0.2865
    2SAPS    C3  162   2.588   4.368  10.545 -0.0061  0.3062  0.4336
    2SAPS    HX  163   2.573   4.263  10.577  1.2300 -0.1737 -0.4902
    2SAPS    HY  164   2.698   4.384  10.542  0.2553 -1.3787 -2.4766
    2SAPS   O31  165   2.518   4.387  10.419  0.4446 -0.3461 -0.2362
    2SAPS   C31  166   2.581   4.322  10.319  0.4642  0.0399  0.0790
    2SAPS   O32  167   2.675   4.244  10.335  0.2293  0.7924 -0.6334
    2SAPS   C32  168   2.512   4.350  10.184  0.2688 -0.5734  0.5380
    2SAPS   H2X  169   2.431   4.426  10.188 -0.1807 -0.9431 -0.8599
    2SAPS   H2Y  170   2.465   4.254  10.155 -1.3720  0.7893 -1.6301
    2SAPS   C23  171   2.757   4.855  10.389 -0.3618  0.0755 -0.7043
    2SAPS   H3R  172   2.823   4.784  10.333 -0.1922  0.3759 -0.8899
    2SAPS   H3S  173   2.826   4.899  10.464 -1.7308  1.2541 -0.1121
    2SAPS   C24  174   2.705   4.950  10.287  0.2010 -0.5650  0.3304
    2SAPS   H4R  175   2.617   5.007  10.325 -0.0096 -0.9286  0.3874
    2SAPS   H4S  176   2.664   4.886  10.206  1.5178  2.4670 -3.0206
    2SAPS   C25  177   2.816   5.038  10.237 -0.2183  0.1026 -0.6821
    2SAPS   H5R  178   2.896   5.069  10.305 -0.3766 -0.2327 -0.3335
    2SAPS   C26  179   2.844   5.065  10.107 -0.0337  0.6361 -0.4158
    2SAPS   H6R  180   2.920   5.136  10.072 -1.3134  2.4116  0.2849
    2SAPS   C27  181   2.750   5.028   9.994 -0.2039  0.1890 -0.3844
    2SAPS   H7R  182   2.762   5.114   9.925 -0.9176  2.2083  1.8813
    2SAPS   H7S  183   2.643   5.033  10.024  0.4659 -2.2225  2.9903
    2SAPS   C28  184   2.761   4.896   9.928 -0.2063 -0.2557  0.6712
    2SAPS   H8R  185   2.798   4.812   9.989 -1.5360 -0.7515  0.8483
    2SAPS   C29  186   2.732   4.872   9.797  0.2603  0.7226 -0.5968
    2SAPS   H9R  187   2.754   4.768   9.770 -2.1670 -0.5342  1.8415
    2SAPS  C210  188   2.671   4.968   9.696 -0.3758  0.3055 -0.5960
    2SAPS  H10R  189   2.727   5.061   9.723 -1.5484  0.6620  0.6998
    2SAPS  H10S  190   2.567   4.982   9.731  0.2158 -0.2378  1.5959
    2SAPS  C211  191   2.695   4.920   9.559  0.4006  0.5237 -0.1835
    2SAPS  H11R  192   2.604   4.870   9.522 -1.5352  1.9485  2.3178
    2SAPS  C212  193   2.806   4.904   9.482 -0.2511 -0.1991 -0.7392
    2SAPS  H12R  194   2.797   4.855   9.384  0.8599 -2.1794  0.0953
    2SAPS  C213  195   2.948   4.936   9.528  0.7958 -0.5615  0.3847
    2SAPS  H13R  196   2.949   4.930   9.639  2.0136  2.6962  0.6355
    2SAPS  H13S  197   2.967   5.042   9.504  0.0622  0.0096  2.1869
    2SAPS  C214  198   3.046   4.841   9.463 -0.1968 -0.2585  0.3018
    2SAPS  H14R  199   3.062   4.748   9.520  0.2286 -2.5579 -3.2005
    2SAPS  C215  200   3.117   4.870   9.352  0.4054  0.9387 -0.3074
    2SAPS  H15R  201   3.182   4.794   9.307 -0.8747 -1.4862  1.6917
    2SAPS  C216  202   3.099   5.004   9.279  0.2977 -0.0635 -0.1934
    2SAPS  H16R  203   3.202   5.027   9.245 -0.1325  4.5644  1.0290
    2SAPS  H16S  204   3.069   5.091   9.341 -0.7612 -1.4463  1.3498
    2SAPS  C217  205   3.005   4.996   9.158  0.4217  0.4201  0.3660
    2SAPS  H17R  206   2.988   5.097   9.115 -0.7707  0.2340  0.3586
    2SAPS  H17S  207   2.906   4.954   9.186  0.4347  0.8517  1.0778
    2SAPS  C218  208   3.064   4.911   9.042  0.0211 -0.0041 -0.0607
    2SAPS  H18R  209   3.089   4.812   9.086  0.8448 -0.3882 -1.3277
    2SAPS  H18S  210   3.157   4.955   8.999  0.8554 -2.0157 -0.4198
    2SAPS  C219  211   2.956   4.901   8.930  0.6381 -0.3854 -0.1607
    2SAPS  H19R  212   2.897   4.993   8.948  1.5947  0.7304 -2.2859
    2SAPS  H19S  213   2.883   4.819   8.945  1.9518 -1.3116  1.4514
    2SAPS  C220  214   3.002   4.918   8.788  0.2315 -0.3491 -0.3398
    2SAPS  H20R  215   2.916   4.926   8.718  1.8031  3.4887 -2.1147
    2SAPS  H20S  216   3.052   4.824   8.757 -1.2919 -0.9048 -1.1908
    2SAPS  H20T  217   3.069   5.006   8.777  2.1793 -1.4665  1.6666
    2SAPS   C33  218   2.612   4.386  10.076 -0.2826  0.5689  0.2871
    2SAPS   H3X  219   2.679   4.461  10.123 -0.0450 -0.1684  1.1550
    2SAPS   H3Y  220   2.569   4.427   9.982  1.2915  0.2884 -0.5957
    2SAPS   C34  221   2.699   4.263  10.034 -0.2762  0.1677  0.5265
    2SAPS   H4X  222   2.633   4.199   9.972 -0.9457  1.4986 -0.1811
    2SAPS   H4Y  223   2.734   4.203  10.121  0.5616  1.0395  0.8092
    2SAPS   C35  224   2.827   4.302   9.958 -0.1557 -0.3293  0.4453
    2SAPS   H5X  225   2.888   4.213   9.931 -0.0668  0.1585 -1.0920
    2SAPS   H5Y  226   2.885   4.377  10.015  2.1038 -2.0218  0.4933
    2SAPS   C36  227   2.789   4.362   9.819 -0.7431  0.2525  0.4622
    2SAPS   H6X  228   2.717   4.446   9.823  1.0107  1.9363 -1.4034
    2SAPS   H6Y  229   2.729   4.278   9.779 -0.1157 -0.6795  1.4074
    2SAPS   C37  230   2.906   4.384   9.720 -1.3337  0.0368  0.1779
    2SAPS   H7X  231   2.987   4.308   9.721  0.2580  1.5617 -2.0114
    2SAPS   H7Y  232   2.963   4.478   9.740  0.0775 -0.3898 -1.5454
    2SAPS   C38  233   2.859   4.384   9.575 -0.4115  0.1289  0.2728
    2SAPS   H8X  234   2.759   4.434   9.570 -0.7201 -0.5296 -3.6921
    2SAPS   H8Y  235   2.859   4.279   9.539  1.7735  0.1944 -0.0350
    2SAPS   C39  236   2.948   4.459   9.475 -1.5530  0.8137 -0.4416
    2SAPS   H9X  237   3.044   4.404   9.469 -2.4996 -0.9386 -0.1474
    2SAPS   H9Y  238   2.967   4.560   9.518  1.6441  1.1517 -2.3294
    2SAPS  C310  239   2.880   4.456   9.338  0.0165 -0.7684 -0.0304
    2SAPS  H10X  240   2.786   4.515   9.349 -0.2468 -1.1607 -0.1642
    2SAPS  H10Y  241   2.842   4.353   9.324  3.9323 -2.6352  1.6790
    2SAPS  C311  242   2.960   4.495   9.216 -0.4837 -0.0886  0.4177
    2SAPS  H11X  243   3.025   4.584   9.232 -1.2124  0.6394 -0.5638
    2SAPS  H11Y  244   2.880   4.502   9.139  1.4105 -2.8470 -1.9789
    2SAPS  C312  245   3.052   4.384   9.163 -0.7492  0.0938  0.3571
    2SAPS  H12X  246   2.994   4.290   9.149 -2.2944  1.0298  0.2695
    2SAPS  H12Y  247   3.134   4.366   9.236 -1.9097 -0.7504  1.5089
    2SAPS  C313  248   3.121   4.420   9.026  0.0138 -0.5127 -0.0976
    2SAPS  H13X  249   3.196   4.498   9.051  1.0177 -0.9596 -1.5510
    2SAPS  H13Y  250   3.048   4.463   8.955  2.5480  2.1082 -1.3290
    2SAPS  C314  251   3.204   4.306   8.961 -0.3667 -0.0880 -0.8909
    2SAPS  H14X  252   3.291   4.282   9.025 -0.1487  1.2806 -0.6477
    2SAPS  H14Y  253   3.251   4.352   8.871  0.3585  0.6266 -0.1685
    2SAPS  C315  254   3.126   4.189   8.914 -0.2311  0.4674 -0.4427
    2SAPS  H15X  255   3.056   4.208   8.830 -1.5554 -0.7355  0.3560
    2SAPS  H15Y  256   3.060   4.140   8.988  0.7567  0.4704  0.4783
    2SAPS  C316  257   3.228   4.088   8.857 -0.3308  0.5821  0.0445
    2SAPS  H16X  258   3.310   4.075   8.932  0.3856  1.1968 -0.6154
    2SAPS  H16Y  259   3.283   4.133   8.772  0.9529 -1.0904 -0.0845
    2SAPS  C317  260   3.163   3.953   8.819  0.1593 -0.2410  0.3054
    2SAPS  H17X  261   3.107   3.923   8.910  0.2951  2.5365  1.4000
    2SAPS  H17Y  262   3.236   3.873   8.796  1.2223  0.2361  1.8804
    2SAPS  C318  263   3.055   3.959   8.709 -0.8084 -0.3875  0.2312
    2SAPS  H18X  264   3.000   3.862   8.705 -1.7595  0.1301  0.5788
    2SAPS  H18Y  265   3.104   3.956   8.609 -0.6272 -1.7766  0.3344
    2SAPS  H18Z  266   2.983   4.041   8.729 -2.2954 -1.3565 -1.0029
    3SAPS     N  267   2.781   0.043  10.957  0.2536 -0.0472  0.3833
    3SAPS   HN1  268   2.843   0.103  10.899 -1.2108 -0.4301 -1.6903
    3SAPS   HN2  269   2.749  -0.034  10.894  1.9556 -0.9090  0.5141
    3SAPS   HN3  270   2.699   0.093  10.996  0.2002  0.8361 -0.8006
    3SAPS   C12  271   2.852  -0.013  11.075  0.1904 -0.3742  0.4912
    3SAPS  H12A  272   2.850   0.064  11.152  0.6481 -1.5840  1.7538
    3SAPS   C13  273   2.772  -0.132  11.127  0.7019  0.2661 -0.6168
    3SAPS  O13A  274   2.695  -0.201  11.053  0.0947  0.4304  0.0978
    3SAPS  O13B  275   2.806  -0.184  11.241 -0.4393  0.2193 -0.5946
    3SAPS   C11  276   2.995  -0.054  11.044 -0.1482 -0.1398  0.3629
    3SAPS  H11A  277   2.993  -0.124  10.958  3.6069 -0.7235  0.6146
    3SAPS  H11B  278   3.023  -0.110  11.135  0.5205 -1.0822 -0.4077
    3SAPS     P  279   3.215   0.060  10.941  0.0120 -0.2222 -0.1327
    3SAPS   O13  280   3.282   0.191  10.927 -0.4398  0.4061  0.4195
    3SAPS   O14  281   3.307  -0.038  10.998 -0.1660 -0.2712 -0.3558
    3SAPS   O12  282   3.077   0.064  11.017 -0.5373  0.3113 -0.4586
    3SAPS   O11  283   3.174   0.011  10.796 -0.7262 -0.3201 -0.4798
    3SAPS    C1  284   3.248  -0.069  10.699 -0.0348  0.5183  0.0119
    3SAPS    HA  285   3.323  -0.143  10.735  0.6865  1.3125  0.1568
    3SAPS    HB  286   3.164  -0.119  10.645 -2.4109  4.0072  0.1237
    3SAPS    C2  287   3.305   0.023  10.588 -0.7054 -0.2592  0.1112
    3SAPS    HS  288   3.236   0.108  10.569  0.8343  1.0420  0.1201
    3SAPS   O21  289   3.314  -0.064  10.473 -0.7417  0.0153  0.3114
    3SAPS   C21  290   3.204  -0.078  10.396  0.1912 -0.0988 -0.5368
    3SAPS   O22  291   3.094  -0.032  10.421  0.0097  0.2474  0.3182
    3SAPS   C22  292   3.236  -0.156  10.275  0.1759  1.0774 -0.4274
    3SAPS   H2R  293   3.303  -0.087  10.220 -0.4832  2.5393  0.5365
    3SAPS   H2S  294   3.297  -0.246  10.298 -0.2029  0.6011 -1.2615
    3SAPS    C3  295   3.445   0.093  10.627 -0.4135  0.2221 -0.2901
    3SAPS    HX  296   3.509   0.002  10.627 -1.5228 -0.6112  1.7185
    3SAPS    HY  297   3.435   0.126  10.733 -1.0491 -0.1759 -0.2198
    3SAPS   O31  298   3.483   0.205  10.537  0.5077  0.0451  0.3035
    3SAPS   C31  299   3.618   0.220  10.538 -0.4803 -0.1410  0.6168
    3SAPS   O32  300   3.699   0.140  10.580  0.4626 -0.0360 -0.1093
    3SAPS   C32  301   3.649   0.354  10.477  0.2670 -0.2787 -0.2124
    3SAPS   H2X  302   3.737   0.391  10.534 -0.0452 -1.2452  0.9322
    3SAPS   H2Y  303   3.561   0.415  10.505 -1.8792 -1.9952 -2.7382
    3SAPS   C23  304   3.102  -0.194  10.201 -0.3390 -0.4221 -0.0447
    3SAPS   H3R  305   3.054  -0.097  10.173 -1.4782 -1.4779 -1.9534
    3SAPS   H3S  306   3.028  -0.248  10.262 -1.5994  1.0096 -0.2309
    3SAPS   C24  307   3.135  -0.285  10.082 -0.1318  0.3512 -0.3373
    3SAPS   H4R  308   3.038  -0.313  10.034 -0.6570  0.2043  0.7833
    3SAPS   H4S  309   3.177  -0.377  10.129 -0.5138  0.4193  0.1346
    3SAPS   C25  310   3.235  -0.230   9.984  0.1086  0.4084 -1.0424
    3SAPS   H5R  311   3.320  -0.194  10.043 -1.7050  2.8158  0.2945
    3SAPS   C26  312   3.243  -0.230   9.852 -0.1791  0.1111  0.0721
    3SAPS   H6R  313   3.325  -0.173   9.806 -0.4513  0.7980  0.4092
    3SAPS   C27  314   3.152  -0.289   9.755  0.5072  1.4006  0.7373
    3SAPS   H7R  315   3.092  -0.370   9.803  0.1818  0.9393 -0.4130
    3SAPS   H7S  316   3.208  -0.346   9.678 -1.6805  1.4666 -1.0289
    3SAPS   C28  317   3.058  -0.190   9.692  0.1204  0.5729 -0.5009
    3SAPS   H8R  318   2.977  -0.159   9.759 -0.2396 -0.6807 -0.3413
    3SAPS   C29  319   3.071  -0.158   9.566  0.5947  0.5091 -0.1367
    3SAPS   H9R  320   2.983  -0.103   9.530  0.0035 -1.5774 -2.0880
    3SAPS  C210  321   3.165  -0.214   9.464  0.7737  0.2863 -0.2455
    3SAPS  H10R  322   3.178  -0.322   9.488  0.3760  0.6694  1.9589
    3SAPS  H10S  323   3.264  -0.163   9.470 -0.1408  2.0997  0.0780
    3SAPS  C211  324   3.116  -0.209   9.320  0.3086  0.7329  0.0367
    3SAPS  H11R  325   3.027  -0.268   9.295 -0.6291  1.2217  1.9691
    3SAPS  C212  326   3.164  -0.124   9.221 -0.7200 -0.2085  0.0987
    3SAPS  H12R  327   3.119  -0.140   9.122  1.3859  0.8372 -1.0760
    3SAPS  C213  328   3.279  -0.019   9.217  0.5961  0.0597 -0.3122
    3SAPS  H13R  329   3.326  -0.002   9.316  1.4607  2.5696 -1.0939
    3SAPS  H13S  330   3.237   0.078   9.185  1.1999  0.0988 -0.9987
    3SAPS  C214  331   3.378  -0.071   9.120  0.3586 -0.8807  0.5431
    3SAPS  H14R  332   3.443  -0.152   9.156  2.4009  0.1976 -0.5670
    3SAPS  C215  333   3.403  -0.019   9.002  0.0531  0.4187 -0.5239
    3SAPS  H15R  334   3.484  -0.057   8.937  0.9026  1.3606 -0.0402
    3SAPS  C216  335   3.329   0.096   8.925 -0.4378 -0.2272  0.0618
    3SAPS  H16R  336   3.251   0.141   8.990 -0.7221  0.2505 -0.6078
    3SAPS  H16S  337   3.277   0.061   8.834  1.0217 -0.9861 -0.5141
    3SAPS  C217  338   3.425   0.213   8.874  0.5203  0.0292 -0.2805
    3SAPS  H17R  339   3.486   0.165   8.795  2.0519  1.9406 -0.3259
    3SAPS  H17S  340   3.480   0.256   8.960 -0.1505 -1.6373  1.0407
    3SAPS  C218  341   3.341   0.328   8.806  0.2148  0.8527  0.2079
    3SAPS  H18R  342   3.303   0.390   8.890 -2.1121  1.8203 -1.4744
    3SAPS  H18S  343   3.253   0.294   8.748 -0.0979 -0.6538  1.4840
    3SAPS  C219  344   3.430   0.414   8.715  0.0715  0.6312  0.1670
    3SAPS  H19R  345   3.519   0.446   8.774  0.8863 -1.4106  0.1151
    3SAPS  H19S  346   3.377   0.506   8.682 -0.7586 -0.0121 -0.3157
    3SAPS  C220  347   3.485   0.345   8.585  0.4355  0.1927 -0.0901
    3SAPS  H20R  348   3.538   0.427   8.531  0.5592 -0.0174 -0.2918
    3SAPS  H20S  349   3.404   0.304   8.521  0.9890  0.1803 -0.7982
    3SAPS  H20T  350   3.552   0.258   8.604 -1.6920 -1.5428 -0.2188
    3SAPS   C33  351   3.672   0.341  10.327 -0.1065  0.2421 -0.5695
    3SAPS   H3X  352   3.764   0.285  10.299  0.5820 -0.1431  2.1889
    3SAPS   H3Y  353   3.691   0.446  10.294 -0.5214  0.3752 -0.3843
    3SAPS   C34  354   3.555   0.289  10.246 -0.1398  0.2951  1.0275
    3SAPS   H4X  355   3.467   0.350  10.275 -1.1727  0.8950 -2.7995
    3SAPS   H4Y  356   3.532   0.181  10.261  1.5505  0.0160  1.8458
    3SAPS   C35  357   3.585   0.285  10.093  0.3977  0.2630 -0.3088
    3SAPS   H5X  358   3.691   0.258  10.075  0.9932  1.4600  1.1763
    3SAPS   H5Y  359   3.578   0.388  10.051 -0.9755  0.1332 -0.4455
    3SAPS   C36  360   3.481   0.204  10.015 -0.1668 -0.4146 -0.1588
    3SAPS   H6X  361   3.377   0.235  10.039  0.6187  1.2544  1.2335
    3SAPS   H6Y  362   3.498   0.096  10.039  1.8047 -0.1488 -0.1986
    3SAPS   C37  363   3.497   0.224   9.863 -0.8867  0.4857  0.3100
    3SAPS   H7X  364   3.601   0.201   9.832 -2.3057 -2.4291 -2.9529
    3SAPS   H7Y  365   3.479   0.329   9.831  1.4371  1.3399  1.5548
    3SAPS   C38  366   3.394   0.145   9.786  0.6577  0.0072 -0.4220
    3SAPS   H8X  367   3.295   0.153   9.836  1.0143 -1.2691  0.5657
    3SAPS   H8Y  368   3.410   0.035   9.797 -0.2572 -0.1227 -0.2916
    3SAPS   C39  369   3.373   0.169   9.633 -0.2124 -0.5131  0.1809
    3SAPS   H9X  370   3.273   0.125   9.614 -0.9920  1.2386  0.0175
    3SAPS   H9Y  371   3.445   0.101   9.582 -1.6024 -1.4516 -0.5814
    3SAPS  C310  372   3.363   0.317   9.586 -0.5966 -0.4277  0.4724
    3SAPS  H10X  373   3.465   0.361   9.598 -0.2606 -0.4656 -1.7499
    3SAPS  H10Y  374   3.299   0.380   9.651  1.0298  0.3551  1.3820
    3SAPS  C311  375   3.337   0.336   9.435 -0.0632 -0.3097 -0.4729
    3SAPS  H11X  376   3.234   0.302   9.410 -0.7972 -0.5480  2.5395
    3SAPS  H11Y  377   3.423   0.288   9.384  0.7303 -0.1226  0.6411
    3SAPS  C312  378   3.339   0.484   9.383  0.1843  0.7907  0.0002
    3SAPS  H12X  379   3.420   0.547   9.426 -0.3240  0.6320  1.2196
    3SAPS  H12Y  380   3.243   0.534   9.409 -1.6714 -0.6166 -3.3897
    3SAPS  C313  381   3.362   0.487   9.230  0.4599  0.4421 -0.2178
    3SAPS  H13X  382   3.263   0.453   9.193  0.4606  2.5055 -2.3861
    3SAPS  H13Y  383   3.450   0.420   9.214  0.3035 -0.5232  2.4372
    3SAPS  C314  384   3.395   0.630   9.182 -0.3926 -0.0376 -0.6839
    3SAPS  H14X  385   3.485   0.673   9.232 -0.5144 -1.3084  0.7131
    3SAPS  H14Y  386   3.320   0.705   9.214 -0.2657  0.4201 -1.4212
    3SAPS  C315  387   3.398   0.635   9.028 -0.3569  0.5648 -0.0063
    3SAPS  H15X  388   3.302   0.584   9.008 -1.3967  1.5993  2.0538
    3SAPS  H15Y  389   3.485   0.576   8.993 -1.0489 -0.7991  0.4933
    3SAPS  C316  390   3.403   0.778   8.972  0.5305  0.9220  0.5709
    3SAPS  H16X  391   3.305   0.822   9.000  0.0122 -0.4528  1.0222
    3SAPS  H16Y  392   3.401   0.764   8.862 -1.8308 -0.7509  0.7325
    3SAPS  C317  393   3.523   0.865   9.015  0.1096 -0.2562 -0.0372
    3SAPS  H17X  394   3.616   0.823   8.972  1.2460  0.6977  1.4235
    3SAPS  H17Y  395   3.535   0.875   9.125  1.5674 -1.6011 -0.0347
    3SAPS  C318  396   3.518   1.003   8.952  0.6215  0.3877  0.1509
    3SAPS  H18X  397   3.514   0.999   8.841 -2.5326  1.1871  0.1367
    3SAPS  H18Y  398   3.601   1.061   8.996  1.1113 -2.3591  3.2229
    3SAPS  H18Z  399   3.416   1.042   8.972 -0.2207 -0.7364 -1.6676
    4SAPS     N  400   5.740   0.604  10.542  0.2059 -0.4776 -0.1397
    4SAPS   HN1  401   5.754   0.528  10.612  2.2360  1.1974  1.3654
    4SAPS   HN2  402   5.639   0.596  10.517  0.2788 -3.0872  0.0598
    4SAPS   HN3  403   5.799   0.581  10.460 -3.2427 -0.3902 -2.9229
    4SAPS   C12  404   5.768   0.735  10.612 -0.6549  0.1919 -0.2595
    4SAPS  H12A  405   5.711   0.812  10.562 -0.3874 -0.1968 -1.1918
    4SAPS   C13  406   5.717   0.749  10.757 -0.1734  0.0213  0.1889
    4SAPS  O13A  407   5.652   0.649  10.805  0.1472 -0.2949 -0.2504
    4SAPS  O13B  408   5.740   0.854  10.820  0.2094 -0.1624  0.2995
    4SAPS   C11  409   5.925   0.757  10.607 -0.2503 -0.1546  0.2685
    4SAPS  H11A  410   5.942   0.856  10.654 -2.8307  1.5354 -2.0556
    4SAPS  H11B  411   5.946   0.780  10.500 -0.0110  1.0581  0.5577
    4SAPS     P  412   6.161   0.661  10.645 -0.2502  0.1758  0.2918
    4SAPS   O13  413   6.204   0.711  10.777  0.4815  0.4214  0.0256
    4SAPS   O14  414   6.220   0.531  10.601 -0.8558 -0.7060  0.0562
    4SAPS   O12  415   6.001   0.647  10.649 -0.1411  0.4419 -0.0017
    4SAPS   O11  416   6.197   0.768  10.537  0.0432  0.0118  0.4612
    4SAPS    C1  417   6.215   0.738  10.401  0.5654  0.8337 -0.2143
    4SAPS    HA  418   6.315   0.691  10.390  0.8673  1.2009  0.8354
    4SAPS    HB  419   6.134   0.665  10.378  0.7293 -0.2876  2.4709
    4SAPS    C2  420   6.209   0.862  10.313  0.3227 -0.0675 -0.0487
    4SAPS    HS  421   6.117   0.917  10.342  0.1596 -1.1354  1.5648
    4SAPS   O21  422   6.214   0.828  10.171  0.5456  0.0615  0.2688
    4SAPS   C21  423   6.110   0.765  10.130  0.7795 -0.4744  0.3870
    4SAPS   O22  424   6.005   0.740  10.192 -0.7486 -0.7435  0.6358
    4SAPS   C22  425   6.131   0.737   9.983 -0.1539  0.3236  0.0789
    4SAPS   H2R  426   6.105   0.824   9.919  1.4626  0.6008 -0.2359
    4SAPS   H2S  427   6.237   0.712   9.962 -0.9582 -2.2183 -1.3969
    4SAPS    C3  428   6.323   0.960  10.352 -0.1435  0.3408 -0.1631
    4SAPS    HX  429   6.421   0.908  10.361  0.8173  1.8971 -1.1800
    4SAPS    HY  430   6.312   0.992  10.458 -3.2120  0.9237 -0.5615
    4SAPS   O31  431   6.328   1.064  10.255 -0.4624 -0.0020 -0.5138
    4SAPS   C31  432   6.254   1.171  10.286 -0.8103 -0.4133  0.3615
    4SAPS   O32  433   6.181   1.180  10.384 -0.1187 -0.2876 -0.1470
    4SAPS   C32  434   6.271   1.275  10.178  0.0404  0.2076  0.4588
    4SAPS   H2X  435   6.274   1.233  10.076 -1.3680 -1.2037  0.9613
    4SAPS   H2Y  436   6.361   1.333  10.208  0.3173 -0.1284  0.2841
    4SAPS   C23  437   6.051   0.614   9.934 -0.6513  0.1617  0.6421
    4SAPS   H3R  438   5.941   0.628   9.936 -0.4801  1.7144  0.3953
    4SAPS   H3S  439   6.059   0.529  10.005 -1.8936 -0.1930  0.3847
    4SAPS   C24  440   6.102   0.556   9.800 -0.0098  0.0789  0.2073
    4SAPS   H4R  441   6.202   0.508   9.806 -0.5547 -1.0653  0.3142
    4SAPS   H4S  442   6.108   0.642   9.729  0.4011  0.1002  0.2649
    4SAPS   C25  443   6.001   0.455   9.762  0.7614  0.5901  0.5665
    4SAPS   H5R  444   5.995   0.364   9.823 -4.4363  0.6903  0.6859
    4SAPS   C26  445   5.928   0.448   9.645 -0.2658 -0.3158 -0.8995
    4SAPS   H6R  446   5.868   0.361   9.616  0.0421 -0.4299 -1.2115
    4SAPS   C27  447   5.941   0.547   9.534 -0.4022 -0.3466  0.1870
    4SAPS   H7R  448   6.044   0.527   9.495 -0.4812 -0.0371 -0.1819
    4SAPS   H7S  449   5.936   0.649   9.579 -0.1923  0.7671 -2.1796
    4SAPS   C28  450   5.836   0.546   9.417 -0.3494 -0.2715 -0.2101
    4SAPS   H8R  451   5.737   0.510   9.447  0.1728 -0.0147  2.0499
    4SAPS   C29  452   5.869   0.558   9.289  0.7716  0.4121 -0.3394
    4SAPS   H9R  453   5.786   0.567   9.218  0.8157  1.0068 -0.3162
    4SAPS  C210  454   6.005   0.574   9.228 -0.4121  0.1399  0.5867
    4SAPS  H10R  455   6.048   0.473   9.212  1.8329  1.2278 -0.5657
    4SAPS  H10S  456   6.067   0.622   9.307 -1.1531  1.2945  0.4939
    4SAPS  C211  457   6.014   0.655   9.096  0.0077  0.2408  0.9209
    4SAPS  H11R  458   6.025   0.764   9.107  1.2548  0.2355 -0.1188
    4SAPS  C212  459   5.992   0.605   8.974  0.1861  0.2330 -0.0416
    4SAPS  H12R  460   5.998   0.665   8.882 -0.8288 -0.0234 -0.2836
    4SAPS  C213  461   5.969   0.457   8.934 -0.3119  0.5344  0.1570
    4SAPS  H13R  462   5.874   0.415   8.973  1.8285 -0.9176  4.4543
    4SAPS  H13S  463   6.046   0.400   8.990  1.0597  1.4374 -0.7467
    4SAPS  C214  464   5.966   0.428   8.781 -0.6611  0.0573 -0.4537
    4SAPS  H14R  465   5.871   0.405   8.730  0.3328 -2.0449 -1.4981
    4SAPS  C215  466   6.075   0.424   8.704  0.3814  0.5221  0.9139
    4SAPS  H15R  467   6.055   0.416   8.596 -1.7196 -2.8012  1.3884
    4SAPS  C216  468   6.213   0.449   8.755  0.3541 -0.4807  0.4781
    4SAPS  H16R  469   6.254   0.361   8.809  1.6429  0.6875  1.4678
    4SAPS  H16S  470   6.219   0.537   8.822  0.1725 -0.9564  1.1226
    4SAPS  C217  471   6.307   0.470   8.634  0.2466  0.2629 -0.0425
    4SAPS  H17R  472   6.259   0.543   8.564  2.1005 -1.1541 -3.0149
    4SAPS  H17S  473   6.313   0.370   8.584  1.9325  0.5597 -0.4667
    4SAPS  C218  474   6.448   0.511   8.674 -0.1808 -0.0505  0.0021
    4SAPS  H18R  475   6.523   0.437   8.638  0.4290  0.6276 -0.1438
    4SAPS  H18S  476   6.449   0.529   8.783 -1.2077 -2.4232  0.4559
    4SAPS  C219  477   6.476   0.650   8.617 -0.3862 -0.4014  0.4357
    4SAPS  H19R  478   6.412   0.728   8.664 -1.2011  0.6688 -2.2157
    4SAPS  H19S  479   6.447   0.659   8.510  0.2571 -0.6245  0.2442
    4SAPS  C220  480   6.620   0.695   8.642 -0.7828  0.7265 -0.0258
    4SAPS  H20R  481   6.642   0.669   8.748 -0.9558  0.2260 -0.1077
    4SAPS  H20S  482   6.634   0.805   8.635  1.2522  0.4766 -0.4070
    4SAPS  H20T  483   6.702   0.642   8.589  1.5766  2.2881  1.8742
    4SAPS   C33  484   6.159   1.379  10.188 -0.3607  0.1006  0.5766
    4SAPS   H3X  485   6.174   1.461  10.261 -1.1257 -0.2343  1.1181
    4SAPS   H3Y  486   6.056   1.339  10.199 -0.6302  0.8603  0.8177
    4SAPS   C34  487   6.155   1.461  10.056  0.0515 -0.2974 -0.1956
    4SAPS   H4X  488   6.148   1.385   9.975 -1.6255 -1.9332  1.3974
    4SAPS   H4Y  489   6.248   1.520  10.040  0.7529 -1.1920  0.5394
    4SAPS   C35  490   6.048   1.560  10.047  0.2861 -0.5100  0.0935
    4SAPS   H5X  491   6.045   1.630  10.133 -2.0686  0.5890 -0.8059
    4SAPS   H5Y  492   5.948   1.512  10.041 -0.1016  0.2560  0.3369
    4SAPS   C36  493   6.057   1.660   9.928 -0.7102  0.4124 -0.4176
    4SAPS   H6X  494   6.143   1.728   9.948  0.6748 -1.0229 -1.2935
    4SAPS   H6Y  495   5.958   1.710   9.938 -2.1321 -2.0167 -1.5910
    4SAPS   C37  496   6.067   1.590   9.792 -0.0268 -0.5837  0.2796
    4SAPS   H7X  497   5.973   1.533   9.781 -1.4096  1.4564  0.8976
    4SAPS   H7Y  498   6.151   1.517   9.799 -2.2299 -3.2534  0.4454
    4SAPS   C38  499   6.076   1.671   9.672  0.0863 -0.2965 -0.3039
    4SAPS   H8X  500   6.171   1.728   9.682  0.5345 -1.3113  2.1918
    4SAPS   H8Y  501   5.997   1.745   9.650  1.2693  0.8521 -0.8401
    4SAPS   C39  502   6.083   1.587   9.552  0.1323  0.1134  0.6979
    4SAPS   H9X  503   5.982   1.550   9.524  0.0103 -0.8904  2.3399
    4SAPS   H9Y  504   6.143   1.494   9.559  2.6252  1.6107  0.5404
    4SAPS  C310  505   6.133   1.665   9.428 -0.9440 -0.5817 -0.1250
    4SAPS  H10X  506   6.241   1.683   9.451 -1.1588 -1.9964  2.3091
    4SAPS  H10Y  507   6.102   1.772   9.419  1.6113  0.1000 -2.9615
    4SAPS  C311  508   6.106   1.595   9.305 -0.1230 -0.2210  0.2001
    4SAPS  H11X  509   5.997   1.577   9.290  0.0488  0.3245 -2.1219
    4SAPS  H11Y  510   6.150   1.494   9.300  0.9873  0.2641 -0.1744
    4SAPS  C312  511   6.165   1.667   9.182  0.0613 -0.5518  1.0847
    4SAPS  H12X  512   6.274   1.680   9.196  0.4360 -0.0409 -1.6641
    4SAPS  H12Y  513   6.118   1.766   9.164  1.4112 -0.0194  0.3809
    4SAPS  C313  514   6.129   1.595   9.052  0.2641  0.5317  0.6229
    4SAPS  H13X  515   6.027   1.551   9.052  1.7250 -3.2835 -1.5464
    4SAPS  H13Y  516   6.200   1.512   9.036  0.0275  0.4265  0.0868
    4SAPS  C314  517   6.132   1.688   8.926  0.0800 -0.0700  0.4807
    4SAPS  H14X  518   6.223   1.751   8.935 -0.1590 -0.0100  3.4244
    4SAPS  H14Y  519   6.054   1.767   8.939 -0.7101 -0.9820  1.5144
    4SAPS  C315  520   6.127   1.616   8.786  0.7146 -0.3974  0.2949
    4SAPS  H15X  521   6.197   1.530   8.794  0.5908 -0.4124  1.3712
    4SAPS  H15Y  522   6.172   1.687   8.714  0.2666  0.7199  1.0705
    4SAPS  C316  523   5.990   1.558   8.756  0.7994  0.3112 -0.8436
    4SAPS  H16X  524   5.901   1.612   8.795  0.9455  0.0661 -0.1600
    4SAPS  H16Y  525   5.985   1.453   8.793 -2.4748  1.0244  1.1770
    4SAPS  C317  526   5.965   1.563   8.603 -0.1610  0.2368 -0.5658
    4SAPS  H17X  527   6.043   1.511   8.542  1.6568  1.0836  0.9339
    4SAPS  H17Y  528   5.963   1.667   8.565  0.5775  0.3958 -0.1972
    4SAPS  C318  529   5.830   1.498   8.573  0.6919  0.3310 -0.3541
    4SAPS  H18X  530   5.845   1.389   8.588  1.7739  0.5203  0.0691
    4SAPS  H18Y  531   5.798   1.531   8.472  0.1585  0.6441 -0.0892
    4SAPS  H18Z  532   5.754   1.547   8.638  0.1137  0.7871 -1.3563
    5SAPS     N  533   2.429   5.492  11.284  0.0791  0.5574  0.3784
    5SAPS   HN1  534   2.383   5.449  11.201  0.4693  1.1418 -0.1525
    5SAPS   HN2  535   2.445   5.415  11.352 -1.9282  2.0753  2.7261
    5SAPS   HN3  536   2.358   5.560  11.315 -0.1744  0.8069 -0.7000
    5SAPS   C12  537   2.559   5.556  11.248 -0.2392  0.2295  0.2331
    5SAPS  H12A  538   2.544   5.614  11.159  0.8938  1.0185  0.5360
    5SAPS   C13  539   2.617   5.650  11.356 -0.4082  0.7911 -0.4130
    5SAPS  O13A  540   2.547   5.665  11.461  0.5753 -0.4631  0.2312
    5SAPS  O13B  541   2.727   5.705  11.348  0.2107 -1.2428 -0.0329
    5SAPS   C11  542   2.659   5.436  11.209  0.1731 -1.0453 -0.1095
    5SAPS  H11A  543   2.683   5.375  11.298 -2.2026  0.2726  1.5317
    5SAPS  H11B  544   2.756   5.487  11.188  0.5461 -0.7153  2.1593
    5SAPS     P  545   2.695   5.327  10.980  0.1533  0.4632 -0.2166
    5SAPS   O13  546   2.732   5.453  10.913 -0.1998  0.2019 -0.3826
    5SAPS   O14  547   2.804   5.233  11.001 -0.4339  0.7070  0.0340
    5SAPS   O12  548   2.608   5.351  11.113 -0.1012  0.3115  0.5345
    5SAPS   O11  549   2.600   5.248  10.879 -0.4348  0.0382  0.2533
    5SAPS    C1  550   2.489   5.315  10.828  1.2614  0.3399 -0.5764
    5SAPS    HA  551   2.405   5.251  10.865  1.8242 -1.3524 -2.0678
    5SAPS    HB  552   2.472   5.417  10.867 -1.5483  0.0776 -0.8788
    5SAPS    C2  553   2.494   5.304  10.671 -0.4122  0.3765 -0.1109
    5SAPS    HS  554   2.522   5.199  10.649  0.0927  1.0521 -3.2620
    5SAPS   O21  555   2.587   5.403  10.611 -0.3103 -0.3906 -0.3076
    5SAPS   C21  556   2.701   5.349  10.569 -0.7001  0.3695 -0.5240
    5SAPS   O22  557   2.738   5.237  10.597  0.1313  0.1512  0.4380
    5SAPS   C22  558   2.778   5.441  10.477  0.0813  0.2468 -0.5085
    5SAPS   H2R  559   2.781   5.530  10.544  1.8072  0.3702 -0.6932
    5SAPS   H2S  560   2.885   5.413  10.473 -0.8131 -3.7528 -0.1971
    5SAPS    C3  561   2.351   5.324  10.612 -0.2963 -0.2565  0.1614
    5SAPS    HX  562   2.333   5.434  10.613 -0.6404 -0.2694 -1.7413
    5SAPS    HY  563   2.265   5.286  10.671 -1.3085  0.0639 -1.0762
    5SAPS   O31  564   2.343   5.303  10.472 -1.0621 -0.1848 -0.3713
    5SAPS   C31  565   2.299   5.184  10.428  0.2120 -0.6222 -0.3765
    5SAPS   O32  566   2.276   5.091  10.505 -0.3158 -0.4714  0.0377
    5SAPS   C32  567   2.291   5.193  10.269 -0.2214 -0.5852  0.7283
    5SAPS   H2X  568   2.199   5.252  10.253  0.6751  0.9326  0.9509
    5SAPS   H2Y  569   2.264   5.095  10.225 -2.2744  1.3889 -2.9115
    5SAPS   C23  570   2.706   5.462  10.344 -0.3136 -0.6772  0.1521
    5SAPS   H3R  571   2.610   5.506  10.379 -0.1345 -0.3195  0.1857
    5SAPS   H3S  572   2.675   5.360  10.311 -1.6766 -0.4938  0.7938
    5SAPS   C24  573   2.778   5.551  10.242  0.3920 -0.5223 -0.4275
    5SAPS   H4R  574   2.877   5.513  10.210 -0.1089  0.1018 -2.9045
    5SAPS   H4S  575   2.803   5.650  10.286  0.7990 -1.3882  1.4188
    5SAPS   C25  576   2.688   5.554  10.119 -0.7470  0.0167  0.1451
    5SAPS   H5R  577   2.602   5.619  10.138  0.4440  1.4123  0.9565
    5SAPS   C26  578   2.706   5.504   9.995 -0.7274 -0.1965  0.6397
    5SAPS   H6R  579   2.634   5.534   9.917 -1.7362  0.2769  1.7146
    5SAPS   C27  580   2.830   5.421   9.945  0.3821  0.5426 -0.6822
    5SAPS   H7R  581   2.798   5.322   9.905  0.2447  0.7958 -1.2097
    5SAPS   H7S  582   2.894   5.390  10.030  0.6639 -1.1890 -1.4645
    5SAPS   C28  583   2.933   5.495   9.862 -0.6077  0.6446 -0.2983
    5SAPS   H8R  584   3.001   5.565   9.912  0.4013  0.3617 -1.2318
    5SAPS   C29  585   2.948   5.473   9.727 -0.5607 -0.5090 -0.1495
    5SAPS   H9R  586   3.024   5.534   9.676 -1.4395  1.6230  0.9519
    5SAPS  C210  587   2.867   5.388   9.633  0.1268 -0.5413 -1.4545
    5SAPS  H10R  588   2.799   5.318   9.685  0.6376 -1.7655 -2.3874
    5SAPS  H10S  589   2.942   5.336   9.570  0.5017  0.6612 -2.0403
    5SAPS  C211  590   2.778   5.478   9.556  0.3914 -0.3553  0.0123
    5SAPS  H11R  591   2.682   5.503   9.604 -0.5540 -0.3808 -1.7702
    5SAPS  C212  592   2.798   5.517   9.432 -0.6039  0.7233 -0.2017
    5SAPS  H12R  593   2.713   5.575   9.393 -2.0964 -1.2634 -0.0390
    5SAPS  C213  594   2.921   5.502   9.342 -0.0742 -0.7418  0.5106
    5SAPS  H13R  595   2.916   5.417   9.271  0.2364  1.7280 -2.7221
    5SAPS  H13S  596   3.000   5.474   9.416 -0.6488 -2.5585  0.4879
    5SAPS  C214  597   2.943   5.632   9.271 -0.3078 -0.5909  0.3861
    5SAPS  H14R  598   3.001   5.709   9.323 -0.0183 -0.3800 -0.2395
    5SAPS  C215  599   2.902   5.660   9.144 -0.5767 -0.0838  0.0957
    5SAPS  H15R  600   2.934   5.757   9.103 -0.6302 -0.2986 -0.4646
    5SAPS  C216  601   2.821   5.563   9.063 -0.3339 -0.4217 -0.3746
    5SAPS  H16R  602   2.752   5.620   8.998  1.3193  0.3114 -1.5436
    5SAPS  H16S  603   2.767   5.499   9.136 -1.1158  2.2734  1.5492
    5SAPS  C217  604   2.902   5.470   8.968 -0.0252 -0.8454  0.0989
    5SAPS  H17R  605   2.952   5.398   9.036 -0.9007 -1.2649  0.3196
    5SAPS  H17S  606   2.977   5.535   8.918 -2.1188  1.7973  0.1680
    5SAPS  C218  607   2.816   5.393   8.862 -0.3399  1.3421  0.0613
    5SAPS  H18R  608   2.740   5.338   8.921 -0.0579  0.1139 -0.6807
    5SAPS  H18S  609   2.768   5.465   8.792 -1.4937  0.4912 -0.0635
    5SAPS  C219  610   2.902   5.290   8.786 -0.3857 -0.1753 -0.6969
    5SAPS  H19R  611   2.958   5.237   8.866  0.4877  0.6274 -0.7542
    5SAPS  H19S  612   2.977   5.358   8.739 -0.8490 -0.6371 -2.1465
    5SAPS  C220  613   2.825   5.194   8.698 -0.5522  0.0539 -0.4681
    5SAPS  H20R  614   2.759   5.256   8.634 -0.0275 -1.2998 -2.4098
    5SAPS  H20S  615   2.759   5.124   8.753  0.3704  0.3384  1.0469
    5SAPS  H20T  616   2.889   5.138   8.626  0.0225 -0.3241  0.3254
    5SAPS   C33  617   2.416   5.251  10.207 -0.1636 -0.4244  0.4583
    5SAPS   H3X  618   2.510   5.202  10.240  0.2253  0.8708  1.3749
    5SAPS   H3Y  619   2.433   5.358  10.232 -1.1747 -0.1475  0.0113
    5SAPS   C34  620   2.412   5.222  10.053 -0.9060 -0.3195  0.4553
    5SAPS   H4X  621   2.438   5.117  10.030  3.0377  0.1067  2.0340
    5SAPS   H4Y  622   2.494   5.283  10.009  0.0637 -0.4465  1.9871
    5SAPS   C35  623   2.284   5.248   9.968 -0.5655  0.1863 -0.8535
    5SAPS   H5X  624   2.259   5.356   9.976 -2.1870 -0.2740  1.0309
    5SAPS   H5Y  625   2.204   5.189  10.017  0.4690 -0.5900 -0.0772
    5SAPS   C36  626   2.297   5.201   9.824 -0.3091  0.6627 -0.2059
    5SAPS   H6X  627   2.201   5.208   9.768 -0.8177 -1.8191  0.2000
    5SAPS   H6Y  628   2.324   5.093   9.826 -1.5841  0.3089 -0.6832
    5SAPS   C37  629   2.409   5.262   9.734 -0.4990 -0.7052  0.0776
    5SAPS   H7X  630   2.505   5.222   9.772 -0.8901 -0.2835  1.5530
    5SAPS   H7Y  631   2.401   5.373   9.737  1.2946 -0.5076 -0.9333
    5SAPS   C38  632   2.395   5.217   9.591 -0.1325 -0.4093  0.8254
    5SAPS   H8X  633   2.301   5.255   9.547  0.3092  0.2255  0.4097
    5SAPS   H8Y  634   2.382   5.107   9.586  1.0387 -0.5638  0.8651
    5SAPS   C39  635   2.521   5.260   9.514 -0.2672 -0.2694  0.2135
    5SAPS   H9X  636   2.609   5.237   9.578  1.3186  0.8913 -1.4236
    5SAPS   H9Y  637   2.523   5.369   9.490  0.9784 -0.3437 -0.0863
    5SAPS  C310  638   2.526   5.200   9.372  0.6056 -0.2614 -0.3747
    5SAPS  H10X  639   2.442   5.242   9.312  0.5684 -0.6694 -0.6113
    5SAPS  H10Y  640   2.508   5.092   9.393  3.0049 -0.5350  0.6273
    5SAPS  C311  641   2.650   5.209   9.286  0.1284 -0.4301  0.6727
    5SAPS  H11X  642   2.737   5.183   9.351 -0.0267 -1.5684  0.4518
    5SAPS  H11Y  643   2.654   5.318   9.266  0.1961 -0.3461  1.1229
    5SAPS  C312  644   2.644   5.123   9.164  0.3075 -0.2902 -0.4228
    5SAPS  H12X  645   2.654   5.014   9.183 -0.3624 -0.2468  0.2247
    5SAPS  H12Y  646   2.727   5.148   9.094  0.6657 -0.8401 -0.2030
    5SAPS  C313  647   2.505   5.133   9.081  0.4546 -0.2338 -0.5104
    5SAPS  H13X  648   2.490   5.241   9.058 -2.2000 -0.7734 -1.5930
    5SAPS  H13Y  649   2.428   5.088   9.147  0.9688  0.8162  0.8435
    5SAPS  C314  650   2.514   5.057   8.948 -1.3743 -0.3536  0.4108
    5SAPS  H14X  651   2.507   4.949   8.971 -0.5531 -0.5965 -0.4323
    5SAPS  H14Y  652   2.610   5.086   8.900 -1.7754 -1.2522 -0.9846
    5SAPS  C315  653   2.398   5.114   8.871  0.0219 -0.2888  0.1166
    5SAPS  H15X  654   2.375   5.218   8.901  1.9347 -0.4951  2.6688
    5SAPS  H15Y  655   2.311   5.062   8.916  1.1513 -4.2605 -1.7785
    5SAPS  C316  656   2.401   5.091   8.723  0.2386  0.2698  0.5361
    5SAPS  H16X  657   2.434   4.987   8.704 -0.4190  0.6772 -3.8881
    5SAPS  H16Y  658   2.483   5.150   8.678 -2.2666  1.5701 -2.7743
    5SAPS  C317  659   2.278   5.151   8.661  0.9205 -0.1548  0.3820
    5SAPS  H17X  660   2.277   5.262   8.653  0.7660 -0.2483 -1.1381
    5SAPS  H17Y  661   2.180   5.135   8.711 -0.6133 -2.2968 -2.9690
    5SAPS  C318  662   2.240   5.098   8.520 -0.1822 -0.5640  0.0909
    5SAPS  H18X  663   2.159   5.163   8.483  0.4363  0.7915  1.0476
    5SAPS  H18Y  664   2.214   4.990   8.524  0.6857 -0.7746  0.3155
    5SAPS  H18Z  665   2.329   5.108   8.454  1.0894  0.7398  1.9012
    6SAPS     N  666   6.754   4.824  10.852  0.0158  0.0400 -0.8592
    6SAPS   HN1  667   6.683   4.767  10.902  1.7498 -0.9265  0.6392
    6SAPS   HN2  668   6.838   4.764  10.867 -0.2549 -0.7889 -2.4465
    6SAPS   HN3  669   6.765   4.917  10.898  1.2000 -0.1491 -0.7243
    6SAPS   C12  670   6.729   4.850  10.710 -0.4721  0.0557 -0.1181
    6SAPS  H12A  671   6.716   4.755  10.660 -1.2417  0.5501 -0.9126
    6SAPS   C13  672   6.608   4.943  10.681 -0.3459  1.0079  0.4562
    6SAPS  O13A  673   6.532   4.972  10.779  0.2077  0.1760  0.1747
    6SAPS  O13B  674   6.570   4.957  10.559  0.1429  0.4878 -0.3534
    6SAPS   C11  675   6.861   4.927  10.659  0.6541  0.0228  0.8695
    6SAPS  H11A  676   6.849   4.947  10.550  3.0635 -2.5807 -0.0075
    6SAPS  H11B  677   6.947   4.859  10.674 -1.0940 -1.9188  2.5184
    6SAPS     P  678   7.018   5.145  10.714  0.3093  0.1046  0.1961
    6SAPS   O13  679   6.966   5.284  10.687 -0.3626 -0.1074  0.2025
    6SAPS   O14  680   7.104   5.127  10.833 -0.2478 -0.0793 -0.5055
    6SAPS   O12  681   6.887   5.052  10.728 -0.2457  0.0818  0.5349
    6SAPS   O11  682   7.102   5.102  10.586 -0.8420 -0.6003  0.6982
    6SAPS    C1  683   7.223   5.023  10.601 -0.0028 -0.1546  0.1058
    6SAPS    HA  684   7.289   5.074  10.674 -0.0074 -0.1230  0.0877
    6SAPS    HB  685   7.204   4.917  10.630 -1.7581  0.8741  3.1913
    6SAPS    C2  686   7.301   5.010  10.461  0.9141  0.0282 -0.0183
    6SAPS    HS  687   7.411   5.000  10.474  0.8772 -0.5134 -0.1243
    6SAPS   O21  688   7.285   5.134  10.395 -0.4518 -0.5254  0.3839
    6SAPS   C21  689   7.345   5.240  10.453 -0.8518  0.3945  0.0191
    6SAPS   O22  690   7.430   5.238  10.546  0.6970  0.4719 -0.1248
    6SAPS   C22  691   7.312   5.362  10.362 -0.0456 -0.2107  0.2996
    6SAPS   H2R  692   7.206   5.386  10.385  0.3642  1.9419  0.1561
    6SAPS   H2S  693   7.363   5.452  10.405 -1.5810  1.0794 -0.4619
    6SAPS    C3  694   7.252   4.884  10.372 -0.4096 -0.2925  0.0418
    6SAPS    HX  695   7.143   4.872  10.389 -0.1606  0.1207  2.2220
    6SAPS    HY  696   7.294   4.797  10.427 -1.3513 -0.8122 -0.0378
    6SAPS   O31  697   7.299   4.899  10.235  0.0571  0.1653 -0.0974
    6SAPS   C31  698   7.222   4.953  10.141 -0.2616  0.3986  0.2092
    6SAPS   O32  699   7.117   5.003  10.158  0.8583 -0.1128  0.3319
    6SAPS   C32  700   7.282   4.930  10.000  0.0904  0.0548 -0.3055
    6SAPS   H2X  701   7.216   4.863   9.941  0.9883 -0.1253 -1.1274
    6SAPS   H2Y  702   7.380   4.880  10.005  0.4989  0.9740  2.1379
    6SAPS   C23  703   7.324   5.337  10.212  0.0962  0.5285 -0.1123
    6SAPS   H3R  704   7.263   5.251  10.177 -1.3369  1.7947 -0.8381
    6SAPS   H3S  705   7.426   5.296  10.194 -1.0449 -1.1968 -3.4705
    6SAPS   C24  706   7.311   5.463  10.121  0.1233  0.4377 -0.3375
    6SAPS   H4R  707   7.368   5.456  10.026 -1.0239 -2.2457 -0.9389
    6SAPS   H4S  708   7.364   5.544  10.174 -0.0359 -0.6774  1.6076
    6SAPS   C25  709   7.165   5.488  10.091 -0.4200  0.4733  0.1576
    6SAPS   H5R  710   7.107   5.524  10.177  1.4909  0.0189  1.6978
    6SAPS   C26  711   7.109   5.472   9.968 -0.1569 -0.4605  0.1141
    6SAPS   H6R  712   7.004   5.499   9.948  0.0995  0.3461 -0.1883
    6SAPS   C27  713   7.174   5.425   9.840 -0.4041  0.4630 -0.4006
    6SAPS   H7R  714   7.140   5.323   9.813  1.2931 -0.8894  2.2487
    6SAPS   H7S  715   7.285   5.429   9.843 -0.4398  2.6648 -0.0761
    6SAPS   C28  716   7.128   5.510   9.723 -0.1841 -0.6951 -0.2032
    6SAPS   H8R  717   7.048   5.581   9.749 -1.1906 -2.0862  0.6991
    6SAPS   C29  718   7.170   5.494   9.596 -0.2534 -0.1223 -0.1437
    6SAPS   H9R  719   7.135   5.560   9.515  1.4955  0.5096 -0.4276
    6SAPS  C210  720   7.261   5.390   9.544 -0.5290  0.2056  0.6924
    6SAPS  H10R  721   7.220   5.339   9.454  0.4101  2.9598 -1.4548
    6SAPS  H10S  722   7.275   5.312   9.621 -0.9304  0.8170  1.4048
    6SAPS  C211  723   7.388   5.457   9.505 -0.2470 -0.3852 -0.0699
    6SAPS  H11R  724   7.458   5.480   9.587 -0.3416 -2.1465  0.5349
    6SAPS  C212  725   7.429   5.495   9.387  0.1925 -0.7208  1.1874
    6SAPS  H12R  726   7.530   5.538   9.388  0.6712 -1.8034  0.8622
    6SAPS  C213  727   7.356   5.474   9.257  0.4390 -0.1166 -0.3265
    6SAPS  H13R  728   7.245   5.470   9.261  0.4896 -0.7918  0.7649
    6SAPS  H13S  729   7.379   5.370   9.225 -1.0041 -0.2756 -0.9387
    6SAPS  C214  730   7.407   5.564   9.151 -1.0523 -0.2235  0.5801
    6SAPS  H14R  731   7.506   5.532   9.114 -1.4720  1.4240 -2.2322
    6SAPS  C215  732   7.342   5.657   9.078 -0.1243 -0.1988  0.4166
    6SAPS  H15R  733   7.394   5.713   8.999 -2.0809 -0.6947 -1.3367
    6SAPS  C216  734   7.200   5.699   9.093  0.9407 -0.5498  0.4797
    6SAPS  H16R  735   7.203   5.810   9.090 -5.0204 -0.0620  0.9560
    6SAPS  H16S  736   7.164   5.666   9.193  2.8329 -2.2595  0.6651
    6SAPS  C217  737   7.115   5.665   8.971  0.3998  0.0570 -0.5245
    6SAPS  H17R  738   7.011   5.695   8.998  0.0818  0.0402 -1.7003
    6SAPS  H17S  739   7.105   5.554   8.964  2.0091 -0.0759 -1.1456
    6SAPS  C218  740   7.149   5.731   8.837  0.3468 -0.0849  0.5155
    6SAPS  H18R  741   7.249   5.692   8.808  0.5085 -0.1386  1.1258
    6SAPS  H18S  742   7.157   5.839   8.861  1.6287  0.1300 -0.7802
    6SAPS  C219  743   7.046   5.730   8.723 -0.2062 -0.3474  0.0809
    6SAPS  H19R  744   7.083   5.804   8.648  1.3911  0.2179  1.3771
    6SAPS  H19S  745   6.954   5.776   8.764  0.6090 -0.6993  2.4109
    6SAPS  C220  746   7.026   5.596   8.651 -0.4956 -0.9222 -0.1904
    6SAPS  H20R  747   7.113   5.528   8.648 -1.4455 -2.1334 -0.8444
    6SAPS  H20S  748   6.989   5.606   8.547  1.7109 -0.2879 -0.9564
    6SAPS  H20T  749   6.967   5.530   8.719 -1.6466 -0.2224 -0.4707
    6SAPS   C33  750   7.306   5.055   9.909  0.1011  0.2742  0.4828
    6SAPS   H3X  751   7.366   5.136   9.957  0.3202  0.5432 -0.2299
    6SAPS   H3Y  752   7.211   5.099   9.871  0.9718  0.5782 -1.4604
    6SAPS   C34  753   7.366   5.014   9.776 -0.2915  0.6149 -1.2134
    6SAPS   H4X  754   7.338   5.095   9.704 -2.8112  3.2734  2.3787
    6SAPS   H4Y  755   7.322   4.915   9.751 -0.7991  0.7781 -0.9805
    6SAPS   C35  756   7.517   5.002   9.772 -0.9578  0.2198  0.2710
    6SAPS   H5X  757   7.544   4.921   9.843 -0.3640  0.5427  0.4245
    6SAPS   H5Y  758   7.552   5.097   9.818 -0.6334  0.0107  0.4599
    6SAPS   C36  759   7.578   4.970   9.636  0.0954  0.6776 -0.3603
    6SAPS   H6X  760   7.528   4.875   9.608 -1.1359  0.0813  3.3526
    6SAPS   H6Y  761   7.686   4.957   9.658 -0.1946  2.0868  2.3486
    6SAPS   C37  762   7.548   5.080   9.527  0.2529 -0.7756 -0.1252
    6SAPS   H7X  763   7.556   5.185   9.562 -0.1400 -0.1150 -1.9211
    6SAPS   H7Y  764   7.442   5.065   9.496  0.7516 -2.3822 -1.1409
    6SAPS   C38  765   7.640   5.064   9.404  0.2304 -0.3083  0.1963
    6SAPS   H8X  766   7.644   4.962   9.360  0.5762 -0.7086  1.1391
    6SAPS   H8Y  767   7.741   5.092   9.440 -0.3754 -0.3491  2.0333
    6SAPS   C39  768   7.609   5.148   9.291  0.7402 -0.2784  0.1839
    6SAPS   H9X  769   7.598   5.251   9.331  0.3915 -0.5003  0.6563
    6SAPS   H9Y  770   7.520   5.115   9.233  2.5240 -1.0762 -2.2604
    6SAPS  C310  771   7.724   5.154   9.194  0.5560  1.2674  0.0771
    6SAPS  H10X  772   7.727   5.058   9.137 -0.9357  1.7065 -0.8060
    6SAPS  H10Y  773   7.827   5.162   9.235  1.3456  0.8762 -1.7360
    6SAPS  C311  774   7.711   5.268   9.087 -0.5970  0.0367  0.2925
    6SAPS  H11X  775   7.687   5.367   9.132 -2.4312  0.7341 -2.0375
    6SAPS  H11Y  776   7.626   5.253   9.017 -0.3277  2.3954 -0.6286
    6SAPS  C312  777   7.839   5.278   8.994 -0.5443 -0.2135 -0.2308
    6SAPS  H12X  778   7.855   5.185   8.936 -1.6164 -0.7912  0.3619
    6SAPS  H12Y  779   7.922   5.302   9.063  0.1939  1.2204 -1.5779
    6SAPS  C313  780   7.831   5.376   8.883 -0.5792  0.5307 -0.7328
    6SAPS  H13X  781   7.936   5.388   8.848 -0.2752 -0.0954 -0.0582
    6SAPS  H13Y  782   7.813   5.476   8.928  2.8409 -0.1457  2.6892
    6SAPS  C314  783   7.724   5.339   8.779 -0.9164 -0.6492  0.8479
    6SAPS  H14X  784   7.714   5.228   8.784  2.0525 -1.0023  0.6434
    6SAPS  H14Y  785   7.759   5.349   8.674  0.1665 -2.1120  1.0301
    6SAPS  C315  786   7.590   5.413   8.789 -0.1199  0.0246  0.1361
    6SAPS  H15X  787   7.596   5.499   8.720  0.0260 -0.4842 -0.4960
    6SAPS  H15Y  788   7.579   5.459   8.890 -1.3046  0.2730 -0.0875
    6SAPS  C316  789   7.470   5.318   8.759 -0.5747  0.4396  0.0450
    6SAPS  H16X  790   7.476   5.220   8.812  1.4586  0.4554 -0.0565
    6SAPS  H16Y  791   7.495   5.301   8.652 -2.1764 -3.3388  0.0912
    6SAPS  C317  792   7.342   5.387   8.792 -0.3322  0.5248  0.3249
    6SAPS  H17X  793   7.350   5.484   8.739  0.1990 -0.1177 -0.8111
    6SAPS  H17Y  794   7.335   5.421   8.897 -2.0209  2.8711 -0.4532
    6SAPS  C318  795   7.224   5.300   8.745  0.0264 -0.2729  0.6483
    6SAPS  H18X  796   7.127   5.350   8.767  0.3392  0.1462  1.1083
    6SAPS  H18Y  797   7.227   5.200   8.793  2.2186 -0.3454  0.4860
    6SAPS  H18Z  798   7.234   5.286   8.635 -0.0825  1.2881  0.4166
    7SAPS     N  799   3.835   6.746  10.714 -0.3812  0.1481  0.1740
    7SAPS   HN1  800   3.787   6.655  10.697  0.1103 -0.3052  1.1605
    7SAPS   HN2  801   3.774   6.826  10.689 -0.7388 -0.4210 -0.8608
    7SAPS   HN3  802   3.920   6.745  10.654 -0.6351 -0.4288 -0.1910
    7SAPS   C12  803   3.881   6.744  10.859  0.0802  0.5344  0.3037
    7SAPS  H12A  804   3.953   6.821  10.880 -0.5305  0.6517  2.1444
    7SAPS   C13  805   3.769   6.765  10.962  0.2176  0.1791 -0.0443
    7SAPS  O13A  806   3.666   6.822  10.921 -0.2413  0.4668  0.4868
    7SAPS  O13B  807   3.801   6.764  11.083  0.4912 -0.4925  0.4316
    7SAPS   C11  808   3.954   6.602  10.876  0.0187  0.2471 -0.3464
    7SAPS  H11A  809   3.959   6.584  10.986  0.2171 -1.1859 -0.5704
    7SAPS  H11B  810   4.061   6.612  10.849  0.0329 -0.0436 -0.4021
    7SAPS     P  811   3.976   6.379  10.744 -0.2280 -0.5918 -0.1885
    7SAPS   O13  812   4.060   6.318  10.845 -0.0764  0.2136  0.1564
    7SAPS   O14  813   3.879   6.300  10.666  0.1203 -0.1198  0.0161
    7SAPS   O12  814   3.890   6.495  10.802 -0.2400 -0.4340 -0.2177
    7SAPS   O11  815   4.062   6.455  10.637 -0.1187 -0.5109  0.0650
    7SAPS    C1  816   4.208   6.441  10.637  0.6777  0.1102  0.6717
    7SAPS    HA  817   4.242   6.539  10.676 -1.2097  1.0727  0.0007
    7SAPS    HB  818   4.239   6.357  10.703 -1.7612 -0.7392  0.8592
    7SAPS    C2  819   4.264   6.435  10.489 -0.3609  0.4106 -0.7444
    7SAPS    HS  820   4.373   6.436  10.508 -0.6176 -0.4584  0.9956
    7SAPS   O21  821   4.218   6.550  10.413  0.0247 -0.0505  0.4969
    7SAPS   C21  822   4.307   6.597  10.326 -0.6645  0.6182  0.0843
    7SAPS   O22  823   4.417   6.554  10.296  0.5866 -0.2082 -0.5035
    7SAPS   C22  824   4.235   6.713  10.257 -0.2106 -0.3556  0.4285
    7SAPS   H2R  825   4.147   6.679  10.198 -0.4350 -1.1679  1.2060
    7SAPS   H2S  826   4.202   6.798  10.320  3.4811  1.4825  0.1462
    7SAPS    C3  827   4.222   6.309  10.410  0.1366 -0.0420  0.0184
    7SAPS    HX  828   4.111   6.303  10.413  0.1893 -1.0279  1.6368
    7SAPS    HY  829   4.244   6.221  10.475 -1.7290  0.0474  0.8356
    7SAPS   O31  830   4.267   6.295  10.271 -0.5084  1.1150 -0.1639
    7SAPS   C31  831   4.397   6.252  10.264 -0.4537  0.3417  0.3564
    7SAPS   O32  832   4.471   6.239  10.362 -0.0585 -0.7142 -0.6795
    7SAPS   C32  833   4.449   6.216  10.119  0.1906  0.6916  0.0641
    7SAPS   H2X  834   4.448   6.106  10.104  1.9353  0.5487  0.7989
    7SAPS   H2Y  835   4.553   6.255  10.119  0.1893  0.7244 -1.0810
    7SAPS   C23  836   4.335   6.762  10.148 -0.2081  0.4748  0.3801
    7SAPS   H3R  837   4.327   6.691  10.063  0.6140 -1.1819  1.6381
    7SAPS   H3S  838   4.443   6.779  10.169 -0.0982  0.7540 -0.3648
    7SAPS   C24  839   4.293   6.906  10.100  0.0932  0.6162 -0.0509
    7SAPS   H4R  840   4.372   6.939  10.029 -0.4958  0.1603 -0.9340
    7SAPS   H4S  841   4.290   6.983  10.180  1.4263  0.4767  0.1691
    7SAPS   C25  842   4.164   6.914  10.030  0.0004  0.2790 -0.7659
    7SAPS   H5R  843   4.076   6.897  10.093  0.3638 -0.8029 -0.5285
    7SAPS   C26  844   4.143   6.922   9.902  0.1530  0.0106 -0.5913
    7SAPS   H6R  845   4.041   6.917   9.860 -0.7340 -0.6467  1.5245
    7SAPS   C27  846   4.251   6.946   9.799 -0.9177 -0.1495  0.2197
    7SAPS   H7R  847   4.348   6.980   9.842 -2.1199  0.7983  2.3157
    7SAPS   H7S  848   4.209   7.039   9.755 -1.0034 -0.5463 -0.5607
    7SAPS   C28  849   4.263   6.836   9.699  0.0875 -0.0026  0.1214
    7SAPS   H8R  850   4.314   6.743   9.731  2.3219  1.8047  2.2684
    7SAPS   C29  851   4.213   6.838   9.568  0.3268  0.0951 -0.0753
    7SAPS   H9R  852   4.216   6.742   9.513 -0.1621  0.2706 -0.4140
    7SAPS  C210  853   4.144   6.953   9.502  0.3825  0.3170 -0.4840
    7SAPS  H10R  854   4.189   7.052   9.520 -1.7381  1.0319  1.4111
    7SAPS  H10S  855   4.037   6.960   9.532 -0.1129  0.3288 -2.1608
    7SAPS  C211  856   4.132   6.938   9.353  0.0577  0.3797 -0.2614
    7SAPS  H11R  857   4.038   6.889   9.326 -0.2011  0.4447  0.4954
    7SAPS  C212  858   4.212   6.986   9.248  0.1048  0.3439 -0.0962
    7SAPS  H12R  859   4.199   6.934   9.151  2.1734  0.3977 -0.4357
    7SAPS  C213  860   4.347   7.059   9.250  0.2226  0.5280  0.6998
    7SAPS  H13R  861   4.351   7.123   9.341 -0.2128 -0.6378  1.5693
    7SAPS  H13S  862   4.361   7.130   9.166  1.3039  1.6716  1.7928
    7SAPS  C214  863   4.452   6.956   9.255 -0.5596 -0.3921  0.1590
    7SAPS  H14R  864   4.450   6.889   9.342 -0.0117 -0.0574  0.4374
    7SAPS  C215  865   4.558   6.952   9.176 -0.3188  0.3507 -0.1848
    7SAPS  H15R  866   4.618   6.861   9.181 -0.9074 -0.0294  0.2169
    7SAPS  C216  867   4.592   7.048   9.063 -0.5137  0.4433  0.3932
    7SAPS  H16R  868   4.697   7.076   9.088 -0.6461 -0.8192  2.6353
    7SAPS  H16S  869   4.532   7.141   9.054  2.8341  3.0950  2.7509
    7SAPS  C217  870   4.598   6.985   8.922 -0.3742 -0.0951  0.1163
    7SAPS  H17R  871   4.495   6.946   8.903 -0.4319 -0.5500  1.2613
    7SAPS  H17S  872   4.670   6.900   8.916 -1.0521 -0.7297  0.7369
    7SAPS  C218  873   4.619   7.093   8.821  0.3549  0.8532  0.0777
    7SAPS  H18R  874   4.555   7.179   8.846 -0.1177  0.5673 -0.1360
    7SAPS  H18S  875   4.605   7.064   8.715  0.0209  1.5983 -0.0818
    7SAPS  C219  876   4.771   7.132   8.827  0.5645  0.0301  0.8801
    7SAPS  H19R  877   4.827   7.054   8.772 -1.1431  0.6983 -2.0258
    7SAPS  H19S  878   4.818   7.143   8.927  1.9641 -0.9968  0.3664
    7SAPS  C220  879   4.796   7.276   8.762 -0.0738 -0.5611  0.3930
    7SAPS  H20R  880   4.741   7.353   8.821  1.2853  0.1374  0.7765
    7SAPS  H20S  881   4.748   7.282   8.662 -0.1087 -3.0438  0.1767
    7SAPS  H20T  882   4.904   7.299   8.769 -0.1120 -0.4469  0.5912
    7SAPS   C33  883   4.370   6.288  10.008 -0.0577  1.1662  0.0118
    7SAPS   H3X  884   4.356   6.396  10.027 -2.3111  0.9881 -0.4204
    7SAPS   H3Y  885   4.263   6.260  10.000  0.7549 -1.9090 -2.7805
    7SAPS   C34  886   4.430   6.281   9.868 -0.0304 -0.0021 -0.5366
    7SAPS   H4X  887   4.410   6.181   9.824  0.1980  0.7927 -2.5647
    7SAPS   H4Y  888   4.537   6.309   9.859  0.3907 -1.9761 -2.4589
    7SAPS   C35  889   4.348   6.370   9.773  0.3863 -0.5362  0.7480
    7SAPS   H5X  890   4.348   6.474   9.810  1.0230  0.4459 -1.8044
    7SAPS   H5Y  891   4.241   6.341   9.777  0.4838 -0.7854  1.7544
    7SAPS   C36  892   4.410   6.368   9.631 -0.5054  0.1177 -0.0707
    7SAPS   H6X  893   4.391   6.265   9.592  1.2632 -1.0772  1.9981
    7SAPS   H6Y  894   4.521   6.376   9.625 -0.6058  0.5828 -2.0931
    7SAPS   C37  895   4.352   6.467   9.529  0.3763  0.1943 -0.2335
    7SAPS   H7X  896   4.382   6.570   9.556 -1.1161  0.8408 -0.9877
    7SAPS   H7Y  897   4.242   6.471   9.543  0.1256 -0.2440 -1.8931
    7SAPS   C38  898   4.381   6.429   9.381 -0.2436 -0.1796 -0.0546
    7SAPS   H8X  899   4.344   6.325   9.375 -0.5396 -0.2347  1.9296
    7SAPS   H8Y  900   4.491   6.444   9.375 -0.3722  1.1408  0.3904
    7SAPS   C39  901   4.306   6.530   9.295  0.3826 -0.0956  0.1525
    7SAPS   H9X  902   4.353   6.628   9.318 -0.6045  0.0275  1.8287
    7SAPS   H9Y  903   4.200   6.553   9.319  0.5939  0.0723  0.9771
    7SAPS  C310  904   4.339   6.515   9.145  0.3155 -0.2200  0.2747
    7SAPS  H10X  905   4.450   6.519   9.143  0.3784 -1.7085 -0.7398
    7SAPS  H10Y  906   4.296   6.607   9.100 -0.1500  0.2586  1.6166
    7SAPS  C311  907   4.277   6.391   9.075 -0.2092 -0.7476  0.1269
    7SAPS  H11X  908   4.172   6.371   9.105 -0.6390  1.0597 -0.0939
    7SAPS  H11Y  909   4.329   6.300   9.111 -0.7832 -1.0066  0.3128
    7SAPS  C312  910   4.281   6.388   8.921  0.1910  0.2493  0.9032
    7SAPS  H12X  911   4.384   6.417   8.893 -0.4401 -0.2976 -2.4169
    7SAPS  H12Y  912   4.207   6.468   8.896 -0.7896 -1.0075 -0.3571
    7SAPS  C313  913   4.236   6.257   8.861  0.7734 -0.0303 -0.9084
    7SAPS  H13X  914   4.129   6.242   8.887  0.7909 -0.1130 -0.8817
    7SAPS  H13Y  915   4.291   6.175   8.912 -3.3038 -2.0728  0.7500
    7SAPS  C314  916   4.250   6.249   8.708  0.8554  0.1697 -0.3695
    7SAPS  H14X  917   4.217   6.148   8.677 -0.2087 -0.0065  1.2155
    7SAPS  H14Y  918   4.353   6.271   8.674  0.6435  0.3351 -0.9223
    7SAPS  C315  919   4.157   6.349   8.639  0.7500 -0.3052 -0.0159
    7SAPS  H15X  920   4.176   6.456   8.663 -0.6590  0.6298 -2.6751
    7SAPS  H15Y  921   4.052   6.339   8.671  0.5510 -0.7560 -0.7894
    7SAPS  C316  922   4.166   6.352   8.486 -0.8783 -0.2586  0.4067
    7SAPS  H16X  923   4.139   6.252   8.447 -2.2781 -0.4602  1.7764
    7SAPS  H16Y  924   4.273   6.357   8.456 -1.1700  1.2028 -0.4891
    7SAPS  C317  925   4.094   6.463   8.413 -0.0626  0.3728 -0.2249
    7SAPS  H17X  926   4.157   6.552   8.432  0.8854 -0.7887  2.6212
    7SAPS  H17Y  927   3.994   6.481   8.457  0.9149  0.7791  1.9829
    7SAPS  C318  928   4.103   6.435   8.264  0.2367  0.6952  0.2451
    7SAPS  H18X  929   4.032   6.355   8.234  2.6518 -0.9966 -1.2720
    7SAPS  H18Y  930   4.195   6.381   8.234 -2.2041 -3.4460 -0.6451
    7SAPS  H18Z  931   4.087   6.533   8.214 -2.1347  0.0089 -0.4700
    8SAPS     N  932   1.279   0.230  10.969 -0.1156 -0.3056  0.1689
    8SAPS   HN1  933   1.272   0.129  10.942 -0.6092 -0.6866  1.6275
    8SAPS   HN2  934   1.191   0.275  10.937  0.1997 -1.4729 -2.6473
    8SAPS   HN3  935   1.358   0.261  10.909 -1.0353  1.0763 -0.3644
    8SAPS   C12  936   1.291   0.232  11.115  0.7398 -0.0990  0.1804
    8SAPS  H12A  937   1.342   0.325  11.134 -0.1625  0.7174 -1.1479
    8SAPS   C13  938   1.149   0.239  11.177 -0.0772 -0.0275 -0.0902
    8SAPS  O13A  939   1.040   0.248  11.113 -0.2768 -0.4991  0.3606
    8SAPS  O13B  940   1.149   0.227  11.304 -0.2178 -0.2079 -0.4071
    8SAPS   C11  941   1.364   0.102  11.160  0.4937 -0.6196  0.2055
    8SAPS  H11A  942   1.301   0.014  11.137 -2.2245  1.5125 -1.1940
    8SAPS  H11B  943   1.360   0.097  11.270  1.4330  0.7750  0.3336
    8SAPS     P  944   1.566  -0.039  11.102  0.1729  0.2248 -0.1655
    8SAPS   O13  945   1.714  -0.024  11.122  0.3498 -0.1524 -0.5286
    8SAPS   O14  946   1.492  -0.134  11.195  0.3709 -0.5597  0.0888
    8SAPS   O12  947   1.500   0.103  11.112 -0.0360 -0.0473  0.3039
    8SAPS   O11  948   1.526  -0.090  10.959 -0.5496 -1.1904  0.1607
    8SAPS    C1  949   1.545  -0.003  10.844 -0.5880  0.6897 -0.9665
    8SAPS    HA  950   1.446   0.011  10.794 -1.0615  3.0031  0.4555
    8SAPS    HB  951   1.572   0.104  10.859 -1.5493  0.8943 -0.6157
    8SAPS    C2  952   1.625  -0.082  10.739 -0.1641  0.2344  0.3680
    8SAPS    HS  953   1.727  -0.094  10.779  0.1349  2.0988  0.2922
    8SAPS   O21  954   1.624  -0.006  10.613 -0.1633 -0.5776 -0.2512
    8SAPS   C21  955   1.673   0.112  10.617 -0.4046  0.0959 -0.4966
    8SAPS   O22  956   1.751   0.153  10.700  0.1529 -0.0387 -0.0409
    8SAPS   C22  957   1.595   0.194  10.504  0.2398  0.2993 -0.8689
    8SAPS   H2R  958   1.553   0.134  10.420 -0.2905  2.8697 -2.5712
    8SAPS   H2S  959   1.518   0.256  10.555  1.0595  0.3362  0.3650
    8SAPS    C3  960   1.570  -0.225  10.717  0.1898  0.1609 -0.1375
    8SAPS    HX  961   1.464  -0.214  10.685  0.6439 -0.7711 -2.1311
    8SAPS    HY  962   1.581  -0.285  10.810  1.6763  0.8901  0.1685
    8SAPS   O31  963   1.634  -0.295  10.605 -0.3871 -0.3497  0.1896
    8SAPS   C31  964   1.742  -0.371  10.638  0.3895 -0.6558 -0.3206
    8SAPS   O32  965   1.789  -0.375  10.752 -1.0562 -0.0714 -0.8240
    8SAPS   C32  966   1.789  -0.440  10.517 -0.3412  0.2998  0.7640
    8SAPS   H2X  967   1.702  -0.492  10.470 -0.5299  1.5678 -0.3619
    8SAPS   H2Y  968   1.874  -0.509  10.535  0.9003  1.5517 -0.0892
    8SAPS   C23  969   1.687   0.291  10.418  0.1656 -0.5854  0.0050
    8SAPS   H3R  970   1.755   0.221  10.365  0.1192 -2.7424  2.5682
    8SAPS   H3S  971   1.752   0.345  10.490 -0.0576 -0.4843  0.1333
    8SAPS   C24  972   1.622   0.398  10.328  0.3085 -0.2799  0.4598
    8SAPS   H4R  973   1.705   0.464  10.293 -0.3011 -0.6330 -1.7636
    8SAPS   H4S  974   1.555   0.462  10.390  1.7554 -0.8930  2.7754
    8SAPS   C25  975   1.549   0.334  10.220  0.2425 -0.0521 -0.0558
    8SAPS   H5R  976   1.452   0.288  10.245  0.6330 -1.3481 -0.8142
    8SAPS   C26  977   1.592   0.325  10.092  0.2181 -0.5987  0.4103
    8SAPS   H6R  978   1.528   0.275  10.018  0.1675 -0.0885  0.1090
    8SAPS   C27  979   1.725   0.374  10.031 -0.1649 -0.5886  0.0833
    8SAPS   H7R  980   1.745   0.474  10.076  0.5576 -1.0175  0.7399
    8SAPS   H7S  981   1.702   0.386   9.923  2.6792  0.5114 -0.4827
    8SAPS   C28  982   1.859   0.306  10.051  0.2946  0.0842  0.1792
    8SAPS   H8R  983   1.906   0.339  10.144 -0.9769  2.9831 -0.0890
    8SAPS   C29  984   1.933   0.257   9.951 -0.0202 -0.0348 -0.2724
    8SAPS   H9R  985   2.027   0.203   9.974 -0.5265 -0.9840 -0.3860
    8SAPS  C210  986   1.902   0.259   9.799 -0.0590 -0.6113 -0.1004
    8SAPS  H10R  987   1.867   0.358   9.762 -1.6260 -1.3592 -0.6952
    8SAPS  H10S  988   1.810   0.201   9.775 -0.5297  0.4834 -1.0566
    8SAPS  C211  989   2.023   0.204   9.726  0.3383 -0.0979 -0.0434
    8SAPS  H11R  990   2.119   0.212   9.780 -1.0471 -2.0898  3.0312
    8SAPS  C212  991   2.030   0.156   9.599 -0.4518 -0.5462  0.2163
    8SAPS  H12R  992   2.121   0.102   9.567 -0.0542  0.9585 -1.3672
    8SAPS  C213  993   1.914   0.139   9.506  0.0591  0.4227  0.1744
    8SAPS  H13R  994   1.821   0.191   9.538  0.2136  2.4067 -2.2944
    8SAPS  H13S  995   1.893   0.030   9.502 -1.9699  0.7689  0.3894
    8SAPS  C214  996   1.948   0.192   9.364  0.4323 -0.4644 -0.6587
    8SAPS  H14R  997   2.007   0.121   9.304  1.4177  0.3130 -0.6385
    8SAPS  C215  998   1.914   0.309   9.304  0.6189  1.0796 -0.4416
    8SAPS  H15R  999   1.936   0.323   9.197  1.1138 -2.6819 -0.9550
    8SAPS  C216 1000   1.833   0.419   9.371 -0.7932  0.1656 -0.5872
    8SAPS  H16R 1001   1.889   0.464   9.456  0.9993  0.0423 -1.6523
    8SAPS  H16S 1002   1.743   0.377   9.420 -1.4771  0.2105 -1.7933
    8SAPS  C217 1003   1.792   0.534   9.282  0.3836  0.6376  0.6651
    8SAPS  H17R 1004   1.872   0.607   9.260  0.1241  0.4256 -1.1977
    8SAPS  H17S 1005   1.705   0.590   9.322 -0.4272  1.6439 -2.2444
    8SAPS  C218 1006   1.743   0.478   9.142 -0.5610  0.5053 -0.6221
    8SAPS  H18R 1007   1.683   0.387   9.165  0.1004  0.4894  1.2091
    8SAPS  H18S 1008   1.827   0.457   9.073 -0.8562 -0.2596 -0.7588
    8SAPS  C219 1009   1.637   0.570   9.078 -0.1572  0.7501  0.4621
    8SAPS  H19R 1010   1.697   0.645   9.023  2.6579 -1.2706  0.5558
    8SAPS  H19S 1011   1.581   0.626   9.156  1.2280  0.5264  1.6827
    8SAPS  C220 1012   1.532   0.498   8.985  0.6072  0.7151 -0.3220
    8SAPS  H20R 1013   1.483   0.409   9.031 -0.7812  1.2892 -0.6378
    8SAPS  H20S 1014   1.579   0.471   8.888  2.2636 -1.8555  1.0635
    8SAPS  H20T 1015   1.449   0.571   8.971  0.3155  0.3268 -0.6412
    8SAPS   C33 1016   1.863  -0.353  10.407 -0.5661  0.6721  0.0790
    8SAPS   H3X 1017   1.932  -0.287  10.464  0.6499 -1.8548  1.7218
    8SAPS   H3Y 1018   1.799  -0.295  10.337  0.2189  0.3572 -0.9215
    8SAPS   C34 1019   1.971  -0.426  10.323  0.2644 -1.2924  0.1826
    8SAPS   H4X 1020   2.042  -0.473  10.394  1.1531  0.6866  0.6748
    8SAPS   H4Y 1021   2.036  -0.352  10.272 -0.8758  0.2979  0.9669
    8SAPS   C35 1022   1.906  -0.524  10.228  0.5710 -0.6025  0.2259
    8SAPS   H5X 1023   1.821  -0.472  10.178  1.1662 -0.5437 -0.7404
    8SAPS   H5Y 1024   1.857  -0.608  10.281 -2.1235  0.5491 -0.2464
    8SAPS   C36 1025   1.996  -0.559  10.116 -0.5050  0.0361 -0.4428
    8SAPS   H6X 1026   2.086  -0.609  10.155  1.7091  1.6635 -3.0653
    8SAPS   H6Y 1027   2.032  -0.466  10.067  1.7133  0.2800  1.5058
    8SAPS   C37 1028   1.942  -0.670  10.023  1.0540 -0.1543 -0.6658
    8SAPS   H7X 1029   1.856  -0.645   9.957  0.2498 -3.2493 -0.9736
    8SAPS   H7Y 1030   1.895  -0.751  10.083  0.5595  1.6413  1.4737
    8SAPS   C38 1031   2.045  -0.748   9.935  0.6660  1.0888  0.0138
    8SAPS   H8X 1032   2.003  -0.844   9.899  2.6346  0.7392 -1.5366
    8SAPS   H8Y 1033   2.142  -0.771   9.982  0.8183 -0.7932 -1.1351
    8SAPS   C39 1034   2.059  -0.678   9.793 -0.5394  0.6112 -0.3008
    8SAPS   H9X 1035   2.076  -0.569   9.802  1.8934  0.2745 -0.1632
    8SAPS   H9Y 1036   1.970  -0.696   9.729  0.3415  0.2286 -1.4566
    8SAPS  C310 1037   2.178  -0.741   9.722 -0.3624 -0.1526 -0.7560
    8SAPS  H10X 1038   2.164  -0.851   9.724 -0.8934 -0.0922  1.9154
    8SAPS  H10Y 1039   2.274  -0.705   9.765 -0.8294 -0.0975  0.2513
    8SAPS  C311 1040   2.196  -0.706   9.576  0.2578 -0.2300 -0.3110
    8SAPS  H11X 1041   2.295  -0.737   9.536 -1.2394 -5.1137 -0.8481
    8SAPS  H11Y 1042   2.179  -0.598   9.557 -0.8111 -0.4650 -0.7602
    8SAPS  C312 1043   2.098  -0.783   9.483  0.0930 -1.1827 -0.4568
    8SAPS  H12X 1044   1.998  -0.777   9.533  0.4501  1.1707  0.0929
    8SAPS  H12Y 1045   2.137  -0.887   9.479  0.7611 -0.9379 -0.4251
    8SAPS  C313 1046   2.073  -0.723   9.345 -0.3483 -0.5187 -0.0862
    8SAPS  H13X 1047   2.083  -0.613   9.353  1.2432 -0.6551  0.2969
    8SAPS  H13Y 1048   1.969  -0.740   9.311 -0.9023 -0.5288  1.5361
    8SAPS  C314 1049   2.172  -0.776   9.237  0.1396 -0.2156 -0.0645
    8SAPS  H14X 1050   2.152  -0.881   9.205  0.7467 -1.3015  2.8099
    8SAPS  H14Y 1051   2.269  -0.781   9.290 -0.2280 -0.6380  0.5851
    8SAPS  C315 1052   2.185  -0.686   9.113  0.5459  0.1383 -0.3965
    8SAPS  H15X 1053   2.228  -0.591   9.152 -1.4488 -0.2990  3.2328
    8SAPS  H15Y 1054   2.086  -0.664   9.068  1.2513  0.5281 -1.8338
    8SAPS  C316 1055   2.281  -0.742   9.011 -0.4677 -0.2133 -0.2276
    8SAPS  H16X 1056   2.256  -0.842   8.971 -2.3343 -0.1177  0.6156
    8SAPS  H16Y 1057   2.377  -0.768   9.060  0.3210 -0.1224 -1.6646
    8SAPS  C317 1058   2.295  -0.637   8.904 -0.8646  0.7352 -0.3331
    8SAPS  H17X 1059   2.350  -0.550   8.944  1.2519 -0.3083 -0.8490
    8SAPS  H17Y 1060   2.190  -0.610   8.878 -1.1928 -0.9241 -0.8870
    8SAPS  C318 1061   2.373  -0.688   8.774 -0.7553 -0.6483 -0.3470
    8SAPS  H18X 1062   2.317  -0.774   8.734 -0.3996 -0.9310 -0.2457
    8SAPS  H18Y 1063   2.473  -0.732   8.797 -0.4581 -0.3513 -1.0364
    8SAPS  H18Z 1064   2.385  -0.598   8.710  0.1033  1.9578  3.1335
    9SAPS     N 1065   4.586   3.057   6.110 -0.2790  0.1353  0.2635
    9SAPS   HN1 1066   4.498   3.030   6.157 -2.2972  2.4690 -1.9084
    9SAPS   HN2 1067   4.630   3.129   6.172 -0.7317  0.8488 -0.2282
    9SAPS   HN3 1068   4.565   3.095   6.015  1.0780 -2.3078 -1.1220
    9SAPS   C12 1069   4.668   2.937   6.082  0.3655  0.2285  0.0537
    9SAPS  H12A 1070   4.606   2.872   6.023  0.8760 -0.2112 -0.0058
    9SAPS   C13 1071   4.799   2.973   6.010 -0.7800 -0.2368 -0.2016
    9SAPS  O13A 1072   4.829   3.088   5.989 -0.3026  0.0793  0.3113
    9SAPS  O13B 1073   4.859   2.880   5.946  0.4588 -0.2769  0.6994
    9SAPS   C11 1074   4.713   2.877   6.217  0.6877  0.2388 -0.3774
    9SAPS  H11A 1075   4.761   2.954   6.281 -2.3338  1.6075  0.4557
    9SAPS  H11B 1076   4.790   2.804   6.186 -0.2125  0.1937 -2.6773
    9SAPS     P 1077   4.613   2.727   6.407 -0.0728 -0.0014  0.5209
    9SAPS   O13 1078   4.485   2.729   6.485  0.0626  0.3984  0.3434
    9SAPS   O14 1079   4.666   2.603   6.362  0.1004  0.6714  0.3175
    9SAPS   O12 1080   4.594   2.826   6.285 -0.2329 -0.4537  0.2367
    9SAPS   O11 1081   4.727   2.797   6.477 -0.4060  0.7143 -0.0123
    9SAPS    C1 1082   4.728   2.911   6.557  0.0823  0.6593  0.2086
    9SAPS    HA 1083   4.822   2.964   6.532  1.3246 -2.1648 -1.6495
    9SAPS    HB 1084   4.647   2.979   6.521 -0.3174  0.8483  1.4194
    9SAPS    C2 1085   4.711   2.886   6.703 -0.5720 -0.1830 -0.5250
    9SAPS    HS 1086   4.614   2.843   6.736 -0.5865 -0.3303 -0.7590
    9SAPS   O21 1087   4.761   3.008   6.774  0.3577  0.0577  0.4043
    9SAPS   C21 1088   4.667   3.097   6.781 -0.1892 -0.0061 -0.0172
    9SAPS   O22 1089   4.555   3.084   6.731  0.2400  0.1968  0.4231
    9SAPS   C22 1090   4.707   3.198   6.887  0.0688 -0.2357  0.0145
    9SAPS   H2R 1091   4.812   3.182   6.918  0.4848  0.7399 -0.8281
    9SAPS   H2S 1092   4.685   3.290   6.828 -0.2588 -1.3796 -1.7351
    9SAPS    C3 1093   4.811   2.770   6.738 -0.3284 -0.4952 -0.7021
    9SAPS    HX 1094   4.912   2.798   6.702  1.1295 -0.5972  2.9033
    9SAPS    HY 1095   4.778   2.676   6.688 -0.7770 -0.6717 -0.0805
    9SAPS   O31 1096   4.810   2.753   6.880 -0.0086 -0.1427 -0.0061
    9SAPS   C31 1097   4.712   2.681   6.932  0.3137  0.3511  0.4370
    9SAPS   O32 1098   4.613   2.631   6.881 -0.6136  0.1590 -0.4319
    9SAPS   C32 1099   4.738   2.675   7.081  0.3831 -0.4388  0.5171
    9SAPS   H2X 1100   4.697   2.763   7.136 -1.0507  0.6741 -2.1395
    9SAPS   H2Y 1101   4.848   2.687   7.094  0.3327 -0.0573  0.6289
    9SAPS   C23 1102   4.622   3.184   7.013  0.2547 -0.3615  0.0970
    9SAPS   H3R 1103   4.648   3.091   7.067 -2.2764 -0.4070  1.3644
    9SAPS   H3S 1104   4.514   3.172   6.987  0.1025 -3.1477  1.6055
    9SAPS   C24 1105   4.623   3.301   7.107 -0.3445  0.2575  0.2013
    9SAPS   H4R 1106   4.607   3.393   7.048  0.7793  0.5757  0.3701
    9SAPS   H4S 1107   4.720   3.318   7.158  0.0178 -1.9948  0.3963
    9SAPS   C25 1108   4.507   3.312   7.204  0.1558  0.0903  0.6012
    9SAPS   H5R 1109   4.408   3.311   7.155 -0.3600 -1.7734  1.5653
    9SAPS   C26 1110   4.509   3.297   7.336  0.7982  0.0553 -0.8556
    9SAPS   H6R 1111   4.416   3.313   7.393  1.7825  0.0607  0.8342
    9SAPS   C27 1112   4.630   3.276   7.427 -0.5688  0.0110 -0.8526
    9SAPS   H7R 1113   4.673   3.376   7.449 -3.2494  1.0522  0.0841
    9SAPS   H7S 1114   4.710   3.232   7.364  0.6904 -1.7015  1.7660
    9SAPS   C28 1115   4.601   3.186   7.541 -0.0005 -0.6501 -0.0832
    9SAPS   H8R 1116   4.584   3.080   7.517 -2.0714  0.0477 -2.1139
    9SAPS   C29 1117   4.596   3.219   7.668  0.0613  0.2808  0.2398
    9SAPS   H9R 1118   4.572   3.132   7.731  0.8353 -2.1374 -2.5314
    9SAPS  C210 1119   4.615   3.352   7.738 -0.6234  0.7777  0.3019
    9SAPS  H10R 1120   4.695   3.405   7.682 -0.7040 -0.2483 -0.8336
    9SAPS  H10S 1121   4.661   3.329   7.837  0.4254  2.7359  0.3185
    9SAPS  C211 1122   4.487   3.436   7.736 -0.4633  1.0022 -0.7196
    9SAPS  H11R 1123   4.396   3.403   7.685 -0.3707 -0.2932 -0.0742
    9SAPS  C212 1124   4.472   3.540   7.813  0.3137 -0.4124 -0.5087
    9SAPS  H12R 1125   4.378   3.595   7.792 -0.5070 -1.1585  1.0330
    9SAPS  C213 1126   4.568   3.606   7.908  0.0615 -0.0487 -0.2730
    9SAPS  H13R 1127   4.674   3.574   7.901  0.5608  1.3473  0.4326
    9SAPS  H13S 1128   4.548   3.553   8.004  1.4085 -0.5292 -0.2385
    9SAPS  C214 1129   4.564   3.761   7.919  0.0548  0.0644 -0.6413
    9SAPS  H14R 1130   4.538   3.809   7.824 -0.5222  2.6414  0.7395
    9SAPS  C215 1131   4.574   3.828   8.040 -0.4423  0.0695  0.7643
    9SAPS  H15R 1132   4.542   3.933   8.044  1.2467  0.5812  2.0947
    9SAPS  C216 1133   4.602   3.758   8.171 -0.5502  0.7259  0.1009
    9SAPS  H16R 1134   4.704   3.788   8.205 -0.2033 -1.0756  0.7586
    9SAPS  H16S 1135   4.601   3.647   8.163 -0.7258  0.5986  1.5506
    9SAPS  C217 1136   4.502   3.800   8.281 -0.1743 -0.4675 -0.2428
    9SAPS  H17R 1137   4.400   3.777   8.242  0.2415 -2.1165 -0.4170
    9SAPS  H17S 1138   4.501   3.908   8.306  0.0004 -0.1793 -1.4210
    9SAPS  C218 1139   4.519   3.715   8.401 -0.1865 -0.8762  0.6672
    9SAPS  H18R 1140   4.621   3.735   8.440  0.1765  0.0487 -0.6866
    9SAPS  H18S 1141   4.489   3.610   8.378 -1.1203 -0.1167 -1.9775
    9SAPS  C219 1142   4.409   3.755   8.505  0.1559  0.0844 -0.3692
    9SAPS  H19R 1143   4.312   3.759   8.450  0.7596 -1.5587 -1.6316
    9SAPS  H19S 1144   4.448   3.851   8.546  1.9232 -0.5284 -0.5410
    9SAPS  C220 1145   4.384   3.652   8.623 -0.0687 -0.0312  0.8622
    9SAPS  H20R 1146   4.323   3.565   8.589 -0.2485 -0.2942  1.8462
    9SAPS  H20S 1147   4.331   3.695   8.710 -0.2289 -1.6934  1.6218
    9SAPS  H20T 1148   4.483   3.621   8.664  0.9206  0.6135 -0.9006
    9SAPS   C33 1149   4.678   2.549   7.143 -0.0384  0.0880  0.4742
    9SAPS   H3X 1150   4.728   2.457   7.106  0.7872  1.5554 -2.4234
    9SAPS   H3Y 1151   4.575   2.535   7.105 -0.1358 -1.0196  1.1283
    9SAPS   C34 1152   4.688   2.543   7.288 -0.5824 -0.1960 -0.1112
    9SAPS   H4X 1153   4.603   2.589   7.343 -0.1176 -1.5053  1.7986
    9SAPS   H4Y 1154   4.785   2.586   7.320 -0.9363 -0.0491  0.7871
    9SAPS   C35 1155   4.683   2.399   7.335  0.8264  0.4108 -0.5057
    9SAPS   H5X 1156   4.766   2.339   7.293  1.3930  0.2589  0.7757
    9SAPS   H5Y 1157   4.587   2.353   7.302  1.0962 -0.4042 -0.1874
    9SAPS   C36 1158   4.677   2.368   7.490  0.2586  0.0678 -0.0861
    9SAPS   H6X 1159   4.583   2.404   7.538 -1.4416 -2.7803 -1.0426
    9SAPS   H6Y 1160   4.767   2.410   7.540 -1.3355  1.7263  1.5884
    9SAPS   C37 1161   4.671   2.219   7.515  0.2108 -0.6789  0.4585
    9SAPS   H7X 1162   4.761   2.170   7.473 -0.7136 -0.1144 -2.4238
    9SAPS   H7Y 1163   4.585   2.180   7.457 -0.8561 -0.7902  2.0593
    9SAPS   C38 1164   4.632   2.181   7.659 -0.1265  0.4805  0.4634
    9SAPS   H8X 1165   4.546   2.232   7.706  0.5741  0.4923  1.7983
    9SAPS   H8Y 1166   4.717   2.221   7.719 -0.6039  1.4699  0.4897
    9SAPS   C39 1167   4.628   2.030   7.676 -0.5866 -0.2045  0.0048
    9SAPS   H9X 1168   4.731   1.996   7.653 -0.2920 -0.0674  1.1080
    9SAPS   H9Y 1169   4.574   1.982   7.591  0.1161 -0.1103 -0.5001
    9SAPS  C310 1170   4.564   1.971   7.804 -0.6173 -0.9024 -0.8519
    9SAPS  H10X 1171   4.453   1.976   7.801 -0.6892  0.9723  1.5972
    9SAPS  H10Y 1172   4.610   2.029   7.887 -1.1368 -0.8440 -0.6026
    9SAPS  C311 1173   4.605   1.828   7.822  0.3256  0.1671  0.1905
    9SAPS  H11X 1174   4.716   1.829   7.826  0.3014  1.3807  2.0885
    9SAPS  H11Y 1175   4.563   1.768   7.739 -0.6526 -0.4032  1.0692
    9SAPS  C312 1176   4.551   1.759   7.948 -0.8223 -0.8058 -0.4427
    9SAPS  H12X 1177   4.562   1.649   7.949 -0.7680 -0.7981  0.3867
    9SAPS  H12Y 1178   4.444   1.787   7.962 -0.5369 -0.1145  0.4727
    9SAPS  C313 1179   4.613   1.810   8.081 -0.0664  0.0400  0.5102
    9SAPS  H13X 1180   4.598   1.919   8.086  2.1221  0.3642  1.5105
    9SAPS  H13Y 1181   4.722   1.826   8.066 -0.5132  2.3562 -0.5777
    9SAPS  C314 1182   4.568   1.733   8.205  0.0101  0.7278  0.2944
    9SAPS  H14X 1183   4.598   1.626   8.218 -0.3357  0.6160  0.1921
    9SAPS  H14Y 1184   4.457   1.724   8.207 -0.1302  0.7379 -2.7790
    9SAPS  C315 1185   4.600   1.808   8.338 -0.1376  0.0680  0.8134
    9SAPS  H15X 1186   4.564   1.911   8.317 -0.0743 -0.0684  0.0053
    9SAPS  H15Y 1187   4.710   1.823   8.346 -0.1620  0.7736 -0.0140
    9SAPS  C316 1188   4.545   1.752   8.462  0.3645  0.8050 -0.9512
    9SAPS  H16X 1189   4.558   1.642   8.469 -1.6048  0.5906 -0.0510
    9SAPS  H16Y 1190   4.434   1.756   8.452  0.3022  0.7595 -0.3003
    9SAPS  C317 1191   4.574   1.827   8.603  0.2886 -0.1718  0.3962
    9SAPS  H17X 1192   4.685   1.820   8.611  0.4022 -0.9351 -1.4140
    9SAPS  H17Y 1193   4.527   1.774   8.688  0.8145 -0.1630  0.6986
    9SAPS  C318 1194   4.555   1.975   8.596 -0.1674 -0.2856  0.2481
    9SAPS  H18X 1195   4.617   2.032   8.524 -1.4451  2.3921  1.1370
    9SAPS  H18Y 1196   4.573   2.014   8.699 -0.2265 -0.2379  0.2398
    9SAPS  H18Z 1197   4.448   1.996   8.573 -0.4822  1.9134  3.0678
   10SAPS     N 1198   3.974   1.571   6.399 -0.0424 -0.0379 -0.2996
   10SAPS   HN1 1199   3.959   1.472   6.369  0.6263 -0.0003 -0.7745
   10SAPS   HN2 1200   4.064   1.573   6.451 -0.9582  2.7833  1.4109
   10SAPS   HN3 1201   3.903   1.584   6.474  0.4722 -0.8234  0.3520
   10SAPS   C12 1202   3.965   1.669   6.283 -0.1104 -0.7593 -0.0352
   10SAPS  H12A 1203   4.057   1.650   6.230  0.6441  0.8487  0.6306
   10SAPS   C13 1204   3.854   1.654   6.184 -0.8338 -0.2056  1.2802
   10SAPS  O13A 1205   3.798   1.539   6.187 -0.3724 -0.1759  0.6204
   10SAPS  O13B 1206   3.846   1.730   6.083 -0.1054 -0.3294  0.1748
   10SAPS   C11 1207   3.975   1.810   6.351  0.6354 -0.7154  0.2521
   10SAPS  H11A 1208   3.978   1.884   6.267  0.0591 -1.1158 -0.1307
   10SAPS  H11B 1209   4.066   1.811   6.413 -0.2009  0.8002  1.5359
   10SAPS     P 1210   3.851   1.973   6.517 -0.3221  0.5678  0.2220
   10SAPS   O13 1211   3.875   2.094   6.439  0.6131 -0.0342 -0.1673
   10SAPS   O14 1212   3.723   1.961   6.588  0.3352  0.1731 -0.2863
   10SAPS   O12 1213   3.859   1.839   6.433 -0.1516 -0.6384  0.5205
   10SAPS   O11 1214   3.973   1.969   6.625 -0.3863  0.2392 -0.0862
   10SAPS    C1 1215   3.992   1.844   6.695 -0.1292  0.3645  0.2907
   10SAPS    HA 1216   3.910   1.770   6.688  1.7793 -1.8090 -0.3840
   10SAPS    HB 1217   4.060   1.786   6.629 -0.8608 -2.3010  1.7255
   10SAPS    C2 1218   4.053   1.859   6.839  0.1990  0.5314  0.2482
   10SAPS    HS 1219   4.098   1.759   6.860 -1.2944  0.0920  1.5343
   10SAPS   O21 1220   3.952   1.894   6.933  0.3505  0.2918  0.3276
   10SAPS   C21 1221   3.896   1.789   7.002  0.5442  0.7284 -0.3462
   10SAPS   O22 1222   3.915   1.672   6.982  0.0605 -0.0473 -0.5993
   10SAPS   C22 1223   3.841   1.838   7.131  0.6127 -0.3870  0.8562
   10SAPS   H2R 1224   3.920   1.891   7.189  0.3932  0.8893  0.0334
   10SAPS   H2S 1225   3.756   1.904   7.102 -0.1512 -1.7625 -0.1618
   10SAPS    C3 1226   4.168   1.960   6.851  0.6199 -0.2264  0.1225
   10SAPS    HX 1227   4.111   2.055   6.851 -0.5801 -0.8614  2.4352
   10SAPS    HY 1228   4.247   1.946   6.774  0.0268  2.3072 -1.0265
   10SAPS   O31 1229   4.234   1.924   6.969  0.2098  0.1154 -0.2128
   10SAPS   C31 1230   4.338   1.990   7.001 -0.5016 -0.0921 -0.0736
   10SAPS   O32 1231   4.403   2.065   6.927 -0.2628 -0.6297 -0.6731
   10SAPS   C32 1232   4.374   1.952   7.138  0.2457  0.3637 -0.0426
   10SAPS   H2X 1233   4.355   1.844   7.154 -2.4898  0.9328  1.0510
   10SAPS   H2Y 1234   4.300   1.993   7.209  0.7570 -0.0715  0.7644
   10SAPS   C23 1235   3.769   1.729   7.209 -0.2240 -0.4893  0.5305
   10SAPS   H3R 1236   3.843   1.647   7.224  2.0694  1.4143  0.1875
   10SAPS   H3S 1237   3.685   1.676   7.158 -1.3660  2.3094 -0.6638
   10SAPS   C24 1238   3.721   1.789   7.343 -0.1607  0.0395 -0.8935
   10SAPS   H4R 1239   3.671   1.886   7.324  1.5137  1.2658  0.6420
   10SAPS   H4S 1240   3.815   1.816   7.395  0.9143  1.0245 -3.1788
   10SAPS   C25 1241   3.634   1.699   7.421  0.3279  0.6763 -0.7079
   10SAPS   H5R 1242   3.526   1.702   7.396 -0.2145 -0.3019  1.2992
   10SAPS   C26 1243   3.665   1.627   7.530  0.2025 -0.0315 -0.1381
   10SAPS   H6R 1244   3.577   1.602   7.591 -1.4683  1.9004 -1.5848
   10SAPS   C27 1245   3.797   1.627   7.600 -0.2635  0.5455 -0.0129
   10SAPS   H7R 1246   3.879   1.645   7.527  1.4996 -1.6963  1.2664
   10SAPS   H7S 1247   3.803   1.524   7.641 -0.4181 -0.5210 -2.4987
   10SAPS   C28 1248   3.826   1.731   7.705  0.0563 -0.7646 -0.1545
   10SAPS   H8R 1249   3.839   1.834   7.668 -0.1887  0.0587  1.9202
   10SAPS   C29 1250   3.851   1.719   7.837 -0.1170 -0.2735  0.0032
   10SAPS   H9R 1251   3.880   1.812   7.888  1.4992 -1.1310  0.6924
   10SAPS  C210 1252   3.848   1.588   7.910  0.0412  0.5123 -0.5228
   10SAPS  H10R 1253   3.907   1.588   8.004 -1.2753  1.8251  0.3449
   10SAPS  H10S 1254   3.888   1.497   7.859 -1.3401 -1.1916  1.3014
   10SAPS  C211 1255   3.705   1.550   7.945 -0.1304 -0.5087  0.0681
   10SAPS  H11R 1256   3.635   1.549   7.860 -0.7818  1.1502  0.5393
   10SAPS  C212 1257   3.642   1.511   8.056  0.3023  0.0213 -0.2242
   10SAPS  H12R 1258   3.536   1.488   8.041  0.6820 -1.1589 -1.3253
   10SAPS  C213 1259   3.713   1.496   8.192  0.6922  0.5828 -0.0290
   10SAPS  H13R 1260   3.786   1.580   8.195  0.0770  1.1306 -0.3166
   10SAPS  H13S 1261   3.768   1.399   8.190  0.0877  0.2494 -2.2334
   10SAPS  C214 1262   3.608   1.514   8.303 -0.9032 -0.1093 -0.4974
   10SAPS  H14R 1263   3.504   1.537   8.278 -1.3383 -0.0139  1.2770
   10SAPS  C215 1264   3.646   1.497   8.431 -0.2154 -1.2691  0.5772
   10SAPS  H15R 1265   3.573   1.504   8.513 -0.4179  3.3476  0.2829
   10SAPS  C216 1266   3.788   1.468   8.481  0.3275  0.1191 -0.3655
   10SAPS  H16R 1267   3.851   1.411   8.410  0.8889  0.7477 -0.3766
   10SAPS  H16S 1268   3.774   1.399   8.566 -1.2748  1.5946  0.6439
   10SAPS  C217 1269   3.861   1.590   8.542  0.0832  0.6407 -0.8445
   10SAPS  H17R 1270   3.866   1.668   8.463  0.9931  1.1859 -0.2758
   10SAPS  H17S 1271   3.966   1.558   8.557 -0.3350 -1.2163 -1.6537
   10SAPS  C218 1272   3.789   1.642   8.669 -0.2890 -0.3868  0.1511
   10SAPS  H18R 1273   3.684   1.651   8.632 -1.1999 -1.4318  2.2880
   10SAPS  H18S 1274   3.840   1.733   8.705  0.3299 -0.3855 -0.6913
   10SAPS  C219 1275   3.776   1.547   8.792 -0.3837 -0.0922 -0.1246
   10SAPS  H19R 1276   3.724   1.452   8.768 -2.3901  0.2746  2.3660
   10SAPS  H19S 1277   3.709   1.598   8.864  1.4099  1.2223  0.6978
   10SAPS  C220 1278   3.912   1.510   8.864  0.2720 -0.0632 -0.0361
   10SAPS  H20R 1279   3.900   1.485   8.972 -1.4304  1.4097  0.1544
   10SAPS  H20S 1280   3.976   1.601   8.866 -0.5078  0.5163  2.5910
   10SAPS  H20T 1281   3.973   1.429   8.820  2.0108  0.4040  1.3812
   10SAPS   C33 1282   4.509   2.003   7.190 -0.1318  0.4834 -0.0398
   10SAPS   H3X 1283   4.504   2.114   7.191  0.3951  0.5970 -2.6883
   10SAPS   H3Y 1284   4.575   1.974   7.106  0.0264  0.6753  0.0203
   10SAPS   C34 1285   4.563   1.931   7.320  0.4062 -0.0976  0.5363
   10SAPS   H4X 1286   4.478   1.959   7.387  0.5935 -0.7821  1.0684
   10SAPS   H4Y 1287   4.663   1.971   7.349  0.8482 -0.3593 -0.6116
   10SAPS   C35 1288   4.573   1.777   7.306 -0.3443  0.0793  0.8193
   10SAPS   H5X 1289   4.675   1.759   7.265 -1.3159 -0.4130 -1.5018
   10SAPS   H5Y 1290   4.496   1.735   7.238 -0.8117  1.1334  0.6713
   10SAPS   C36 1291   4.570   1.708   7.442  0.2719  0.2511 -0.3120
   10SAPS   H6X 1292   4.468   1.718   7.485  1.4751  1.1871  2.5554
   10SAPS   H6Y 1293   4.640   1.758   7.513 -0.0147  0.6497 -0.3085
   10SAPS   C37 1294   4.624   1.564   7.433 -0.6528  0.3153  0.2425
   10SAPS   H7X 1295   4.725   1.570   7.387 -1.1366  2.8413 -0.6403
   10SAPS   H7Y 1296   4.563   1.516   7.353 -0.2281 -0.2687  0.2602
   10SAPS   C38 1297   4.616   1.487   7.556  0.0458 -0.2021  0.0375
   10SAPS   H8X 1298   4.529   1.418   7.546 -0.4041  0.5364 -1.3579
   10SAPS   H8Y 1299   4.573   1.554   7.633 -0.1822 -0.7151  0.3620
   10SAPS   C39 1300   4.750   1.418   7.595  0.0864 -0.2198  0.6664
   10SAPS   H9X 1301   4.822   1.499   7.619 -1.8313  1.5105  0.7389
   10SAPS   H9Y 1302   4.794   1.356   7.513  1.0256  1.9131 -0.5321
   10SAPS  C310 1303   4.734   1.332   7.719  0.1077 -0.1750 -0.2649
   10SAPS  H10X 1304   4.808   1.249   7.705  0.5907  0.1921  0.0473
   10SAPS  H10Y 1305   4.637   1.278   7.726  0.6155 -1.3487 -1.6786
   10SAPS  C311 1306   4.773   1.397   7.865 -0.6582 -0.3877  0.2230
   10SAPS  H11X 1307   4.705   1.481   7.892  0.5524  0.3467  1.1015
   10SAPS  H11Y 1308   4.871   1.446   7.846  0.6789 -3.3547 -1.0582
   10SAPS  C312 1309   4.788   1.295   7.980 -0.3940 -0.9892  0.1743
   10SAPS  H12X 1310   4.792   1.345   8.079  0.6902 -0.8521  0.0758
   10SAPS  H12Y 1311   4.882   1.238   7.967  0.0534 -0.5394  1.3005
   10SAPS  C313 1312   4.669   1.202   7.986  0.1095  0.3988  0.7184
   10SAPS  H13X 1313   4.647   1.164   7.884 -3.2635  1.2370  1.0106
   10SAPS  H13Y 1314   4.583   1.265   8.016 -0.2370  1.0065 -1.4246
   10SAPS  C314 1315   4.689   1.073   8.071 -0.0671 -0.5714 -0.7186
   10SAPS  H14X 1316   4.708   1.108   8.175 -1.4292 -1.6581 -0.0695
   10SAPS  H14Y 1317   4.781   1.021   8.037  1.2464  1.8939 -1.1538
   10SAPS  C315 1318   4.560   0.996   8.062 -0.4834 -0.1660  0.6645
   10SAPS  H15X 1319   4.534   0.977   7.956 -0.0855  0.6394  0.4094
   10SAPS  H15Y 1320   4.469   1.056   8.084 -0.6514  0.2660 -1.0620
   10SAPS  C316 1321   4.579   0.865   8.132  0.2423  0.1279  0.3907
   10SAPS  H16X 1322   4.671   0.817   8.092  1.1296  0.1738  2.2850
   10SAPS  H16Y 1323   4.485   0.808   8.114  0.8853 -0.4814 -1.1787
   10SAPS  C317 1324   4.582   0.884   8.292 -0.3207  0.5131 -0.3829
   10SAPS  H17X 1325   4.671   0.947   8.314 -0.0973  0.1397 -0.1999
   10SAPS  H17Y 1326   4.606   0.784   8.334 -0.1217  0.0112 -1.6222
   10SAPS  C318 1327   4.456   0.951   8.348 -0.6119  0.7374  0.4854
   10SAPS  H18X 1328   4.364   0.903   8.310  0.5584 -1.9278  0.7500
   10SAPS  H18Y 1329   4.461   1.062   8.350 -0.3367  0.7651 -1.0390
   10SAPS  H18Z 1330   4.451   0.923   8.456 -1.7639 -1.5702 -0.1042
   11SAPS     N 1331   6.110   5.555   5.864 -0.2318 -0.4469 -0.3093
   11SAPS   HN1 1332   6.209   5.587   5.858  0.0415 -1.2267 -0.0104
   11SAPS   HN2 1333   6.111   5.496   5.950 -1.6425 -0.8693 -0.5727
   11SAPS   HN3 1334   6.101   5.508   5.772  1.6904  1.8196 -1.7771
   11SAPS   C12 1335   6.001   5.659   5.880  0.0221  0.1466 -0.0363
   11SAPS  H12A 1336   5.999   5.717   5.789  1.9073 -1.7064 -1.3461
   11SAPS   C13 1337   5.859   5.593   5.891  0.0952 -0.1756 -0.1807
   11SAPS  O13A 1338   5.841   5.468   5.899 -0.0287 -0.5030 -0.7221
   11SAPS  O13B 1339   5.763   5.674   5.888  0.3234 -0.8609  0.3729
   11SAPS   C11 1340   6.021   5.746   6.003 -0.6760  0.3094 -0.6277
   11SAPS  H11A 1341   6.007   5.675   6.088 -2.7536 -1.2302 -2.1540
   11SAPS  H11B 1342   5.946   5.827   6.009  0.7439  1.7157 -1.1559
   11SAPS     P 1343   6.180   5.944   5.935 -0.5004 -0.0162 -0.1828
   11SAPS   O13 1344   6.317   5.977   5.978 -0.7310  0.4865 -0.2570
   11SAPS   O14 1345   6.147   5.940   5.792  0.1521  0.5773  0.0367
   11SAPS   O12 1346   6.149   5.798   6.003 -0.2638  0.0040  0.3065
   11SAPS   O11 1347   6.078   6.043   6.005 -0.3328 -0.3674 -0.2957
   11SAPS    C1 1348   6.103   6.135   6.111  0.5830 -0.1478  0.4042
   11SAPS    HA 1349   6.176   6.210   6.074  1.1596 -1.8094 -2.0526
   11SAPS    HB 1350   6.008   6.189   6.133  2.6440  3.1141  2.1022
   11SAPS    C2 1351   6.166   6.067   6.235 -0.3250 -0.6842 -0.5299
   11SAPS    HS 1352   6.264   6.025   6.206  0.5293  0.0536  1.1637
   11SAPS   O21 1353   6.075   5.967   6.287 -1.0168 -0.3974  0.0943
   11SAPS   C21 1354   6.128   5.861   6.344 -0.7508 -0.2788 -0.0876
   11SAPS   O22 1355   6.248   5.834   6.348 -0.4939  0.7509 -0.1951
   11SAPS   C22 1356   6.012   5.782   6.406 -0.9721  0.1703 -0.3492
   11SAPS   H2R 1357   5.945   5.860   6.448 -0.4758  0.4216 -0.0117
   11SAPS   H2S 1358   5.956   5.728   6.327 -0.9211 -2.9997  1.6064
   11SAPS    C3 1359   6.197   6.180   6.340 -0.8237  0.3463  0.9947
   11SAPS    HX 1360   6.270   6.254   6.301 -0.2364  0.3357  2.0225
   11SAPS    HY 1361   6.259   6.130   6.417  1.3683 -0.5190 -1.2078
   11SAPS   O31 1362   6.079   6.248   6.386 -0.2666 -0.0062 -0.4253
   11SAPS   C31 1363   6.104   6.314   6.497  1.1707 -0.4189 -0.3972
   11SAPS   O32 1364   6.207   6.318   6.560 -0.1318 -0.0879  0.2290
   11SAPS   C32 1365   5.970   6.371   6.536  0.2941  0.0867  0.0108
   11SAPS   H2X 1366   5.888   6.299   6.512  0.2803  0.1009  0.0166
   11SAPS   H2Y 1367   5.953   6.464   6.478  0.5201 -1.3138 -2.4376
   11SAPS   C23 1368   6.037   5.675   6.512 -0.1282  0.2764 -0.0419
   11SAPS   H3R 1369   6.095   5.591   6.470 -1.8781  0.2104 -2.5300
   11SAPS   H3S 1370   5.937   5.635   6.542  0.0579  1.0815  1.7889
   11SAPS   C24 1371   6.119   5.722   6.636  0.6326 -0.2604 -0.3543
   11SAPS   H4R 1372   6.218   5.765   6.608 -0.1950 -0.4047 -3.8995
   11SAPS   H4S 1373   6.147   5.633   6.696 -0.8075  0.5846  1.6974
   11SAPS   C25 1374   6.036   5.820   6.708  0.1708  0.0650  0.2266
   11SAPS   H5R 1375   5.927   5.807   6.713 -0.2150  2.5164 -0.1558
   11SAPS   C26 1376   6.085   5.935   6.759  0.1656  0.0456  0.2308
   11SAPS   H6R 1377   6.018   5.989   6.827 -0.5154 -0.7123  0.1803
   11SAPS   C27 1378   6.232   5.978   6.745 -0.1206 -0.2712  0.1784
   11SAPS   H7R 1379   6.238   6.003   6.637  3.2550 -0.4946  0.2101
   11SAPS   H7S 1380   6.296   5.889   6.761 -0.1735 -0.3878 -0.2436
   11SAPS   C28 1381   6.282   6.100   6.819 -0.5968  0.7909 -0.1614
   11SAPS   H8R 1382   6.325   6.169   6.745 -2.1984 -0.2249 -2.1524
   11SAPS   C29 1383   6.277   6.128   6.953  0.9587  0.1267  0.6095
   11SAPS   H9R 1384   6.313   6.230   6.976 -0.3020  1.1601 -1.7302
   11SAPS  C210 1385   6.209   6.043   7.053 -0.8346 -0.0593 -0.4672
   11SAPS  H10R 1386   6.132   5.972   7.016  1.1240 -2.7241  0.3596
   11SAPS  H10S 1387   6.159   6.105   7.131  1.8203  0.5012  0.8747
   11SAPS  C211 1388   6.316   5.958   7.117  0.9843 -0.1910 -0.4483
   11SAPS  H11R 1389   6.388   5.921   7.042  0.7352 -0.0535 -0.7550
   11SAPS  C212 1390   6.336   5.915   7.248  0.8819 -0.2470 -0.6706
   11SAPS  H12R 1391   6.418   5.844   7.267  2.8970  0.8060 -4.3575
   11SAPS  C213 1392   6.236   5.948   7.359  0.3349 -0.5858 -0.1908
   11SAPS  H13R 1393   6.154   6.012   7.320 -0.0962  0.6555  2.4995
   11SAPS  H13S 1394   6.292   6.009   7.433  0.2091 -0.2515 -0.3690
   11SAPS  C214 1395   6.188   5.815   7.407  0.3529  0.6815  0.0463
   11SAPS  H14R 1396   6.100   5.769   7.359  0.5251  0.5988 -0.1902
   11SAPS  C215 1397   6.250   5.736   7.500 -0.8424  0.4798  0.1084
   11SAPS  H15R 1398   6.204   5.639   7.524 -0.8008 -0.0147 -1.7025
   11SAPS  C216 1399   6.375   5.759   7.572 -0.3159  0.5092  0.0896
   11SAPS  H16R 1400   6.434   5.846   7.537 -3.0967  2.2129 -0.6471
   11SAPS  H16S 1401   6.435   5.669   7.546  1.4064  1.8928 -0.9378
   11SAPS  C217 1402   6.351   5.775   7.722  0.2325  0.0851  0.5065
   11SAPS  H17R 1403   6.282   5.856   7.752  1.2561  1.4544 -0.6966
   11SAPS  H17S 1404   6.454   5.802   7.753  1.3631 -1.3147 -1.6722
   11SAPS  C218 1405   6.319   5.651   7.799 -0.4061 -0.4612  0.4328
   11SAPS  H18R 1406   6.388   5.582   7.746  0.1534  1.7200 -1.8583
   11SAPS  H18S 1407   6.213   5.622   7.779 -0.2353 -3.5076  3.1347
   11SAPS  C219 1408   6.350   5.659   7.952  0.5148 -0.1642  0.4617
   11SAPS  H19R 1409   6.321   5.756   7.998 -3.3665  2.1909 -5.6197
   11SAPS  H19S 1410   6.460   5.646   7.960  0.4825 -1.9077 -1.1896
   11SAPS  C220 1411   6.271   5.554   8.025 -0.5368 -0.0821 -0.2970
   11SAPS  H20R 1412   6.251   5.470   7.955  0.7642 -0.4841 -0.2091
   11SAPS  H20S 1413   6.177   5.592   8.070 -0.4351 -0.0686 -0.0939
   11SAPS  H20T 1414   6.325   5.508   8.110 -0.6384  1.2546  0.5253
   11SAPS   C33 1415   5.954   6.395   6.699 -0.0550  0.9447  0.0582
   11SAPS   H3X 1416   6.016   6.317   6.747 -0.3308 -0.8309 -2.2619
   11SAPS   H3Y 1417   5.850   6.390   6.735 -0.9847  3.7344 -1.8419
   11SAPS   C34 1418   6.008   6.532   6.724 -0.4999  0.0911  0.5182
   11SAPS   H4X 1419   5.944   6.607   6.672 -0.1556 -0.2312 -0.4050
   11SAPS   H4Y 1420   6.110   6.533   6.680 -0.7082  0.7876  0.0279
   11SAPS   C35 1421   6.028   6.573   6.864  0.1806 -0.4327 -0.2035
   11SAPS   H5X 1422   5.934   6.584   6.921  1.7891  1.1882  2.3852
   11SAPS   H5Y 1423   6.076   6.673   6.860  0.7614 -0.7337 -2.0387
   11SAPS   C36 1424   6.109   6.465   6.945 -0.0230  0.0417 -0.0079
   11SAPS   H6X 1425   6.199   6.429   6.890 -0.4017  0.7863 -1.1456
   11SAPS   H6Y 1426   6.060   6.365   6.947  1.2643 -0.6118  1.0777
   11SAPS   C37 1427   6.124   6.513   7.091  0.2175 -0.6382 -1.1315
   11SAPS   H7X 1428   6.023   6.512   7.137  0.5085 -2.7528 -0.4298
   11SAPS   H7Y 1429   6.178   6.610   7.094  0.8624 -0.9908 -1.1729
   11SAPS   C38 1430   6.207   6.416   7.171  0.0079  0.4864 -1.0085
   11SAPS   H8X 1431   6.315   6.413   7.143  0.4654  2.3697  0.4022
   11SAPS   H8Y 1432   6.163   6.314   7.161 -0.2646  0.5885 -0.8392
   11SAPS   C39 1433   6.203   6.436   7.320  0.4894  0.8092 -0.5450
   11SAPS   H9X 1434   6.100   6.450   7.358 -0.0106 -4.2079  0.6404
   11SAPS   H9Y 1435   6.253   6.531   7.348  1.2296  0.5242 -0.8553
   11SAPS  C310 1436   6.263   6.323   7.409 -0.2262 -0.1197  0.4582
   11SAPS  H10X 1437   6.373   6.334   7.402 -0.1981 -0.0217  1.0273
   11SAPS  H10Y 1438   6.233   6.222   7.374 -0.7737  0.2358 -0.1334
   11SAPS  C311 1439   6.233   6.340   7.561  0.5241 -0.6258  0.5275
   11SAPS  H11X 1440   6.124   6.353   7.576  0.7453  1.7104  0.4986
   11SAPS  H11Y 1441   6.287   6.431   7.596  1.2328 -0.5389 -0.7175
   11SAPS  C312 1442   6.269   6.218   7.649 -0.6456 -0.4749  0.6999
   11SAPS  H12X 1443   6.375   6.191   7.628  0.6977  3.6984  1.1369
   11SAPS  H12Y 1444   6.207   6.132   7.619 -1.9128  1.0621 -1.3111
   11SAPS  C313 1445   6.273   6.253   7.799 -0.0456  0.0955  0.7930
   11SAPS  H13X 1446   6.175   6.294   7.831 -0.0998 -0.1683  0.9738
   11SAPS  H13Y 1447   6.352   6.330   7.810 -1.6539  1.6855  1.7409
   11SAPS  C314 1448   6.303   6.134   7.888  0.4013  0.2258 -0.2774
   11SAPS  H14X 1449   6.405   6.101   7.861 -0.0238 -0.9477 -0.4934
   11SAPS  H14Y 1450   6.240   6.044   7.875 -0.3404  0.8406 -1.1223
   11SAPS  C315 1451   6.277   6.172   8.042  0.5715  0.4079  0.3300
   11SAPS  H15X 1452   6.177   6.218   8.057 -0.9982 -0.8628 -4.3478
   11SAPS  H15Y 1453   6.347   6.254   8.069  0.2495  1.1520 -0.9582
   11SAPS  C316 1454   6.311   6.053   8.131  0.1487  0.0960 -0.8351
   11SAPS  H16X 1455   6.422   6.045   8.133  0.4399  3.1377 -0.7620
   11SAPS  H16Y 1456   6.262   5.961   8.091 -1.3642  0.4063  0.2643
   11SAPS  C317 1457   6.270   6.064   8.279  0.2546  0.9522  0.1253
   11SAPS  H17X 1458   6.159   6.072   8.279 -0.2398 -3.1747 -1.6869
   11SAPS  H17Y 1459   6.314   6.161   8.312  0.9136  1.0051 -0.8590
   11SAPS  C318 1460   6.323   5.944   8.365 -0.5188 -0.4756 -0.4191
   11SAPS  H18X 1461   6.433   5.937   8.352 -0.3325 -0.2123  0.9361
   11SAPS  H18Y 1462   6.283   5.849   8.325  1.2561 -1.2062 -0.5245
   11SAPS  H18Z 1463   6.297   5.976   8.468  0.0029  2.9990 -1.2197
   12SAPS     N 1464   5.107   6.707   5.979 -0.1127  0.1340  0.4027
   12SAPS   HN1 1465   5.074   6.659   5.893 -2.5472 -0.8340  1.7881
   12SAPS   HN2 1466   5.132   6.629   6.042  1.2867  0.4602  0.2998
   12SAPS   HN3 1467   5.034   6.769   6.018 -0.6623 -0.7901  0.8706
   12SAPS   C12 1468   5.225   6.799   5.944  0.0666  0.1151 -0.2410
   12SAPS  H12A 1469   5.320   6.747   5.948 -0.9401 -2.2057 -3.3301
   12SAPS   C13 1470   5.213   6.844   5.798  0.9617  0.4599 -0.5794
   12SAPS  O13A 1471   5.316   6.907   5.760 -0.3499  0.5286 -0.0353
   12SAPS  O13B 1472   5.124   6.801   5.716 -0.3708 -0.8352  0.3641
   12SAPS   C11 1473   5.228   6.920   6.040 -0.6329  0.3239 -0.2379
   12SAPS  H11A 1474   5.290   6.998   5.991 -2.1102  1.8817  0.2674
   12SAPS  H11B 1475   5.280   6.883   6.130 -1.7998 -1.7042 -0.3298
   12SAPS     P 1476   5.071   7.019   6.217  0.1909  0.2556  0.4749
   12SAPS   O13 1477   5.162   7.135   6.235  0.1019  0.1596  0.2047
   12SAPS   O14 1478   4.926   7.037   6.233  0.0201 -0.7838 -0.0100
   12SAPS   O12 1479   5.100   6.973   6.068  0.2430  0.2847 -0.1691
   12SAPS   O11 1480   5.108   6.890   6.306  0.4553 -0.2885  0.1959
   12SAPS    C1 1481   5.006   6.826   6.385  0.0196 -0.8681  0.1291
   12SAPS    HA 1482   4.903   6.825   6.344  0.1230 -1.7109 -0.1416
   12SAPS    HB 1483   5.033   6.718   6.395  0.4913 -0.7877 -0.2706
   12SAPS    C2 1484   4.996   6.876   6.533 -0.5626 -0.1350  0.3887
   12SAPS    HS 1485   4.981   6.986   6.523  3.8055  0.6393  0.3917
   12SAPS   O21 1486   5.120   6.848   6.602  0.1003 -0.1786  0.6399
   12SAPS   C21 1487   5.164   6.939   6.676  0.6483  0.2741  0.7552
   12SAPS   O22 1488   5.105   7.047   6.700 -0.1664 -0.5000 -0.6361
   12SAPS   C22 1489   5.305   6.898   6.723  0.0783  0.8641 -0.0316
   12SAPS   H2R 1490   5.306   6.797   6.768  0.2317  0.5366 -0.7576
   12SAPS   H2S 1491   5.364   6.893   6.629 -0.6691 -0.1100 -0.4616
   12SAPS    C3 1492   4.891   6.801   6.611  0.3625 -0.4750  0.2114
   12SAPS    HX 1493   4.793   6.840   6.577  0.2027  0.0757  1.2542
   12SAPS    HY 1494   4.900   6.831   6.718  0.3018 -0.6982  0.2808
   12SAPS   O31 1495   4.896   6.665   6.588  0.2395 -0.1394 -0.2277
   12SAPS   C31 1496   4.837   6.583   6.679 -0.3890 -0.6141  0.0161
   12SAPS   O32 1497   4.795   6.617   6.788  0.6839  0.2998  0.2463
   12SAPS   C32 1498   4.829   6.439   6.621  0.5176  0.8821  0.0926
   12SAPS   H2X 1499   4.798   6.456   6.516 -0.2860  0.6042  0.2756
   12SAPS   H2Y 1500   4.743   6.393   6.674  0.9796  0.8798  0.8605
   12SAPS   C23 1501   5.372   6.997   6.827 -0.4140 -0.0994 -0.1464
   12SAPS   H3R 1502   5.335   7.100   6.808 -0.0136 -0.0873 -0.9099
   12SAPS   H3S 1503   5.482   7.003   6.811 -0.5138  0.9740 -0.4908
   12SAPS   C24 1504   5.357   6.966   6.975 -0.2241  0.3459 -0.2215
   12SAPS   H4R 1505   5.416   7.035   7.039  0.4677 -0.9348  0.5681
   12SAPS   H4S 1506   5.396   6.863   6.990 -3.3420 -1.3756 -2.6542
   12SAPS   C25 1507   5.210   6.983   7.006 -0.5726 -0.2463 -0.8266
   12SAPS   H5R 1508   5.162   7.067   6.953  0.0989  0.7776  0.1501
   12SAPS   C26 1509   5.129   6.901   7.070 -0.0200  0.9099  0.5830
   12SAPS   H6R 1510   5.027   6.933   7.096 -1.6091 -0.6675 -3.0239
   12SAPS   C27 1511   5.165   6.763   7.124 -0.0952 -0.2419  0.1369
   12SAPS   H7R 1512   5.118   6.749   7.224 -1.5410 -0.3221 -0.5193
   12SAPS   H7S 1513   5.270   6.738   7.147 -0.4367 -0.6728  1.3031
   12SAPS   C28 1514   5.114   6.656   7.030  0.5019 -0.3199  0.3581
   12SAPS   H8R 1515   5.131   6.670   6.923  1.4047 -1.4615  0.3324
   12SAPS   C29 1516   5.041   6.555   7.071  0.4199 -0.4267  0.4548
   12SAPS   H9R 1517   5.009   6.485   6.993  1.2904  0.0483 -0.3455
   12SAPS  C210 1518   4.981   6.524   7.209 -0.6211 -0.9136  0.3044
   12SAPS  H10R 1519   4.883   6.473   7.202  0.5281 -3.1264 -0.7648
   12SAPS  H10S 1520   4.961   6.613   7.273  2.4330 -0.0241  0.1739
   12SAPS  C211 1521   5.070   6.430   7.283 -0.2238  0.4982  0.1259
   12SAPS  H11R 1522   5.104   6.344   7.223 -0.8057  0.9835 -0.9368
   12SAPS  C212 1523   5.121   6.449   7.409  0.0391 -0.0352 -0.4690
   12SAPS  H12R 1524   5.170   6.365   7.460  1.6812  1.2148  0.0849
   12SAPS  C213 1525   5.094   6.564   7.507 -0.0058  0.5182  0.4960
   12SAPS  H13R 1526   5.090   6.656   7.445  0.4609  0.2532  0.0629
   12SAPS  H13S 1527   5.176   6.569   7.581 -0.4028 -1.9345  1.1922
   12SAPS  C214 1528   4.960   6.552   7.577 -0.4065  0.6438 -0.4546
   12SAPS  H14R 1529   4.891   6.480   7.531 -1.5775  1.0007  0.6730
   12SAPS  C215 1530   4.928   6.610   7.695  0.6375 -0.2146 -0.4651
   12SAPS  H15R 1531   4.822   6.602   7.721  0.4564  2.4094 -0.1135
   12SAPS  C216 1532   5.012   6.704   7.773  0.4332  0.4507 -0.1417
   12SAPS  H16R 1533   4.950   6.793   7.796  0.1714  0.1230  0.4641
   12SAPS  H16S 1534   5.104   6.737   7.721 -0.8359  2.4847 -1.2135
   12SAPS  C217 1535   5.056   6.657   7.926  0.8973  0.1354  0.3824
   12SAPS  H17R 1536   5.096   6.554   7.917  0.8954  0.0402  1.3396
   12SAPS  H17S 1537   4.961   6.638   7.981  0.2306 -1.9489 -1.3661
   12SAPS  C218 1538   5.157   6.761   7.977  0.0608  0.1652  0.2738
   12SAPS  H18R 1539   5.125   6.865   7.955  0.2211  0.0239 -0.6658
   12SAPS  H18S 1540   5.253   6.752   7.921 -0.2213 -0.3795 -0.1327
   12SAPS  C219 1541   5.182   6.755   8.127 -0.1610 -0.5902  0.0689
   12SAPS  H19R 1542   5.242   6.663   8.147  2.2926  0.8127 -0.4158
   12SAPS  H19S 1543   5.089   6.763   8.187 -2.7605  0.7218 -3.7734
   12SAPS  C220 1544   5.269   6.881   8.166  0.5096 -0.0574  0.0280
   12SAPS  H20R 1545   5.268   6.887   8.277  0.3247  0.8226 -0.0142
   12SAPS  H20S 1546   5.217   6.969   8.123 -0.7619 -0.1710  1.2645
   12SAPS  H20T 1547   5.375   6.866   8.136  0.2126 -1.0945 -0.5585
   12SAPS   C33 1548   4.951   6.347   6.645  0.5788 -0.3292 -0.6474
   12SAPS   H3X 1549   4.939   6.246   6.600  2.7269 -0.8787 -0.0915
   12SAPS   H3Y 1550   4.974   6.331   6.753 -1.6092  0.3034 -0.0334
   12SAPS   C34 1551   5.080   6.398   6.578 -0.5489  0.1154 -0.2786
   12SAPS   H4X 1552   5.141   6.471   6.635  0.2484 -0.8960  0.1939
   12SAPS   H4Y 1553   5.061   6.445   6.480 -0.7216  0.8524  0.0967
   12SAPS   C35 1554   5.188   6.290   6.562 -0.0702  1.0312 -0.1095
   12SAPS   H5X 1555   5.278   6.332   6.511  0.7926 -1.4423 -0.7661
   12SAPS   H5Y 1556   5.143   6.232   6.479 -2.6592  1.8799  0.6103
   12SAPS   C36 1557   5.231   6.191   6.669  0.6885 -0.1610 -0.1379
   12SAPS   H6X 1558   5.311   6.123   6.632  1.4056  1.2215 -1.1975
   12SAPS   H6Y 1559   5.140   6.132   6.693  0.3333 -0.4472 -2.0814
   12SAPS   C37 1560   5.284   6.259   6.791 -0.3634  0.0226 -0.6936
   12SAPS   H7X 1561   5.210   6.335   6.823  0.5211  0.3425  0.7147
   12SAPS   H7Y 1562   5.383   6.310   6.797 -0.3460  0.0479 -1.1678
   12SAPS   C38 1563   5.285   6.164   6.909 -0.2122  0.3259 -0.1031
   12SAPS   H8X 1564   5.357   6.089   6.868  1.2797  1.6293  0.0545
   12SAPS   H8Y 1565   5.190   6.108   6.925 -0.2404  0.2269 -0.6110
   12SAPS   C39 1566   5.325   6.234   7.033 -0.2766  0.2769 -0.8549
   12SAPS   H9X 1567   5.252   6.311   7.067  1.2752  0.7810  1.6551
   12SAPS   H9Y 1568   5.417   6.291   7.009 -0.6483  1.4845  0.4160
   12SAPS  C310 1569   5.350   6.141   7.152  0.2834 -0.1378  0.5527
   12SAPS  H10X 1570   5.434   6.079   7.116  0.0210 -1.5582  2.2595
   12SAPS  H10Y 1571   5.252   6.089   7.158 -1.6875  3.3770  2.1540
   12SAPS  C311 1572   5.397   6.216   7.275  0.5497  0.3322 -0.0744
   12SAPS  H11X 1573   5.330   6.299   7.307  2.7485  1.7457  1.1478
   12SAPS  H11Y 1574   5.494   6.260   7.243  0.1295  0.9263 -0.5567
   12SAPS  C312 1575   5.421   6.120   7.393  0.0160 -0.2990 -0.7390
   12SAPS  H12X 1576   5.486   6.041   7.350 -0.1448 -1.8747  1.6687
   12SAPS  H12Y 1577   5.327   6.072   7.429 -1.1122  2.2932  0.0421
   12SAPS  C313 1578   5.500   6.185   7.510  0.3077 -0.4957  0.6316
   12SAPS  H13X 1579   5.584   6.240   7.462 -0.6533 -0.2045 -0.7452
   12SAPS  H13Y 1580   5.544   6.105   7.574  1.0511  0.0261  0.7930
   12SAPS  C314 1581   5.406   6.266   7.600  0.4208  0.2800  0.5991
   12SAPS  H14X 1582   5.323   6.199   7.632 -0.0061  1.0831  1.2045
   12SAPS  H14Y 1583   5.372   6.352   7.539  0.6741 -0.4810 -0.6513
   12SAPS  C315 1584   5.472   6.327   7.724  0.3528  0.0955 -0.0346
   12SAPS  H15X 1585   5.556   6.387   7.683  1.6348  1.1114  3.6554
   12SAPS  H15Y 1586   5.517   6.258   7.798 -1.2340 -0.1081  0.7760
   12SAPS  C316 1587   5.376   6.413   7.807 -0.4392 -0.0771  0.9456
   12SAPS  H16X 1588   5.302   6.338   7.844 -0.3122 -0.3214  0.7067
   12SAPS  H16Y 1589   5.338   6.495   7.743  2.4425  1.0053  0.4614
   12SAPS  C317 1590   5.447   6.465   7.924  0.2802 -0.2819 -0.4514
   12SAPS  H17X 1591   5.484   6.375   7.977  0.7532 -0.1669 -0.5852
   12SAPS  H17Y 1592   5.377   6.510   7.997 -0.0774 -0.5765 -0.6086
   12SAPS  C318 1593   5.560   6.568   7.910  0.5790 -0.8259 -0.6348
   12SAPS  H18X 1594   5.643   6.539   7.842  0.2663  1.3306 -2.0406
   12SAPS  H18Y 1595   5.600   6.582   8.012 -1.4359 -1.5616  0.3153
   12SAPS  H18Z 1596   5.509   6.657   7.869  1.3777  0.3314  0.8062
   13SAPS     N 1597   5.878   5.261   5.732 -0.2927  0.5836  0.0838
   13SAPS   HN1 1598   5.832   5.176   5.770  2.1878  0.2680  2.7268
   13SAPS   HN2 1599   5.900   5.323   5.813  0.9903 -0.1018  0.2789
   13SAPS   HN3 1600   5.826   5.303   5.652  0.2423 -1.5938 -1.4745
   13SAPS   C12 1601   6.005   5.211   5.680 -0.2399 -0.0692  0.4220
   13SAPS  H12A 1602   5.980   5.162   5.587 -0.8559  3.0777 -1.2337
   13SAPS   C13 1603   6.098   5.320   5.631 -0.4993  0.7890 -0.1387
   13SAPS  O13A 1604   6.072   5.440   5.633 -0.1517 -0.3265 -0.6312
   13SAPS  O13B 1605   6.189   5.280   5.553  0.3808 -0.1784  0.2131
   13SAPS   C11 1606   6.083   5.130   5.781 -0.3747 -0.0377 -0.4111
   13SAPS  H11A 1607   6.147   5.063   5.720 -1.5726  1.3361 -3.3707
   13SAPS  H11B 1608   6.015   5.066   5.842  1.2581 -2.9284 -1.4090
   13SAPS     P 1609   6.171   5.235   6.023  0.0462 -0.6344 -0.1777
   13SAPS   O13 1610   6.280   5.156   6.077 -0.2736  0.0354  0.2863
   13SAPS   O14 1611   6.168   5.379   6.040  0.0080  0.5875 -0.2383
   13SAPS   O12 1612   6.167   5.214   5.866  0.1948 -0.2002  0.4877
   13SAPS   O11 1613   6.030   5.178   6.066 -0.2350 -0.4026  0.2377
   13SAPS    C1 1614   6.007   5.053   6.129  0.8393  0.3216  0.2409
   13SAPS    HA 1615   5.981   4.983   6.047 -1.2019  2.0248 -0.6494
   13SAPS    HB 1616   6.096   5.023   6.188  2.3430  0.3338 -1.9104
   13SAPS    C2 1617   5.885   5.076   6.229  0.4458 -0.0653  0.0278
   13SAPS    HS 1618   5.789   5.102   6.179  0.0075 -1.4444  0.1242
   13SAPS   O21 1619   5.916   5.177   6.329  0.0173  0.6856 -0.1457
   13SAPS   C21 1620   5.817   5.226   6.403  0.2799  0.1366 -0.6361
   13SAPS   O22 1621   5.702   5.183   6.402 -0.2748 -0.5113  0.4834
   13SAPS   C22 1622   5.866   5.338   6.498  0.4974  0.2183 -0.3551
   13SAPS   H2R 1623   5.951   5.393   6.451  2.5478 -0.7348  1.9679
   13SAPS   H2S 1624   5.776   5.401   6.514 -0.1452 -1.2454  2.4727
   13SAPS    C3 1625   5.840   4.945   6.303  0.1758  0.7819 -0.7010
   13SAPS    HX 1626   5.857   4.871   6.222  0.1790  0.2157 -0.1894
   13SAPS    HY 1627   5.736   4.958   6.340  1.4174  3.4387  2.3351
   13SAPS   O31 1628   5.928   4.925   6.413  0.6291  0.2428 -0.3512
   13SAPS   C31 1629   5.939   4.795   6.454 -0.1794 -0.3337  0.2026
   13SAPS   O32 1630   5.882   4.705   6.389  0.0256 -0.2882 -0.0946
   13SAPS   C32 1631   6.028   4.789   6.585  0.8073  0.7171 -0.1959
   13SAPS   H2X 1632   5.994   4.843   6.676  1.5040 -2.1633  1.9039
   13SAPS   H2Y 1633   6.134   4.817   6.568  0.9133  0.0199 -0.6758
   13SAPS   C23 1634   5.910   5.286   6.638 -0.7524  0.2125 -0.1345
   13SAPS   H3R 1635   5.921   5.376   6.703 -0.6427 -0.0706  0.2436
   13SAPS   H3S 1636   6.013   5.243   6.638  0.6722  3.0486  3.7496
   13SAPS   C24 1637   5.816   5.183   6.710 -0.2975  0.0037  0.1868
   13SAPS   H4R 1638   5.868   5.164   6.806  1.5669  1.6072 -0.4312
   13SAPS   H4S 1639   5.817   5.081   6.665  1.6460 -0.5769  1.4080
   13SAPS   C25 1640   5.673   5.229   6.707  0.5173  0.0169  0.2812
   13SAPS   H5R 1641   5.612   5.211   6.617 -0.5161  2.2267  0.4859
   13SAPS   C26 1642   5.612   5.268   6.818 -0.0738 -0.0215  0.9878
   13SAPS   H6R 1643   5.510   5.308   6.808 -1.3016 -2.7538  1.3651
   13SAPS   C27 1644   5.657   5.276   6.958 -0.0012 -0.3814  0.5560
   13SAPS   H7R 1645   5.732   5.196   6.972  0.6886  0.1160 -0.2487
   13SAPS   H7S 1646   5.563   5.241   7.007 -0.1788  0.0750  0.5540
   13SAPS   C28 1647   5.698   5.410   7.020 -0.4417  0.0263 -0.1593
   13SAPS   H8R 1648   5.650   5.504   6.987  5.1810  3.1061 -0.7086
   13SAPS   C29 1649   5.780   5.427   7.124  0.2013 -0.0993 -0.0953
   13SAPS   H9R 1650   5.804   5.527   7.162  1.0167 -0.1067 -0.5592
   13SAPS  C210 1651   5.846   5.323   7.211  0.4372  0.2833  0.5081
   13SAPS  H10R 1652   5.906   5.259   7.143  0.3032 -0.5792  1.1859
   13SAPS  H10S 1653   5.754   5.268   7.241  0.9685 -0.7594  0.2596
   13SAPS  C211 1654   5.916   5.368   7.326 -0.9018 -0.0313 -0.3259
   13SAPS  H11R 1655   5.905   5.476   7.345 -0.1315 -0.0069  0.0229
   13SAPS  C212 1656   6.008   5.296   7.390  0.0713  0.4088  0.1162
   13SAPS  H12R 1657   6.063   5.332   7.478  1.0235  0.3654 -0.4472
   13SAPS  C213 1658   6.029   5.146   7.358 -0.7565  0.3077 -0.1606
   13SAPS  H13R 1659   5.942   5.115   7.297 -0.6030  0.3908 -0.4267
   13SAPS  H13S 1660   6.022   5.083   7.449  2.8744  0.6218  0.4959
   13SAPS  C214 1661   6.167   5.117   7.304 -0.0004 -0.2553  0.1010
   13SAPS  H14R 1662   6.173   5.098   7.195 -1.5483  1.2712 -0.3132
   13SAPS  C215 1663   6.275   5.112   7.379 -0.4209  0.1358  0.0392
   13SAPS  H15R 1664   6.373   5.080   7.338  1.1559  3.6322  0.7396
   13SAPS  C216 1665   6.290   5.131   7.527 -0.0999  0.5023 -0.1188
   13SAPS  H16R 1666   6.203   5.180   7.574  1.7297  4.0190  0.0088
   13SAPS  H16S 1667   6.378   5.197   7.546  0.8114 -0.7849  0.2190
   13SAPS  C217 1668   6.327   5.006   7.605 -0.2785 -0.6780 -0.9041
   13SAPS  H17R 1669   6.240   4.939   7.589 -3.2506  3.0319 -1.9036
   13SAPS  H17S 1670   6.335   5.041   7.710 -3.6458 -1.3503 -0.3066
   13SAPS  C218 1671   6.463   4.940   7.579  0.4117  0.1929 -0.3131
   13SAPS  H18R 1672   6.552   5.007   7.569 -0.1732  0.9618 -0.4403
   13SAPS  H18S 1673   6.456   4.901   7.475 -0.9999  0.7745 -0.4531
   13SAPS  C219 1674   6.515   4.838   7.682 -0.9335 -0.2526  0.4543
   13SAPS  H19R 1675   6.561   4.882   7.773  1.8565 -0.2455 -0.8646
   13SAPS  H19S 1676   6.593   4.772   7.638 -2.1491 -1.8490  0.5753
   13SAPS  C220 1677   6.400   4.744   7.720  0.0126 -0.8462  0.7112
   13SAPS  H20R 1678   6.313   4.786   7.774 -1.1045 -0.9353 -0.9589
   13SAPS  H20S 1679   6.442   4.664   7.785  0.8018  0.2131  1.5456
   13SAPS  H20T 1680   6.358   4.705   7.625 -1.7728  2.7967 -0.1761
   13SAPS   C33 1681   6.024   4.641   6.632  0.0631  0.0001  0.0039
   13SAPS   H3X 1682   6.101   4.586   6.573 -0.0874 -0.5174  0.2813
   13SAPS   H3Y 1683   5.920   4.603   6.622 -0.6653  1.5337  1.3221
   13SAPS   C34 1684   6.072   4.631   6.777 -0.0546 -0.0900 -0.7609
   13SAPS   H4X 1685   6.046   4.719   6.839 -0.4279 -2.2639  2.3749
   13SAPS   H4Y 1686   6.183   4.636   6.790 -0.2518  2.4069  0.6723
   13SAPS   C35 1687   6.037   4.496   6.851 -0.1988 -0.0272 -0.7359
   13SAPS   H5X 1688   6.091   4.505   6.948  1.1456  1.0477 -1.5370
   13SAPS   H5Y 1689   6.072   4.407   6.795 -0.2928  1.1758 -2.8107
   13SAPS   C36 1690   5.890   4.475   6.885  0.2404 -0.3881  0.0258
   13SAPS   H6X 1691   5.843   4.423   6.799 -0.7303 -3.1173  2.0700
   13SAPS   H6Y 1692   5.857   4.580   6.900  1.9810  0.2269 -0.1247
   13SAPS   C37 1693   5.873   4.410   7.017  0.5021 -0.5173  0.7002
   13SAPS   H7X 1694   5.769   4.386   7.049  1.2055 -1.2473  2.6124
   13SAPS   H7Y 1695   5.911   4.472   7.101  0.4128  1.8527 -0.9105
   13SAPS   C38 1696   5.926   4.266   7.014 -0.7191 -0.2002  0.0479
   13SAPS   H8X 1697   6.037   4.274   7.010 -0.6395 -0.8837  0.5858
   13SAPS   H8Y 1698   5.899   4.218   6.918 -1.7608 -0.3135  0.3860
   13SAPS   C39 1699   5.868   4.170   7.120 -0.3686 -0.9228 -0.0456
   13SAPS   H9X 1700   5.924   4.076   7.098  1.8243  0.4675 -0.8035
   13SAPS   H9Y 1701   5.759   4.174   7.100 -0.7761  1.4301  2.1191
   13SAPS  C310 1702   5.893   4.221   7.262 -0.7492  0.1075  0.5243
   13SAPS  H10X 1703   5.856   4.323   7.287 -1.2726 -0.1126  0.6531
   13SAPS  H10Y 1704   6.004   4.210   7.266 -0.6268  0.3227 -1.2371
   13SAPS  C311 1705   5.840   4.124   7.360  0.4527 -0.8932  0.0373
   13SAPS  H11X 1706   5.896   4.028   7.360 -0.1434 -1.2624 -1.4940
   13SAPS  H11Y 1707   5.735   4.104   7.331  0.7535  0.1375 -1.8767
   13SAPS  C312 1708   5.828   4.187   7.503  0.2838 -0.4902 -0.7241
   13SAPS  H12X 1709   5.732   4.243   7.502  0.5552  0.0028 -2.5859
   13SAPS  H12Y 1710   5.920   4.247   7.519  1.1849 -1.6613 -1.3285
   13SAPS  C313 1711   5.822   4.086   7.616 -0.0279 -0.3004 -0.1098
   13SAPS  H13X 1712   5.911   4.022   7.632 -0.5044 -0.4196  2.5520
   13SAPS  H13Y 1713   5.734   4.019   7.602  0.1916 -0.5649 -0.2264
   13SAPS  C314 1714   5.808   4.147   7.756 -0.5386  0.9248  0.2286
   13SAPS  H14X 1715   5.721   4.215   7.758 -0.5634  1.0791 -2.2955
   13SAPS  H14Y 1716   5.900   4.207   7.775  1.0491 -1.1443 -0.3972
   13SAPS  C315 1717   5.793   4.027   7.854  0.2439 -0.3587 -0.3437
   13SAPS  H15X 1718   5.899   4.002   7.876  0.1697  1.8061  3.3047
   13SAPS  H15Y 1719   5.738   3.943   7.806  3.5486 -1.2481 -2.9478
   13SAPS  C316 1720   5.734   4.074   7.987  0.2966  0.2859  0.1712
   13SAPS  H16X 1721   5.634   4.116   7.964 -0.2215 -1.2493 -0.4946
   13SAPS  H16Y 1722   5.782   4.164   8.031 -0.3252  1.0617 -0.7094
   13SAPS  C317 1723   5.714   3.961   8.087 -0.5117 -0.1814  0.2366
   13SAPS  H17X 1724   5.672   3.877   8.027 -1.0182 -0.3182  0.7706
   13SAPS  H17Y 1725   5.643   3.996   8.164 -0.5143 -1.4942  0.8529
   13SAPS  C318 1726   5.852   3.918   8.148  0.6728 -0.4091 -0.0127
   13SAPS  H18X 1727   5.837   3.820   8.197 -1.0657 -0.1985 -0.0688
   13SAPS  H18Y 1728   5.893   4.010   8.194  1.1187 -0.7101  0.1979
   13SAPS  H18Z 1729   5.930   3.898   8.071  0.3374  0.9061 -0.7244
   14SAPS     N 1730   5.752   0.110   5.948 -0.0305  0.3067  0.4416
   14SAPS   HN1 1731   5.696   0.119   6.036 -0.3880 -0.9460  0.3647
   14SAPS   HN2 1732   5.691   0.045   5.894  1.8238 -1.8915  0.8028
   14SAPS   HN3 1733   5.844   0.072   5.979  0.3086  0.5034 -0.3213
   14SAPS   C12 1734   5.773   0.240   5.888 -0.0567  0.2291  0.4411
   14SAPS  H12A 1735   5.810   0.224   5.788  1.0850 -0.4222  0.9442
   14SAPS   C13 1736   5.641   0.325   5.880 -0.4712 -0.3490 -0.0930
   14SAPS  O13A 1737   5.535   0.285   5.929 -0.1637 -1.0845 -0.0943
   14SAPS  O13B 1738   5.662   0.447   5.849  0.0714 -0.0286  0.4008
   14SAPS   C11 1739   5.885   0.316   5.970 -0.3552  0.4726  0.5814
   14SAPS  H11A 1740   5.849   0.320   6.075  1.6658 -2.1063  1.5126
   14SAPS  H11B 1741   5.895   0.421   5.934 -2.0470  0.0792 -1.2388
   14SAPS     P 1742   6.139   0.297   6.047  0.2716  0.1046 -0.0463
   14SAPS   O13 1743   6.205   0.178   6.111  0.0698 -0.5343 -0.4071
   14SAPS   O14 1744   6.214   0.371   5.935 -0.3419 -0.4799  0.1638
   14SAPS   O12 1745   6.011   0.248   5.977  0.1703 -0.0970 -0.2228
   14SAPS   O11 1746   6.099   0.402   6.147 -0.3079  0.2468  0.1034
   14SAPS    C1 1747   6.174   0.419   6.270 -1.1178 -0.0606  0.2020
   14SAPS    HA 1748   6.279   0.386   6.251 -1.0091 -0.5498  1.5667
   14SAPS    HB 1749   6.166   0.523   6.308 -0.8054  0.3641 -0.8444
   14SAPS    C2 1750   6.123   0.320   6.380  0.5740 -0.0161  0.2920
   14SAPS    HS 1751   6.155   0.216   6.357 -0.1619 -0.6090  1.8177
   14SAPS   O21 1752   5.980   0.322   6.407 -0.0855  0.3286  0.2694
   14SAPS   C21 1753   5.931   0.210   6.466  0.1087  0.0903 -0.2644
   14SAPS   O22 1754   5.997   0.109   6.471  0.0209  0.4017 -0.5272
   14SAPS   C22 1755   5.787   0.226   6.518 -0.3552  0.1379 -0.1756
   14SAPS   H2R 1756   5.758   0.333   6.526 -3.4693 -0.5822 -0.8658
   14SAPS   H2S 1757   5.728   0.186   6.433 -0.7128  0.4837 -0.0916
   14SAPS    C3 1758   6.211   0.360   6.507  0.4701 -0.2085  0.3560
   14SAPS    HX 1759   6.152   0.446   6.543 -0.5398 -1.3740  1.5480
   14SAPS    HY 1760   6.315   0.394   6.487  0.5331 -0.1677  0.7467
   14SAPS   O31 1761   6.210   0.257   6.611  0.2558 -0.4110 -0.4200
   14SAPS   C31 1762   6.262   0.136   6.580  0.0772  0.1795  0.5696
   14SAPS   O32 1763   6.309   0.102   6.474  0.1861 -0.0135  0.2276
   14SAPS   C32 1764   6.264   0.052   6.711  1.0260  0.1169  0.0189
   14SAPS   H2X 1765   6.233  -0.052   6.685 -0.3973 -0.1975  2.6452
   14SAPS   H2Y 1766   6.175   0.086   6.769 -0.0646 -0.5529 -1.2072
   14SAPS   C23 1767   5.760   0.140   6.648 -0.0765 -0.0948 -0.1226
   14SAPS   H3R 1768   5.835   0.059   6.662 -0.0182  0.3653  3.0671
   14SAPS   H3S 1769   5.664   0.085   6.636 -0.6185  0.7059  0.4779
   14SAPS   C24 1770   5.767   0.235   6.777  0.5307 -0.2021 -0.4321
   14SAPS   H4R 1771   5.743   0.170   6.863 -1.1627  0.2849 -0.5155
   14SAPS   H4S 1772   5.684   0.308   6.770 -0.4636 -1.2859 -0.3603
   14SAPS   C25 1773   5.900   0.309   6.781 -0.3244  0.1041  0.6149
   14SAPS   H5R 1774   5.913   0.397   6.717 -4.0622 -0.0593 -0.6444
   14SAPS   C26 1775   6.000   0.268   6.865 -0.2686  0.3232  0.5526
   14SAPS   H6R 1776   6.101   0.310   6.855  0.2882 -0.7045  1.5587
   14SAPS   C27 1777   5.996   0.148   6.959  0.3413  0.1261  0.1487
   14SAPS   H7R 1778   6.096   0.114   6.992  0.2115 -2.3480 -1.7165
   14SAPS   H7S 1779   5.956   0.060   6.904  1.6697  0.0761 -0.7739
   14SAPS   C28 1780   5.907   0.172   7.085 -0.0738  0.0759 -0.4961
   14SAPS   H8R 1781   5.820   0.232   7.054 -0.5341 -0.5202 -0.3666
   14SAPS   C29 1782   5.924   0.125   7.209  0.4108  0.6274  0.1328
   14SAPS   H9R 1783   5.843   0.155   7.276 -0.9735 -1.5561 -0.4477
   14SAPS  C210 1784   6.025   0.027   7.256 -0.3502  0.6426  0.2114
   14SAPS  H10R 1785   6.090   0.066   7.338 -0.9557  1.1566  0.4485
   14SAPS  H10S 1786   6.088  -0.002   7.170 -0.4026  0.2828  0.2947
   14SAPS  C211 1787   5.965  -0.107   7.300 -0.6512  0.1720  0.1642
   14SAPS  H11R 1788   5.915  -0.171   7.226 -1.3779  0.9485 -0.0314
   14SAPS  C212 1789   5.956  -0.157   7.427 -0.1766 -0.5070  1.1470
   14SAPS  H12R 1790   5.892  -0.243   7.452 -0.8760  0.3481  2.4969
   14SAPS  C213 1791   6.005  -0.086   7.552  0.0490 -0.5942  0.1251
   14SAPS  H13R 1792   6.019   0.022   7.528 -2.0245  0.2452  2.2959
   14SAPS  H13S 1793   6.102  -0.134   7.575  0.6129  0.6768  0.4921
   14SAPS  C214 1794   5.905  -0.094   7.667  0.0835  0.0275  0.3335
   14SAPS  H14R 1795   5.801  -0.108   7.636  0.3070 -0.9826 -0.0155
   14SAPS  C215 1796   5.932  -0.096   7.797 -0.0650 -1.1851  0.0576
   14SAPS  H15R 1797   5.843  -0.115   7.859 -0.3077  3.0703  1.3922
   14SAPS  C216 1798   6.068  -0.080   7.865 -0.2195  0.3533 -0.3032
   14SAPS  H16R 1799   6.061  -0.014   7.955  1.2254  1.9218 -1.2727
   14SAPS  H16S 1800   6.142  -0.028   7.801  0.9364 -0.0067  0.6931
   14SAPS  C217 1801   6.129  -0.218   7.902  0.3947 -0.3609  1.1766
   14SAPS  H17R 1802   6.203  -0.248   7.824 -1.3632  1.5777 -1.4037
   14SAPS  H17S 1803   6.058  -0.302   7.906 -0.5806  0.1755 -1.9097
   14SAPS  C218 1804   6.196  -0.216   8.044  0.1202  1.1240 -0.0308
   14SAPS  H18R 1805   6.270  -0.134   8.052  0.8197  0.4581  0.5331
   14SAPS  H18S 1806   6.250  -0.312   8.059 -2.5089 -0.3008  0.9057
   14SAPS  C219 1807   6.088  -0.208   8.158 -0.4913 -0.2112  0.2088
   14SAPS  H19R 1808   6.000  -0.268   8.129 -0.3363 -0.5506  0.4460
   14SAPS  H19S 1809   6.041  -0.107   8.158  0.0604  0.0909 -1.4098
   14SAPS  C220 1810   6.138  -0.260   8.287 -0.5260 -0.0565  0.5552
   14SAPS  H20R 1811   6.053  -0.279   8.357 -1.1451 -0.0609 -0.1839
   14SAPS  H20S 1812   6.218  -0.193   8.324 -1.6379  0.6738  1.7294
   14SAPS  H20T 1813   6.206  -0.348   8.280 -0.2539  0.2076 -0.1581
   14SAPS   C33 1814   6.395   0.058   6.795 -0.3449  0.2859  0.9587
   14SAPS   H3X 1815   6.480   0.049   6.723 -0.4703 -0.9729  0.9431
   14SAPS   H3Y 1816   6.394  -0.026   6.867 -0.1534 -2.6704 -2.2443
   14SAPS   C34 1817   6.414   0.185   6.869  0.0257  0.1930  0.2074
   14SAPS   H4X 1818   6.312   0.221   6.895 -0.1687 -0.9378  1.0937
   14SAPS   H4Y 1819   6.453   0.255   6.792 -1.7061 -0.5921 -1.4414
   14SAPS   C35 1820   6.501   0.165   6.990  0.5448  0.7660  0.2390
   14SAPS   H5X 1821   6.546   0.263   7.018  2.6989  0.2693 -1.2562
   14SAPS   H5Y 1822   6.592   0.106   6.967  0.3891  0.8656 -0.6389
   14SAPS   C36 1823   6.432   0.100   7.113 -0.1410  0.2422 -0.8880
   14SAPS   H6X 1824   6.403  -0.005   7.093 -2.5430  0.1508  2.2470
   14SAPS   H6Y 1825   6.337   0.154   7.138 -0.4711 -0.4605 -0.6123
   14SAPS   C37 1826   6.528   0.093   7.234 -0.0940 -0.3465 -0.3118
   14SAPS   H7X 1827   6.576   0.188   7.266  1.7578 -0.9721 -1.1227
   14SAPS   H7Y 1828   6.609   0.020   7.215 -0.9191 -1.2144 -0.5676
   14SAPS   C38 1829   6.456   0.063   7.360 -0.6609 -0.4982 -1.5010
   14SAPS   H8X 1830   6.394  -0.029   7.346 -4.2823  1.1476  1.8122
   14SAPS   H8Y 1831   6.384   0.142   7.391 -0.1528  0.2337 -2.1310
   14SAPS   C39 1832   6.558   0.037   7.477 -0.0843 -0.3660 -0.0345
   14SAPS   H9X 1833   6.607   0.128   7.518 -0.8752  0.3675 -0.6788
   14SAPS   H9Y 1834   6.637  -0.030   7.438 -0.5359 -0.6676 -0.4388
   14SAPS  C310 1835   6.488  -0.019   7.603  0.1974  0.2109  0.6950
   14SAPS  H10X 1836   6.438  -0.113   7.569  2.4240 -0.4939 -0.8457
   14SAPS  H10Y 1837   6.406   0.050   7.631  1.0543  0.8179  1.7678
   14SAPS  C311 1838   6.591  -0.030   7.723 -0.7001 -0.2371 -0.0615
   14SAPS  H11X 1839   6.664   0.054   7.716  2.6421 -2.7945  1.4237
   14SAPS  H11Y 1840   6.657  -0.118   7.709  0.5159  0.2722  2.0388
   14SAPS  C312 1841   6.535  -0.038   7.865  0.5832 -0.0896 -0.3769
   14SAPS  H12X 1842   6.458  -0.118   7.852 -0.1044  0.5233 -0.1487
   14SAPS  H12Y 1843   6.479   0.052   7.898  0.5296  0.2181 -1.2889
   14SAPS  C313 1844   6.635  -0.082   7.969  0.1366 -0.2116  0.1139
   14SAPS  H13X 1845   6.604  -0.045   8.069  0.1754  0.1416 -0.0070
   14SAPS  H13Y 1846   6.731  -0.035   7.939  1.5572 -2.2262  1.2633
   14SAPS  C314 1847   6.651  -0.239   7.974  0.2990  0.1251 -0.3568
   14SAPS  H14X 1848   6.691  -0.268   7.874 -1.0070 -1.0751 -0.5513
   14SAPS  H14Y 1849   6.550  -0.279   7.996  0.6470 -0.9681 -0.7097
   14SAPS  C315 1850   6.744  -0.303   8.078 -0.2027 -0.5850  0.5433
   14SAPS  H15X 1851   6.845  -0.259   8.067 -1.4046  1.9206 -1.5041
   14SAPS  H15Y 1852   6.754  -0.410   8.050 -3.0537 -0.9879  0.7935
   14SAPS  C316 1853   6.694  -0.305   8.224 -0.2862  0.5169  0.5170
   14SAPS  H16X 1854   6.692  -0.197   8.252  0.6520  0.7075 -0.0828
   14SAPS  H16Y 1855   6.768  -0.360   8.285 -0.6802 -0.2442  0.3154
   14SAPS  C317 1856   6.564  -0.385   8.245  0.1183 -0.5953  0.0148
   14SAPS  H17X 1857   6.481  -0.358   8.175  0.9218  0.9190 -0.3836
   14SAPS  H17Y 1858   6.529  -0.364   8.348  0.7405  2.4841 -0.3251
   14SAPS  C318 1859   6.585  -0.531   8.230 -0.1885  0.1602  0.3258
   14SAPS  H18X 1860   6.628  -0.560   8.132  2.1580  1.5077  0.8720
   14SAPS  H18Y 1861   6.493  -0.594   8.230 -0.0841 -0.0148 -0.6454
   14SAPS  H18Z 1862   6.652  -0.571   8.309 -1.5467 -0.9801  0.9532
   15SAPS     N 1863   0.771   5.649   5.610 -0.2803  0.7123 -0.0504
   15SAPS   HN1 1864   0.722   5.657   5.702  0.0389 -2.4389  0.5190
   15SAPS   HN2 1865   0.814   5.740   5.584 -1.1140  1.1085 -0.0646
   15SAPS   HN3 1866   0.699   5.626   5.539 -1.4117 -2.3367  1.9242
   15SAPS   C12 1867   0.869   5.540   5.618 -0.9934 -0.1882 -0.3122
   15SAPS  H12A 1868   0.914   5.512   5.524  2.5870 -1.0089  1.4826
   15SAPS   C13 1869   0.991   5.576   5.697 -1.1933  0.2977  0.3708
   15SAPS  O13A 1870   1.009   5.689   5.753  0.2147 -0.2772 -0.3465
   15SAPS  O13B 1871   1.084   5.489   5.698  0.5463 -0.4161 -0.2365
   15SAPS   C11 1872   0.797   5.413   5.676 -0.1398 -0.6490  1.1965
   15SAPS  H11A 1873   0.876   5.336   5.656  1.2665  1.2183 -0.9488
   15SAPS  H11B 1874   0.719   5.386   5.603  0.6703  0.5374 -0.1557
   15SAPS     P 1875   0.644   5.344   5.877  0.1473 -0.1647 -0.1487
   15SAPS   O13 1876   0.520   5.379   5.813 -0.0746 -0.1022 -0.8040
   15SAPS   O14 1877   0.684   5.201   5.855 -0.2401 -0.2454 -0.2115
   15SAPS   O12 1878   0.755   5.433   5.810 -0.5668 -0.1968 -0.0870
   15SAPS   O11 1879   0.651   5.381   6.022 -0.1845 -0.3723 -0.5703
   15SAPS    C1 1880   0.662   5.514   6.078 -0.4107 -0.2701 -0.1092
   15SAPS    HA 1881   0.766   5.527   6.115 -0.4109  0.8649 -0.4918
   15SAPS    HB 1882   0.647   5.605   6.016 -0.2367  0.9837  1.6003
   15SAPS    C2 1883   0.558   5.542   6.196  0.0060  0.1318  0.1435
   15SAPS    HS 1884   0.572   5.641   6.245  0.9867  0.3914 -0.6273
   15SAPS   O21 1885   0.579   5.443   6.292  0.1845  0.4384  0.1206
   15SAPS   C21 1886   0.678   5.472   6.384 -0.3113  0.1123 -0.1029
   15SAPS   O22 1887   0.743   5.576   6.380  0.2074  0.0322 -0.3498
   15SAPS   C22 1888   0.689   5.362   6.492  0.1727  0.3334 -0.0646
   15SAPS   H2R 1889   0.718   5.268   6.440 -3.1951 -1.5636  1.1975
   15SAPS   H2S 1890   0.770   5.391   6.563  1.5873  0.3038 -1.6157
   15SAPS    C3 1891   0.422   5.538   6.142  1.1756 -0.0403 -0.7254
   15SAPS    HX 1892   0.410   5.452   6.073 -0.6903 -1.1823  0.9480
   15SAPS    HY 1893   0.414   5.631   6.080 -1.0480  1.2515  1.3343
   15SAPS   O31 1894   0.328   5.535   6.246  0.0698  0.2281  0.1930
   15SAPS   C31 1895   0.304   5.659   6.302 -0.4427  0.5172 -0.0017
   15SAPS   O32 1896   0.334   5.770   6.259 -0.4341  0.2313 -0.2134
   15SAPS   C32 1897   0.264   5.631   6.451  0.0782 -0.0491  0.1787
   15SAPS   H2X 1898   0.327   5.548   6.489  0.3655 -0.1457 -0.4840
   15SAPS   H2Y 1899   0.163   5.586   6.440  0.7252 -1.3436 -0.7643
   15SAPS   C23 1900   0.552   5.337   6.557  0.4168  0.4495 -1.2321
   15SAPS   H3R 1901   0.479   5.305   6.480 -1.0371  4.0330 -1.5219
   15SAPS   H3S 1902   0.511   5.430   6.602 -0.5874 -0.5411 -0.0084
   15SAPS   C24 1903   0.565   5.233   6.674 -0.4639  0.0044 -0.2038
   15SAPS   H4R 1904   0.486   5.240   6.751 -0.1000  0.6122  0.1199
   15SAPS   H4S 1905   0.652   5.246   6.741  0.1232 -1.7193 -0.5642
   15SAPS   C25 1906   0.571   5.087   6.621  0.0661  0.4979  0.3410
   15SAPS   H5R 1907   0.670   5.075   6.575  0.3105  1.6557  0.5404
   15SAPS   C26 1908   0.490   4.978   6.633  1.2971 -0.0606  0.0351
   15SAPS   H6R 1909   0.513   4.885   6.579  0.4966  0.5716 -1.4607
   15SAPS   C27 1910   0.356   4.976   6.706  0.5622  0.1829  0.1580
   15SAPS   H7R 1911   0.354   5.064   6.773 -0.8809  0.4315 -0.1632
   15SAPS   H7S 1912   0.354   4.889   6.775 -2.5027  2.2322  2.9794
   15SAPS   C28 1913   0.238   4.963   6.606  0.1564 -0.3414  0.3041
   15SAPS   H8R 1914   0.259   4.893   6.524  2.8529  1.5041 -0.7103
   15SAPS   C29 1915   0.122   5.032   6.595 -0.0202 -0.3736 -0.5722
   15SAPS   H9R 1916   0.065   5.012   6.503  0.4552  1.2019 -1.2533
   15SAPS  C210 1917   0.082   5.145   6.687  0.0678  0.4009 -0.1862
   15SAPS  H10R 1918   0.122   5.237   6.640 -0.7197 -0.3353 -2.3933
   15SAPS  H10S 1919   0.123   5.133   6.790  0.4593  1.8538 -0.1497
   15SAPS  C211 1920  -0.067   5.155   6.698 -0.3681  0.3655 -0.3235
   15SAPS  H11R 1921  -0.123   5.062   6.678 -0.7916  0.6363 -0.3994
   15SAPS  C212 1922  -0.132   5.272   6.722 -0.0924 -0.5716 -0.0054
   15SAPS  H12R 1923  -0.241   5.267   6.733  0.0102 -2.3808  0.6067
   15SAPS  C213 1924  -0.069   5.413   6.737  0.0690  0.2614 -0.1838
   15SAPS  H13R 1925   0.037   5.406   6.705 -0.3815 -1.1671 -1.5062
   15SAPS  H13S 1926  -0.064   5.445   6.843 -1.0759  0.7439 -0.2561
   15SAPS  C214 1927  -0.151   5.508   6.647 -0.1885  0.9087 -0.2202
   15SAPS  H14R 1928  -0.157   5.491   6.538 -2.5940 -2.3382  0.2510
   15SAPS  C215 1929  -0.248   5.593   6.697 -0.4183  0.3012  0.4397
   15SAPS  H15R 1930  -0.292   5.668   6.629  1.7746  2.6201  1.4041
   15SAPS  C216 1931  -0.290   5.614   6.843 -0.2009  0.3302 -0.1025
   15SAPS  H16R 1932  -0.326   5.714   6.875  0.1472 -0.3382  2.6024
   15SAPS  H16S 1933  -0.198   5.596   6.902  0.8004  4.4663 -0.0691
   15SAPS  C217 1934  -0.406   5.521   6.877 -0.2632 -0.0341  0.2862
   15SAPS  H17R 1935  -0.387   5.414   6.853 -1.1783  0.1371 -1.3803
   15SAPS  H17S 1936  -0.482   5.541   6.799  0.4329 -1.4907 -0.8045
   15SAPS  C218 1937  -0.475   5.535   7.020 -0.7751  0.4482 -0.6484
   15SAPS  H18R 1938  -0.475   5.645   7.033  1.7881  0.5288 -0.7684
   15SAPS  H18S 1939  -0.408   5.472   7.083  0.4955  0.7565 -1.6472
   15SAPS  C219 1940  -0.606   5.459   7.035  0.4090 -0.5529  0.1840
   15SAPS  H19R 1941  -0.624   5.416   7.136 -0.1953 -0.0524  0.2963
   15SAPS  H19S 1942  -0.603   5.377   6.960 -1.6346 -0.3662 -0.1617
   15SAPS  C220 1943  -0.721   5.544   6.994 -0.3762  0.4285 -0.1415
   15SAPS  H20R 1944  -0.818   5.492   7.003 -0.2107  0.0510 -0.4895
   15SAPS  H20S 1945  -0.713   5.575   6.888 -1.5468  1.9028  0.1624
   15SAPS  H20T 1946  -0.734   5.644   7.040 -1.3351  0.4137 -0.3650
   15SAPS   C33 1947   0.274   5.755   6.541 -0.1289  0.3398  0.0382
   15SAPS   H3X 1948   0.207   5.833   6.500 -0.3305  1.3523  2.1729
   15SAPS   H3Y 1949   0.375   5.801   6.543  0.6336 -1.2649  1.2390
   15SAPS   C34 1950   0.251   5.718   6.688 -0.6936 -0.4071  0.0302
   15SAPS   H4X 1951   0.154   5.664   6.682 -3.8407  4.7452 -1.5222
   15SAPS   H4Y 1952   0.252   5.815   6.741  1.5153 -0.4081  0.0543
   15SAPS   C35 1953   0.356   5.640   6.757 -0.1104  0.9068 -0.1215
   15SAPS   H5X 1954   0.456   5.689   6.752 -0.1764  0.9391 -1.3425
   15SAPS   H5Y 1955   0.365   5.542   6.705  0.2964  0.6458  0.4206
   15SAPS   C36 1956   0.329   5.608   6.895 -0.1097 -0.0473 -1.0681
   15SAPS   H6X 1957   0.231   5.558   6.911  1.6793 -3.7638 -0.7722
   15SAPS   H6Y 1958   0.311   5.700   6.955 -0.0685  0.2534 -1.5108
   15SAPS   C37 1959   0.438   5.524   6.959 -0.2824  0.5345 -0.3379
   15SAPS   H7X 1960   0.531   5.583   6.960  0.5055 -0.6604 -0.6332
   15SAPS   H7Y 1961   0.447   5.428   6.903 -3.1572  1.4376 -2.5965
   15SAPS   C38 1962   0.391   5.476   7.104  1.3200 -0.3525  0.3706
   15SAPS   H8X 1963   0.460   5.399   7.145 -0.4196 -1.5410  1.1758
   15SAPS   H8Y 1964   0.295   5.424   7.088 -0.1140  1.5166  2.3221
   15SAPS   C39 1965   0.381   5.599   7.198 -0.3760 -0.0898  0.2576
   15SAPS   H9X 1966   0.311   5.675   7.159  0.9780  2.4945  2.5318
   15SAPS   H9Y 1967   0.486   5.636   7.199  0.5234 -2.4612  0.5563
   15SAPS  C310 1968   0.339   5.566   7.342  0.3738  0.2562 -1.1360
   15SAPS  H10X 1969   0.394   5.475   7.375 -0.0891  0.9152  1.7889
   15SAPS  H10Y 1970   0.233   5.533   7.340 -0.1816  1.7480  0.2728
   15SAPS  C311 1971   0.356   5.672   7.446 -0.4103 -0.0760  0.7563
   15SAPS  H11X 1972   0.302   5.763   7.413 -1.8023 -0.3521  2.1835
   15SAPS  H11Y 1973   0.464   5.698   7.456 -0.1179 -1.9531  3.2385
   15SAPS  C312 1974   0.310   5.631   7.585  0.6467  0.1985  0.2394
   15SAPS  H12X 1975   0.375   5.550   7.624  0.1517 -0.1930  0.2561
   15SAPS  H12Y 1976   0.209   5.588   7.567  0.1330 -0.1805  3.5141
   15SAPS  C313 1977   0.290   5.735   7.697 -0.4790 -0.0393 -0.0025
   15SAPS  H13X 1978   0.208   5.803   7.665  0.1695  1.6569  1.7410
   15SAPS  H13Y 1979   0.385   5.785   7.728 -1.4388  0.7846  1.7664
   15SAPS  C314 1980   0.249   5.691   7.839 -0.3742  0.0094  0.0961
   15SAPS  H14X 1981   0.162   5.622   7.828 -0.4061  0.0611  0.0258
   15SAPS  H14Y 1982   0.210   5.772   7.903  0.0945  0.9965 -0.8443
   15SAPS  C315 1983   0.366   5.624   7.918  0.2982 -0.1927 -0.5602
   15SAPS  H15X 1984   0.459   5.685   7.911  0.9161 -0.8510  1.2398
   15SAPS  H15Y 1985   0.390   5.532   7.861  0.0589 -1.0650  0.6924
   15SAPS  C316 1986   0.341   5.591   8.064 -0.1936 -0.0426 -0.4195
   15SAPS  H16X 1987   0.339   5.687   8.121  2.5229 -0.6592  0.9020
   15SAPS  H16Y 1988   0.429   5.531   8.097 -0.2150 -0.4295 -1.0503
   15SAPS  C317 1989   0.215   5.503   8.067 -0.0553 -0.7496  0.2497
   15SAPS  H17X 1990   0.231   5.413   8.004  0.0941 -0.4714 -0.1144
   15SAPS  H17Y 1991   0.137   5.561   8.012  1.9418  0.2371 -1.7077
   15SAPS  C318 1992   0.173   5.482   8.210 -0.7432 -0.0717  0.1628
   15SAPS  H18X 1993   0.203   5.572   8.268  1.7227 -0.5148 -0.2821
   15SAPS  H18Y 1994   0.244   5.400   8.237 -0.4362  0.3605  0.7057
   15SAPS  H18Z 1995   0.066   5.461   8.230 -0.8337 -1.6273 -1.6961
   16SAPS     N 1996   2.054   1.215   6.513  0.2462  0.8228 -0.3934
   16SAPS   HN1 1997   2.019   1.118   6.499 -3.1254  1.6664  1.2322
   16SAPS   HN2 1998   2.158   1.217   6.512  0.2482  1.3613  0.4228
   16SAPS   HN3 1999   2.008   1.247   6.600 -0.8147  2.8507 -1.6382
   16SAPS   C12 2000   2.004   1.296   6.401  0.0410 -0.0915 -0.6895
   16SAPS  H12A 2001   2.064   1.385   6.406  1.5553 -1.0900 -0.4540
   16SAPS   C13 2002   2.027   1.241   6.258  0.0470 -0.1339 -0.3005
   16SAPS  O13A 2003   2.076   1.123   6.244 -0.7286  0.1548  0.4336
   16SAPS  O13B 2004   1.987   1.301   6.155  0.4081  0.4134 -0.1323
   16SAPS   C11 2005   1.855   1.333   6.423  0.4831  0.1487  0.2965
   16SAPS  H11A 2006   1.799   1.242   6.451  3.1119 -1.3396  1.0919
   16SAPS  H11B 2007   1.806   1.377   6.334 -0.6260 -1.7256 -0.0678
   16SAPS     P 2008   1.842   1.583   6.522 -0.4021 -0.1102 -0.1800
   16SAPS   O13 2009   1.979   1.611   6.482  0.2026 -0.1084 -0.0827
   16SAPS   O14 2010   1.732   1.609   6.429 -0.2734 -0.6817 -0.0951
   16SAPS   O12 2011   1.850   1.424   6.537 -0.2113 -0.2682  0.1657
   16SAPS   O11 2012   1.805   1.636   6.661 -0.4095  0.3025 -0.0180
   16SAPS    C1 2013   1.844   1.582   6.782 -0.9658  0.6409  0.1134
   16SAPS    HA 2014   1.930   1.513   6.771 -1.4180 -0.1961  1.5343
   16SAPS    HB 2015   1.870   1.657   6.860 -1.9684 -0.5558  1.6849
   16SAPS    C2 2016   1.733   1.502   6.857  0.7178 -0.7966 -0.5853
   16SAPS    HS 2017   1.706   1.416   6.791  1.2612 -1.0586 -0.4710
   16SAPS   O21 2018   1.630   1.602   6.882  0.3948  0.7769  0.6393
   16SAPS   C21 2019   1.502   1.549   6.871  0.4436 -0.3340 -0.4410
   16SAPS   O22 2020   1.482   1.426   6.870  0.3747 -0.3364  0.2047
   16SAPS   C22 2021   1.394   1.654   6.885 -0.0785  0.3558  0.8612
   16SAPS   H2R 2022   1.358   1.692   6.787  1.7107  0.4524  0.1974
   16SAPS   H2S 2023   1.319   1.594   6.939 -1.1458 -1.1389 -2.0770
   16SAPS    C3 2024   1.788   1.451   6.984 -0.0479  0.2900 -0.3576
   16SAPS    HX 2025   1.851   1.517   7.046  0.3560 -1.0415  0.7034
   16SAPS    HY 2026   1.858   1.365   6.977  1.5228  1.2333  2.2986
   16SAPS   O31 2027   1.677   1.400   7.070  0.1667 -0.1845 -0.5766
   16SAPS   C31 2028   1.649   1.484   7.168 -0.8101  0.8148 -0.4231
   16SAPS   O32 2029   1.713   1.584   7.205  0.4517 -0.5996  0.1944
   16SAPS   C32 2030   1.530   1.427   7.229  0.3231 -0.9831  0.1219
   16SAPS   H2X 2031   1.549   1.320   7.251  1.0817 -1.0404 -0.7553
   16SAPS   H2Y 2032   1.451   1.439   7.152 -0.8922 -1.7579  1.2089
   16SAPS   C23 2033   1.429   1.782   6.965  0.1517  0.0830 -0.0535
   16SAPS   H3R 2034   1.513   1.831   6.911  0.3131 -0.1193  0.0083
   16SAPS   H3S 2035   1.457   1.756   7.069 -0.2189  0.0164  0.0309
   16SAPS   C24 2036   1.317   1.884   6.967 -0.1039 -0.0494  0.0265
   16SAPS   H4R 2037   1.236   1.820   7.009 -0.6210 -0.3283 -1.3566
   16SAPS   H4S 2038   1.273   1.917   6.871  0.3480  0.4120 -0.0246
   16SAPS   C25 2039   1.341   2.001   7.064 -0.2813  0.4730  1.0384
   16SAPS   H5R 2040   1.427   2.059   7.027 -0.4906  0.0324 -0.1932
   16SAPS   C26 2041   1.312   2.011   7.190  0.0118 -0.1998  0.0776
   16SAPS   H6R 2042   1.363   2.089   7.249  0.6556 -0.8396  0.3753
   16SAPS   C27 2043   1.226   1.922   7.279 -0.8002  0.2601  0.0890
   16SAPS   H7R 2044   1.179   1.838   7.223 -1.4200 -0.3983  1.5397
   16SAPS   H7S 2045   1.143   1.985   7.317  0.4192  2.0915 -0.1848
   16SAPS   C28 2046   1.318   1.861   7.382  0.7021 -0.7596  0.8999
   16SAPS   H8R 2047   1.416   1.832   7.343  1.1148  2.4930 -0.8898
   16SAPS   C29 2048   1.281   1.847   7.511 -0.4073 -0.0223 -0.6053
   16SAPS   H9R 2049   1.363   1.802   7.569 -0.2193  1.9076  0.7109
   16SAPS  C210 2050   1.157   1.892   7.576 -0.1006 -0.8318  0.0300
   16SAPS  H10R 2051   1.142   1.831   7.668  0.0307 -2.4350 -0.9773
   16SAPS  H10S 2052   1.071   1.870   7.509 -0.1693 -1.3062  0.2730
   16SAPS  C211 2053   1.157   2.043   7.614 -0.3302 -0.0508 -0.4200
   16SAPS  H11R 2054   1.211   2.112   7.548 -1.3767  1.8147  0.6071
   16SAPS  C212 2055   1.110   2.099   7.725  0.4012 -0.1317  0.1082
   16SAPS  H12R 2056   1.118   2.208   7.732 -2.4987  0.2214 -0.6868
   16SAPS  C213 2057   1.039   2.042   7.846  0.6240  0.6842 -0.0691
   16SAPS  H13R 2058   0.982   1.951   7.818 -0.4306  1.3840 -0.2403
   16SAPS  H13S 2059   0.956   2.098   7.893 -0.9469 -0.6465 -1.1441
   16SAPS  C214 2060   1.144   2.001   7.951  0.4236  0.3277 -1.1019
   16SAPS  H14R 2061   1.248   1.988   7.917  0.6081  2.4564 -1.4989
   16SAPS  C215 2062   1.128   2.011   8.085 -0.0819  0.1016 -0.4716
   16SAPS  H15R 2063   1.201   1.970   8.157 -1.2457 -1.3016 -0.0370
   16SAPS  C216 2064   1.007   2.057   8.154  0.7469 -0.3082  0.0139
   16SAPS  H16R 2065   0.913   2.038   8.097 -0.5743  1.6472  1.3838
   16SAPS  H16S 2066   1.007   2.168   8.165 -1.4325 -0.3860  1.3964
   16SAPS  C217 2067   0.995   2.009   8.296 -0.1682  0.5278  0.6638
   16SAPS  H17R 2068   1.082   2.046   8.356  0.6766  0.1223 -0.2928
   16SAPS  H17S 2069   0.981   1.900   8.307 -0.7986  0.5088 -0.2493
   16SAPS  C218 2070   0.873   2.083   8.360  0.0639  0.4596 -1.3922
   16SAPS  H18R 2071   0.781   2.028   8.330  1.2218 -2.1907 -0.3922
   16SAPS  H18S 2072   0.859   2.187   8.322 -1.5622  0.6739 -0.2994
   16SAPS  C219 2073   0.884   2.106   8.514  0.6404  0.4339  0.5441
   16SAPS  H19R 2074   0.976   2.167   8.531  0.6101  0.2799  1.2793
   16SAPS  H19S 2075   0.895   2.006   8.560 -1.8000  0.3759  1.1142
   16SAPS  C220 2076   0.751   2.169   8.563 -0.5456  0.0337 -0.2063
   16SAPS  H20R 2077   0.664   2.105   8.538  0.3964 -0.8994 -1.2270
   16SAPS  H20S 2078   0.744   2.268   8.513  1.8433  0.3659 -0.0058
   16SAPS  H20T 2079   0.752   2.178   8.674 -0.0124 -0.5786 -0.1535
   16SAPS   C33 2080   1.478   1.498   7.358 -0.1268 -0.3897 -0.1082
   16SAPS   H3X 2081   1.370   1.472   7.370 -0.9048  2.5748  0.0116
   16SAPS   H3Y 2082   1.487   1.608   7.359  0.4591 -0.4237 -0.7147
   16SAPS   C34 2083   1.544   1.459   7.490 -0.0970 -0.0069 -0.4043
   16SAPS   H4X 2084   1.538   1.350   7.511 -0.2641  0.4303  2.0198
   16SAPS   H4Y 2085   1.503   1.515   7.577 -0.8954 -0.0942 -0.7197
   16SAPS   C35 2086   1.689   1.512   7.504 -0.4956  0.6688  0.5390
   16SAPS   H5X 2087   1.703   1.614   7.463  1.5936  0.0371 -0.4074
   16SAPS   H5Y 2088   1.758   1.441   7.454  0.5072  1.0954  1.3022
   16SAPS   C36 2089   1.741   1.506   7.651 -0.6866 -0.2046  0.6598
   16SAPS   H6X 2090   1.690   1.581   7.715 -1.1770 -2.2324  2.7688
   16SAPS   H6Y 2091   1.851   1.522   7.650 -0.6259 -0.5559  1.2812
   16SAPS   C37 2092   1.724   1.366   7.729  0.0279 -0.8017  0.1718
   16SAPS   H7X 2093   1.774   1.295   7.660  0.8657 -1.4220  1.3847
   16SAPS   H7Y 2094   1.618   1.337   7.739 -0.0307 -0.4002  0.7519
   16SAPS   C38 2095   1.804   1.359   7.868  0.5446 -0.1446  0.1583
   16SAPS   H8X 2096   1.911   1.380   7.846  0.1595  1.8597 -0.0341
   16SAPS   H8Y 2097   1.801   1.255   7.905  2.1016 -0.8107 -1.4337
   16SAPS   C39 2098   1.744   1.451   7.971  0.2986 -0.1673  0.2868
   16SAPS   H9X 2099   1.634   1.436   7.965  0.5198 -3.0055  1.5494
   16SAPS   H9Y 2100   1.789   1.550   7.948  0.9733 -0.8535 -1.5538
   16SAPS  C310 2101   1.798   1.407   8.108 -0.0428 -0.3139  0.3400
   16SAPS  H10X 2102   1.905   1.380   8.115 -0.6522 -2.6819  1.4550
   16SAPS  H10Y 2103   1.759   1.310   8.145  2.0753 -1.4492 -0.2232
   16SAPS  C311 2104   1.765   1.514   8.215 -0.3481 -0.2573  0.2765
   16SAPS  H11X 2105   1.662   1.555   8.211 -0.0689  0.3698 -0.9636
   16SAPS  H11Y 2106   1.815   1.610   8.192 -1.2269 -0.1690 -1.4273
   16SAPS  C312 2107   1.793   1.460   8.358  0.0509 -1.0136 -0.3144
   16SAPS  H12X 2108   1.902   1.442   8.348 -0.0594 -2.7973  1.1690
   16SAPS  H12Y 2109   1.746   1.359   8.365  0.3875 -1.0797  1.2325
   16SAPS  C313 2110   1.744   1.554   8.477  0.0234  0.3136 -0.4463
   16SAPS  H13X 2111   1.639   1.527   8.499  0.5078 -0.8059  0.5990
   16SAPS  H13Y 2112   1.746   1.661   8.445 -0.0872  0.9372  1.4975
   16SAPS  C314 2113   1.819   1.531   8.604 -0.0384 -0.4271 -0.2757
   16SAPS  H14X 2114   1.927   1.556   8.593 -0.1071 -0.0476 -0.0753
   16SAPS  H14Y 2115   1.823   1.423   8.630  0.8839 -0.7411 -1.5976
   16SAPS  C315 2116   1.768   1.615   8.720 -0.4942 -0.3752 -0.0819
   16SAPS  H15X 2117   1.791   1.720   8.690 -2.5755  0.1531 -0.0226
   16SAPS  H15Y 2118   1.842   1.598   8.801 -1.9100 -2.1831  0.9157
   16SAPS  C316 2119   1.620   1.604   8.753  0.1774 -0.5795 -0.0988
   16SAPS  H16X 2120   1.606   1.506   8.804 -4.8005  0.5884  1.2787
   16SAPS  H16Y 2121   1.545   1.607   8.671 -1.4677 -0.2692  1.3473
   16SAPS  C317 2122   1.574   1.704   8.863  0.2508  0.1262  0.3740
   16SAPS  H17X 2123   1.547   1.797   8.809 -0.5198 -0.0527  0.4403
   16SAPS  H17Y 2124   1.664   1.718   8.926  0.6209  0.5596 -0.2368
   16SAPS  C318 2125   1.458   1.655   8.945 -0.2659  0.3077 -0.2011
   16SAPS  H18X 2126   1.471   1.550   8.980 -0.6858  0.2373 -0.2562
   16SAPS  H18Y 2127   1.369   1.645   8.880 -0.3190 -0.3919 -0.0261
   16SAPS  H18Z 2128   1.427   1.721   9.029 -0.0307 -1.2095  1.1196
   17SAPC     N 2129   4.021   5.099  10.870  0.5142 -0.5335  0.0339
   17SAPC   C12 2130   4.094   5.128  10.740 -0.6431 -0.3181  0.6859
   17SAPC  H12A 2131   4.194   5.167  10.748 -0.4127  0.1685 -2.7983
   17SAPC  H12B 2132   4.035   5.206  10.693 -0.8089 -0.5075  0.5785
   17SAPC   C13 2133   3.870   5.090  10.852 -0.0576  0.3726 -0.9486
   17SAPC  H13A 2134   3.855   5.004  10.788 -2.2694 -2.1105  2.5157
   17SAPC  H13B 2135   3.815   5.061  10.941  0.0275  0.2695 -0.9284
   17SAPC  H13C 2136   3.842   5.186  10.813  0.5482  0.3085 -1.5626
   17SAPC   C14 2137   4.084   4.978  10.933 -0.3134 -0.1295 -0.1770
   17SAPC  H14A 2138   4.062   4.907  10.854 -0.8544  1.8204 -1.8733
   17SAPC  H14B 2139   4.186   5.004  10.957  0.6887 -2.6581 -1.3197
   17SAPC  H14C 2140   4.025   4.947  11.018 -0.0274  1.2277  0.5423
   17SAPC   C15 2141   4.052   5.212  10.961  0.1153  0.5787 -0.6193
   17SAPC  H15A 2142   3.998   5.301  10.931 -3.1094 -0.8576  0.4448
   17SAPC  H15B 2143   4.022   5.196  11.063  0.2128 -0.5683 -0.7558
   17SAPC  H15C 2144   4.158   5.227  10.965  0.3647 -0.8555 -1.1530
   17SAPC   C11 2145   4.094   5.004  10.641  0.1275 -0.2755 -0.6148
   17SAPC  H11A 2146   4.144   4.919  10.692 -2.7313 -1.9605 -0.4257
   17SAPC  H11B 2147   4.155   5.041  10.555  3.0424 -0.0727  1.3973
   17SAPC     P 2148   3.944   4.851  10.497  0.1360 -0.0528 -0.0678
   17SAPC   O13 2149   3.996   4.721  10.540 -0.5470  0.6170  0.4363
   17SAPC   O14 2150   3.799   4.843  10.458 -0.6227 -0.3815 -0.6617
   17SAPC   O12 2151   3.961   4.961  10.611 -0.0874  0.0797 -0.7130
   17SAPC   O11 2152   4.027   4.911  10.366  0.2568 -0.1330  0.3413
   17SAPC    C1 2153   4.150   4.859  10.314  0.3216 -0.1356 -0.9139
   17SAPC    HA 2154   4.206   4.952  10.293 -0.1760  0.5991  0.8481
   17SAPC    HB 2155   4.192   4.792  10.392 -3.3991 -2.1480 -0.4136
   17SAPC    C2 2156   4.128   4.767  10.194  0.1962  0.1447  0.2244
   17SAPC    HS 2157   4.226   4.726  10.161  0.4332  1.0066 -0.1677
   17SAPC   O21 2158   4.067   4.829  10.080  0.0625 -0.2924 -0.7693
   17SAPC   C21 2159   4.152   4.908   9.997 -0.5659  0.0942 -0.0950
   17SAPC   O22 2160   4.267   4.922  10.026 -0.2046  0.1427 -0.1877
   17SAPC   C22 2161   4.080   4.958   9.868  0.4818 -0.0867  0.4276
   17SAPC   H2R 2162   4.039   4.870   9.813 -0.5590 -0.1201  1.2313
   17SAPC   H2S 2163   3.987   5.006   9.905 -1.3019 -0.8328 -2.6487
   17SAPC    C3 2164   4.048   4.642  10.230  0.2704  0.6090  0.8229
   17SAPC    HX 2165   3.940   4.666  10.241 -0.2912  0.5063 -3.1163
   17SAPC    HY 2166   4.088   4.593  10.322 -0.3629  0.3679  0.9757
   17SAPC   O31 2167   4.051   4.539  10.133  0.2281 -0.9009  0.4002
   17SAPC   C31 2168   3.970   4.439  10.147 -0.2026  0.1543  0.6568
   17SAPC   O32 2169   3.904   4.412  10.247 -0.3122 -0.0349 -0.6252
   17SAPC   C32 2170   3.978   4.349  10.018 -0.0412 -0.5172 -0.4956
   17SAPC   H2X 2171   4.083   4.324   9.994  0.1821  1.1039 -1.3616
   17SAPC   H2Y 2172   3.957   4.425   9.939  0.2989 -0.4599 -0.5289
   17SAPC   C23 2173   4.157   5.048   9.765 -0.2749  0.1304 -0.3100
   17SAPC   H3R 2174   4.204   5.132   9.820  0.0652 -0.0779 -0.2785
   17SAPC   H3S 2175   4.076   5.091   9.702  0.3747 -0.5473 -1.6518
   17SAPC   C24 2176   4.260   4.971   9.692  0.6289  0.1664  0.8712
   17SAPC   H4R 2177   4.320   4.925   9.773 -1.3608 -2.5906  0.9305
   17SAPC   H4S 2178   4.335   5.036   9.642  0.4250 -0.2969 -0.0485
   17SAPC   C25 2179   4.188   4.875   9.596  0.3023  0.4207  0.0843
   17SAPC   H5R 2180   4.162   4.774   9.632  2.2494  0.4836  1.8825
   17SAPC   C26 2181   4.161   4.903   9.468 -0.1265  0.3630  0.1293
   17SAPC   H6R 2182   4.104   4.830   9.409  0.2074  0.5208 -0.3901
   17SAPC   C27 2183   4.193   5.033   9.407  0.5975 -0.4808  1.2007
   17SAPC   H7R 2184   4.280   5.040   9.338 -0.7920  0.8567 -0.5214
   17SAPC   H7S 2185   4.215   5.120   9.472  2.1762  1.3470 -1.5558
   17SAPC   C28 2186   4.072   5.078   9.324  0.7032 -0.3482  0.1091
   17SAPC   H8R 2187   3.976   5.088   9.377  0.9498  0.3344  0.4296
   17SAPC   C29 2188   4.070   5.087   9.184  0.3163 -0.1640  0.3722
   17SAPC   H9R 2189   3.980   5.111   9.125  0.6708  1.1340  0.3397
   17SAPC  C210 2190   4.194   5.082   9.095  0.0870 -0.0831 -0.6449
   17SAPC  H10R 2191   4.226   4.976   9.083 -1.7669 -0.6083 -1.2840
   17SAPC  H10S 2192   4.276   5.128   9.156 -0.6147  1.1487 -0.6014
   17SAPC  C211 2193   4.185   5.158   8.971 -0.0965 -0.0247 -0.5852
   17SAPC  H11R 2194   4.258   5.241   8.976 -0.9323  0.6800  2.7016
   17SAPC  C212 2195   4.113   5.130   8.863 -0.3124 -0.0051  0.1544
   17SAPC  H12R 2196   4.121   5.210   8.789  0.0777  0.9173  1.1636
   17SAPC  C213 2197   4.010   5.020   8.837 -0.0816  0.1437 -0.4105
   17SAPC  H13R 2198   3.965   4.986   8.933  0.3756 -2.2076 -0.9503
   17SAPC  H13S 2199   4.070   4.934   8.800 -0.3112 -0.7851  1.2410
   17SAPC  C214 2200   3.904   5.064   8.737 -0.3298  0.7999 -0.8642
   17SAPC  H14R 2201   3.947   5.134   8.663 -0.1456  3.3179  1.4846
   17SAPC  C215 2202   3.770   5.050   8.749 -0.2251  0.0643  0.1364
   17SAPC  H15R 2203   3.708   5.095   8.670  0.4060  1.8100  0.5876
   17SAPC  C216 2204   3.704   4.973   8.856 -0.0187  0.1467  1.1080
   17SAPC  H16R 2205   3.770   4.891   8.893  2.4743  2.5778  2.4634
   17SAPC  H16S 2206   3.609   4.944   8.807  0.4054  0.9672 -0.2164
   17SAPC  C217 2207   3.679   5.070   8.977  0.1488  0.5875  0.7737
   17SAPC  H17R 2208   3.599   5.140   8.942 -0.3260  0.2759  1.2194
   17SAPC  H17S 2209   3.780   5.114   8.993  1.2428 -1.2331 -0.6829
   17SAPC  C218 2210   3.647   4.999   9.107 -0.2351  0.4087 -0.0890
   17SAPC  H18R 2211   3.735   4.937   9.135 -0.3177  1.2394  2.1937
   17SAPC  H18S 2212   3.552   4.944   9.095  0.1677 -0.2791 -0.1895
   17SAPC  C219 2213   3.634   5.107   9.222 -0.9525  0.5888  0.4866
   17SAPC  H19R 2214   3.547   5.174   9.201 -0.7323  0.5488 -0.6271
   17SAPC  H19S 2215   3.727   5.168   9.226  1.0423 -2.3202  2.5005
   17SAPC  C220 2216   3.596   5.054   9.359  0.1352 -0.1783 -0.9605
   17SAPC  H20R 2217   3.661   4.972   9.395 -0.4099  0.4207  1.5824
   17SAPC  H20S 2218   3.492   5.016   9.344 -0.5249  0.6114  1.2522
   17SAPC  H20T 2219   3.575   5.143   9.423  0.6247  0.5017 -1.7209
   17SAPC   C33 2220   3.895   4.220  10.021 -0.1535  0.2403 -0.1852
   17SAPC   H3X 2221   3.792   4.242  10.056  0.4513 -1.2952  2.9248
   17SAPC   H3Y 2222   3.931   4.155  10.104 -0.7136  0.2042  0.0341
   17SAPC   C34 2223   3.896   4.138   9.888  0.0959 -0.0204  0.6765
   17SAPC   H4X 2224   3.827   4.052   9.899 -0.0160  0.1204  1.1046
   17SAPC   H4Y 2225   3.994   4.093   9.864 -1.1230 -2.5574  0.1667
   17SAPC   C35 2226   3.855   4.231   9.779 -0.1633 -0.0470 -0.0438
   17SAPC   H5X 2227   3.936   4.304   9.757  2.1625 -3.0957 -2.5749
   17SAPC   H5Y 2228   3.766   4.284   9.817  0.1621 -0.0014  0.6842
   17SAPC   C36 2229   3.842   4.167   9.639 -0.0605  0.0071  0.6890
   17SAPC   H6X 2230   3.774   4.079   9.644 -0.3831  0.2924  1.4995
   17SAPC   H6Y 2231   3.937   4.137   9.590 -0.0885  2.3021 -0.9255
   17SAPC   C37 2232   3.767   4.249   9.535 -0.2170  0.0198 -0.1735
   17SAPC   H7X 2233   3.808   4.348   9.509 -1.9413  1.0134  0.6970
   17SAPC   H7Y 2234   3.668   4.274   9.579 -0.3119  0.0079 -0.3777
   17SAPC   C38 2235   3.754   4.172   9.404  0.3248 -0.2806  0.0952
   17SAPC   H8X 2236   3.720   4.066   9.412 -0.8120  0.0359 -0.3657
   17SAPC   H8Y 2237   3.858   4.172   9.366  0.0564 -0.1546 -0.6518
   17SAPC   C39 2238   3.665   4.238   9.304 -0.4761 -0.3451 -0.1218
   17SAPC   H9X 2239   3.703   4.337   9.271  0.3690 -1.1476 -1.6326
   17SAPC   H9Y 2240   3.562   4.254   9.344  1.1026  1.9485  3.5274
   17SAPC  C310 2241   3.646   4.140   9.183  1.4241 -0.1125  0.1517
   17SAPC  H10X 2242   3.570   4.191   9.121  0.0367 -3.4540 -1.1451
   17SAPC  H10Y 2243   3.601   4.043   9.214  1.4487 -0.1516  0.0662
   17SAPC  C311 2244   3.765   4.135   9.089  0.5534 -0.0374 -0.0536
   17SAPC  H11X 2245   3.856   4.095   9.137 -0.7957  0.7026  3.4487
   17SAPC  H11Y 2246   3.791   4.242   9.071 -0.9772  0.5108  0.7633
   17SAPC  C312 2247   3.727   4.066   8.958 -0.0790  0.0385  0.0451
   17SAPC  H12X 2248   3.805   4.089   8.882  1.8385 -2.1098  1.2452
   17SAPC  H12Y 2249   3.638   4.127   8.930 -0.7946 -0.5037  1.0789
   17SAPC  C313 2250   3.696   3.917   8.968 -0.2265 -0.3808 -0.6995
   17SAPC  H13X 2251   3.610   3.900   9.037 -0.0468 -0.0064 -0.3727
   17SAPC  H13Y 2252   3.781   3.863   9.015  0.0032 -2.0345 -2.8907
   17SAPC  C314 2253   3.677   3.847   8.832 -0.6867 -0.9417 -0.1070
   17SAPC  H14X 2254   3.774   3.848   8.777  1.6229  1.9416  3.5168
   17SAPC  H14Y 2255   3.610   3.910   8.770  1.9748  0.1114 -2.1423
   17SAPC  C315 2256   3.637   3.703   8.863 -0.7648 -0.9715  0.8557
   17SAPC  H15X 2257   3.542   3.692   8.919 -1.0065  0.4388  0.7596
   17SAPC  H15Y 2258   3.725   3.663   8.918 -0.0710 -0.5395  0.0786
   17SAPC  C316 2259   3.618   3.612   8.740 -0.0210 -0.0163  0.2388
   17SAPC  H16X 2260   3.621   3.505   8.769 -1.6483 -0.3684 -0.7616
   17SAPC  H16Y 2261   3.700   3.636   8.668  0.5405 -0.4555  0.7220
   17SAPC  C317 2262   3.486   3.627   8.668  0.5597 -0.3959  0.2487
   17SAPC  H17X 2263   3.469   3.733   8.640 -0.9715 -0.5386  0.5464
   17SAPC  H17Y 2264   3.413   3.589   8.743  0.6984 -1.6112 -0.2088
   17SAPC  C318 2265   3.470   3.547   8.541 -0.6073  0.3747  0.2780
   17SAPC  H18X 2266   3.362   3.550   8.515 -0.4575  1.8894 -0.2925
   17SAPC  H18Y 2267   3.527   3.587   8.454 -0.1503 -1.8129 -0.5163
   17SAPC  H18Z 2268   3.494   3.439   8.554 -2.1149 -0.2192 -1.4572
   18SAPC     N 2269   6.395   4.165  10.550 -0.9181 -0.0038 -0.0738
   18SAPC   C12 2270   6.387   4.018  10.586  0.6459  0.0440 -0.4354
   18SAPC  H12A 2271   6.470   3.987  10.648  0.7762  2.5919  0.8253
   18SAPC  H12B 2272   6.407   3.961  10.497 -0.7270 -3.8636  1.5150
   18SAPC   C13 2273   6.360   4.248  10.670 -0.4967 -0.6525 -0.0106
   18SAPC  H13A 2274   6.391   4.346  10.637  0.5262 -0.8167  0.4102
   18SAPC  H13B 2275   6.264   4.233  10.717  1.0756  0.3750  3.8696
   18SAPC  H13C 2276   6.427   4.227  10.752 -1.9806 -1.4448  1.0372
   18SAPC   C14 2277   6.536   4.210  10.515  0.9436  0.1542  0.4045
   18SAPC  H14A 2278   6.532   4.313  10.481 -2.1273 -0.6228 -2.0100
   18SAPC  H14B 2279   6.609   4.199  10.594  2.4620 -0.6277 -1.0566
   18SAPC  H14C 2280   6.570   4.150  10.432  2.2828  2.0265 -0.5016
   18SAPC   C15 2281   6.297   4.184  10.439  0.3460 -0.7236 -0.3354
   18SAPC  H15A 2282   6.333   4.130  10.352  1.0505  0.1324 -0.5913
   18SAPC  H15B 2283   6.203   4.143  10.471 -0.2164  0.4944 -0.3621
   18SAPC  H15C 2284   6.284   4.288  10.411  0.6240 -0.6234 -0.0946
   18SAPC   C11 2285   6.265   3.965  10.664  1.0747 -0.5593  0.2494
   18SAPC  H11A 2286   6.241   4.008  10.764  0.5781  0.7449 -0.4054
   18SAPC  H11B 2287   6.303   3.864  10.690  2.6440 -0.8559 -2.7796
   18SAPC     P 2288   6.017   4.036  10.606 -0.0802  0.4284  0.4636
   18SAPC   O13 2289   6.038   4.122  10.727 -0.8085 -0.2202  0.0948
   18SAPC   O14 2290   5.973   4.106  10.486 -0.8519 -0.1093 -0.0889
   18SAPC   O12 2291   6.147   3.957  10.575 -0.0093  0.0612  0.1717
   18SAPC   O11 2292   5.904   3.928  10.648  0.0876  0.6622 -0.1897
   18SAPC    C1 2293   5.923   3.787  10.621 -0.0521 -0.0141  0.2585
   18SAPC    HA 2294   6.022   3.760  10.665  0.1896  2.5234  1.4536
   18SAPC    HB 2295   5.858   3.725  10.686  0.2899  0.1483  0.7670
   18SAPC    C2 2296   5.908   3.733  10.482 -0.1792 -0.8133 -0.5172
   18SAPC    HS 2297   6.010   3.739  10.437  0.4099 -0.0543  0.8607
   18SAPC   O21 2298   5.801   3.805  10.416 -0.1822  0.2144  0.3166
   18SAPC   C21 2299   5.835   3.825  10.290  0.5365  0.1645  0.2538
   18SAPC   O22 2300   5.944   3.809  10.242 -0.1384 -0.0335  0.2972
   18SAPC   C22 2301   5.710   3.879  10.216 -0.3459  0.0113  0.2056
   18SAPC   H2R 2302   5.617   3.869  10.277  1.2274  0.8030  2.8912
   18SAPC   H2S 2303   5.723   3.988  10.199  0.6585  0.3463  2.7115
   18SAPC    C3 2304   5.877   3.581  10.472 -0.3679  0.1212 -0.2919
   18SAPC    HX 2305   5.791   3.566  10.540  1.0873 -1.6290  1.2891
   18SAPC    HY 2306   5.955   3.523  10.527 -0.3120 -1.5341 -2.0413
   18SAPC   O31 2307   5.856   3.535  10.342  0.0819  0.5920  0.2898
   18SAPC   C31 2308   5.959   3.492  10.268  0.3984  0.4050  0.3704
   18SAPC   O32 2309   6.074   3.493  10.304  0.4034  0.1917  0.1006
   18SAPC   C32 2310   5.908   3.433  10.134 -0.0339 -0.7535 -0.4797
   18SAPC   H2X 2311   5.798   3.444  10.122 -0.7153 -1.4651  3.7231
   18SAPC   H2Y 2312   5.916   3.324  10.158 -0.0776 -0.4718  0.8864
   18SAPC   C23 2313   5.695   3.800  10.086  0.0967 -0.5863 -0.6263
   18SAPC   H3R 2314   5.588   3.810  10.057 -0.2636 -1.6153  0.2899
   18SAPC   H3S 2315   5.712   3.690  10.087  0.8073 -0.4740  0.2281
   18SAPC   C24 2316   5.782   3.874   9.972 -0.6571 -0.0924 -0.5837
   18SAPC   H4R 2317   5.892   3.869   9.991 -0.1896  1.2136 -2.6233
   18SAPC   H4S 2318   5.756   3.982   9.979 -1.9908 -0.4213 -0.2564
   18SAPC   C25 2319   5.756   3.792   9.847 -0.0258 -0.0888  0.1049
   18SAPC   H5R 2320   5.767   3.685   9.873 -1.1894 -0.1363  0.4606
   18SAPC   C26 2321   5.723   3.836   9.721 -1.1019  0.4134  0.0062
   18SAPC   H6R 2322   5.702   3.767   9.638  1.7449 -0.0044 -0.4481
   18SAPC   C27 2323   5.713   3.986   9.691 -0.1888  0.4183  0.2896
   18SAPC   H7R 2324   5.719   4.010   9.583 -0.4423 -2.8360 -0.5342
   18SAPC   H7S 2325   5.792   4.048   9.739 -1.3882  1.5367  0.8902
   18SAPC   C28 2326   5.583   4.043   9.745  0.3075  0.3138  0.5633
   18SAPC   H8R 2327   5.558   3.997   9.842  1.1192  0.0923  0.6767
   18SAPC   C29 2328   5.493   4.108   9.667  0.4507  0.3584 -0.2094
   18SAPC   H9R 2329   5.400   4.154   9.702  0.2110  1.3342 -2.0394
   18SAPC  C210 2330   5.505   4.137   9.524  0.9303  0.4139  0.6427
   18SAPC  H10R 2331   5.399   4.149   9.495  0.7266 -0.1053  1.1765
   18SAPC  H10S 2332   5.543   4.053   9.462  3.7650  1.7266  0.3966
   18SAPC  C211 2333   5.587   4.259   9.479  0.6923  0.0138  0.2303
   18SAPC  H11R 2334   5.667   4.278   9.551  0.5897 -0.2999  0.4277
   18SAPC  C212 2335   5.577   4.333   9.374  0.4318  0.4288  0.6369
   18SAPC  H12R 2336   5.653   4.408   9.349  0.5012  0.2947  0.4381
   18SAPC  C213 2337   5.471   4.311   9.265  0.0958 -0.6492 -0.0246
   18SAPC  H13R 2338   5.373   4.267   9.292 -1.0604  1.1833 -1.0789
   18SAPC  H13S 2339   5.514   4.241   9.189 -0.0758 -0.0316 -0.6978
   18SAPC  C214 2340   5.428   4.439   9.198 -0.2886 -0.0081  0.5280
   18SAPC  H14R 2341   5.432   4.530   9.261 -0.9506 -0.3908  1.1387
   18SAPC  C215 2342   5.393   4.454   9.066 -1.0100  0.0318  0.3549
   18SAPC  H15R 2343   5.372   4.556   9.031 -3.2082 -0.3731  0.3445
   18SAPC  C216 2344   5.391   4.344   8.967 -0.0300  0.6965  0.6788
   18SAPC  H16R 2345   5.460   4.262   8.995 -0.5640  0.8947  2.7920
   18SAPC  H16S 2346   5.416   4.387   8.868 -1.6926  0.8068  0.2774
   18SAPC  C217 2347   5.250   4.283   8.964 -0.3955 -0.2985 -0.0645
   18SAPC  H17R 2348   5.187   4.364   8.921 -1.8835 -1.2433  0.2562
   18SAPC  H17S 2349   5.211   4.241   9.059  1.4999  0.2612  0.9997
   18SAPC  C218 2350   5.244   4.165   8.855  0.2292  0.8871  0.6346
   18SAPC  H18R 2351   5.306   4.084   8.899  1.5138  1.1937 -0.5096
   18SAPC  H18S 2352   5.299   4.197   8.764 -0.8019  0.9651  0.0310
   18SAPC  C219 2353   5.104   4.114   8.812  0.0493  0.2776  0.4158
   18SAPC  H19R 2354   5.049   4.205   8.781 -0.7419 -0.1490  0.5504
   18SAPC  H19S 2355   5.048   4.078   8.901 -1.2248 -0.5094 -0.6710
   18SAPC  C220 2356   5.093   4.006   8.705 -0.2480 -0.5579  0.4313
   18SAPC  H20R 2357   5.153   3.924   8.750 -0.6078 -2.0105 -1.5690
   18SAPC  H20S 2358   5.141   4.046   8.613 -1.5950 -0.3555 -0.2070
   18SAPC  H20T 2359   4.996   3.959   8.678  0.0062 -0.5141 -0.5912
   18SAPC   C33 2360   5.989   3.488  10.020  0.0952  0.1522 -0.0424
   18SAPC   H3X 2361   6.097   3.499  10.044  0.1072  1.6769 -0.7071
   18SAPC   H3Y 2362   5.966   3.596  10.019 -2.1081 -0.2580 -1.0303
   18SAPC   C34 2363   5.962   3.427   9.883 -0.0451  0.1581  0.6295
   18SAPC   H4X 2364   5.851   3.425   9.873  0.0391 -3.9242 -1.2977
   18SAPC   H4Y 2365   6.002   3.324   9.878 -1.5709 -0.6043  2.7705
   18SAPC   C35 2366   6.010   3.509   9.763 -0.5015  1.0516 -0.2292
   18SAPC   H5X 2367   6.120   3.510   9.747  0.4067 -1.5571  4.2994
   18SAPC   H5Y 2368   5.963   3.609   9.767 -1.2348  0.9790 -3.6661
   18SAPC   C36 2369   5.949   3.443   9.633  0.5059 -0.2572  0.2590
   18SAPC   H6X 2370   5.838   3.443   9.638  0.5634 -0.4023  1.9520
   18SAPC   H6Y 2371   5.977   3.336   9.632  0.4697 -0.2889  1.6196
   18SAPC   C37 2372   5.992   3.517   9.507  0.8325  0.2071 -1.1311
   18SAPC   H7X 2373   6.102   3.531   9.504  0.7587  3.3375  2.5378
   18SAPC   H7Y 2374   5.957   3.620   9.531  0.2745 -0.0348 -0.9028
   18SAPC   C38 2375   5.932   3.469   9.374  0.2735 -0.1121 -0.0664
   18SAPC   H8X 2376   5.822   3.480   9.383  0.5462  2.4391  0.8856
   18SAPC   H8Y 2377   5.962   3.365   9.349  0.9012  0.7413 -3.3128
   18SAPC   C39 2378   5.987   3.552   9.262  0.6129 -0.1663  0.5340
   18SAPC   H9X 2379   6.098   3.552   9.275  0.5149  2.0594  1.8486
   18SAPC   H9Y 2380   5.951   3.656   9.273 -1.9733 -0.9994  0.5387
   18SAPC  C310 2381   5.947   3.508   9.122 -0.0144 -0.3402 -0.1965
   18SAPC  H10X 2382   6.006   3.415   9.106  0.5887  0.0205 -0.1328
   18SAPC  H10Y 2383   5.987   3.577   9.044  0.7301 -1.8158 -1.1660
   18SAPC  C311 2384   5.798   3.481   9.096  0.0882  0.3173 -0.0468
   18SAPC  H11X 2385   5.755   3.583   9.098  1.1210  0.7745 -0.3782
   18SAPC  H11Y 2386   5.756   3.420   9.179 -0.2854  0.9513  0.2349
   18SAPC  C312 2387   5.779   3.411   8.960  0.2606 -0.3048  0.1034
   18SAPC  H12X 2388   5.815   3.309   8.986  1.2772 -0.0142 -0.0908
   18SAPC  H12Y 2389   5.849   3.466   8.893  0.6353  1.0064  1.5170
   18SAPC  C313 2390   5.632   3.408   8.917  0.0458 -0.6992  0.2323
   18SAPC  H13X 2391   5.611   3.502   8.862  1.0134  0.9173  2.4841
   18SAPC  H13Y 2392   5.560   3.416   9.002 -3.8671 -2.4467 -2.5850
   18SAPC  C314 2393   5.595   3.302   8.816 -0.3124  0.1306 -0.2608
   18SAPC  H14X 2394   5.486   3.312   8.794 -0.5190 -2.0525 -0.5086
   18SAPC  H14Y 2395   5.614   3.200   8.857 -1.2223 -0.5091 -1.3649
   18SAPC  C315 2396   5.680   3.311   8.685  0.5286 -0.4536 -0.2500
   18SAPC  H15X 2397   5.788   3.302   8.711  0.3166  0.0217  0.8673
   18SAPC  H15Y 2398   5.666   3.418   8.659 -0.3272 -0.5429 -0.1737
   18SAPC  C316 2399   5.630   3.216   8.577 -0.4745  0.0644 -0.2242
   18SAPC  H16X 2400   5.521   3.230   8.565 -0.4541  1.4050  0.8133
   18SAPC  H16Y 2401   5.648   3.112   8.611  1.2598  1.0560  2.2661
   18SAPC  C317 2402   5.695   3.221   8.442 -1.0753  0.5409 -0.3453
   18SAPC  H17X 2403   5.803   3.199   8.427 -1.5885 -4.2771  1.4280
   18SAPC  H17Y 2404   5.700   3.325   8.404  0.9052  0.5882 -0.0848
   18SAPC  C318 2405   5.617   3.138   8.342 -0.3455  0.3136  0.1008
   18SAPC  H18X 2406   5.508   3.158   8.330 -0.5021  0.0067  0.9525
   18SAPC  H18Y 2407   5.634   3.029   8.356 -0.4265  0.1169 -1.1828
   18SAPC  H18Z 2408   5.663   3.149   8.241  1.8084  0.3709  1.0428
   19SAPC     N 2409   6.749   6.194  10.694  0.3578  0.3731 -0.4374
   19SAPC   C12 2410   6.671   6.188  10.556 -0.0389 -0.1386 -0.3398
   19SAPC  H12A 2411   6.624   6.091  10.547  1.4010 -0.9848  0.7386
   19SAPC  H12B 2412   6.744   6.182  10.478  0.4768 -1.0009  0.1906
   19SAPC   C13 2413   6.839   6.312  10.690 -0.2759  0.3239  0.2025
   19SAPC  H13A 2414   6.900   6.327  10.777  0.9210 -0.3886 -0.4862
   19SAPC  H13B 2415   6.914   6.295  10.614  0.3263  0.4869  0.7600
   19SAPC  H13C 2416   6.792   6.408  10.675  1.2727  1.0845  0.0892
   19SAPC   C14 2417   6.665   6.202  10.815 -0.1415  0.6695  0.8552
   19SAPC  H14A 2418   6.728   6.185  10.900 -1.1862 -0.3482  1.4513
   19SAPC  H14B 2419   6.607   6.293  10.810  0.1450  0.7969 -1.0388
   19SAPC  H14C 2420   6.597   6.119  10.806 -0.9235  1.2807  0.9994
   19SAPC   C15 2421   6.830   6.069  10.702 -0.3838  0.3009 -0.4221
   19SAPC  H15A 2422   6.889   6.061  10.793  1.0388  1.1271 -1.2358
   19SAPC  H15B 2423   6.771   5.980  10.688 -1.1045  0.7169 -0.1381
   19SAPC  H15C 2424   6.902   6.062  10.622 -0.3709  0.5707 -0.4344
   19SAPC   C11 2425   6.573   6.306  10.528 -0.2195 -0.7032 -0.2574
   19SAPC  H11A 2426   6.539   6.295  10.423 -0.5167  0.2264 -0.2653
   19SAPC  H11B 2427   6.628   6.401  10.539  1.4575 -1.5260 -1.1437
   19SAPC     P 2428   6.343   6.378  10.617  0.4099 -0.4243 -0.3775
   19SAPC   O13 2429   6.234   6.300  10.693  0.2050 -0.8106 -0.1474
   19SAPC   O14 2430   6.362   6.525  10.651 -0.2153  0.1708  0.1383
   19SAPC   O12 2431   6.475   6.296  10.631 -0.3128 -0.0631 -0.3995
   19SAPC   O11 2432   6.299   6.374  10.467 -0.6239 -0.0150  0.0404
   19SAPC    C1 2433   6.259   6.246  10.407  0.2010 -0.0435 -0.4592
   19SAPC    HA 2434   6.349   6.197  10.364 -0.1347 -0.7167 -0.4100
   19SAPC    HB 2435   6.222   6.169  10.478  1.4546  2.0955  2.6995
   19SAPC    C2 2436   6.167   6.258  10.283  0.0495 -0.3884 -0.5665
   19SAPC    HS 2437   6.171   6.154  10.245 -2.2829 -0.6160 -0.3047
   19SAPC   O21 2438   6.229   6.349  10.196  0.4117  0.2854  0.2899
   19SAPC   C21 2439   6.180   6.349  10.067  0.0377  1.2041 -0.4001
   19SAPC   O22 2440   6.090   6.277  10.029 -0.4767 -0.3316 -0.4698
   19SAPC   C22 2441   6.254   6.452   9.982  0.5427 -0.1217  0.3794
   19SAPC   H2R 2442   6.173   6.512   9.935 -0.8475 -1.8526  0.4733
   19SAPC   H2S 2443   6.327   6.513  10.040 -0.1943 -0.5651  1.8314
   19SAPC    C3 2444   6.021   6.291  10.327  0.5742 -0.3028  0.7162
   19SAPC    HX 2445   6.007   6.401  10.314 -0.0463 -0.6149 -1.7573
   19SAPC    HY 2446   6.017   6.274  10.436  2.2514  0.8584  0.9918
   19SAPC   O31 2447   5.925   6.204  10.260 -0.1884  0.0444 -0.7361
   19SAPC   C31 2448   5.802   6.228  10.278  0.2658  0.5554  0.3296
   19SAPC   O32 2449   5.752   6.326  10.330 -0.2422  1.0773  0.1015
   19SAPC   C32 2450   5.722   6.095  10.240 -0.0454  0.2196 -0.3588
   19SAPC   H2X 2451   5.626   6.110  10.294 -0.6103 -1.5719 -0.8084
   19SAPC   H2Y 2452   5.780   6.009  10.280 -0.7704  0.1707  0.6264
   19SAPC   C23 2453   6.318   6.384   9.855 -0.2167  0.9391 -0.4366
   19SAPC   H3R 2454   6.232   6.331   9.810 -1.6713  1.2454  1.8033
   19SAPC   H3S 2455   6.393   6.307   9.884 -0.3354  0.6244 -0.9602
   19SAPC   C24 2456   6.377   6.485   9.745 -0.2930  0.3483 -0.5318
   19SAPC   H4R 2457   6.454   6.546   9.798  1.1834 -1.2134 -0.7869
   19SAPC   H4S 2458   6.295   6.558   9.726  0.7631  1.5848 -0.4848
   19SAPC   C25 2459   6.446   6.437   9.619 -0.0537  0.3874  0.4223
   19SAPC   H5R 2460   6.552   6.412   9.627  0.1567  1.0491 -0.2147
   19SAPC   C26 2461   6.391   6.434   9.498 -0.0967 -0.1373  0.3970
   19SAPC   H6R 2462   6.450   6.404   9.411 -0.3762  2.4153 -0.7770
   19SAPC   C27 2463   6.252   6.475   9.467 -0.1018 -0.2498 -0.4240
   19SAPC   H7R 2464   6.194   6.449   9.558  0.4367  1.7222  0.5450
   19SAPC   H7S 2465   6.222   6.407   9.384  2.7127 -2.3565  0.1284
   19SAPC   C28 2466   6.231   6.621   9.437  0.6672  0.2947  0.4445
   19SAPC   H8R 2467   6.221   6.687   9.524 -0.1156  0.7663  0.0076
   19SAPC   C29 2468   6.237   6.676   9.315 -0.6990  0.7785  1.4404
   19SAPC   H9R 2469   6.204   6.781   9.310  1.1511  1.3679  1.0902
   19SAPC  C210 2470   6.273   6.607   9.185  0.7899 -0.6143 -0.0047
   19SAPC  H10R 2471   6.243   6.500   9.175  0.4729 -0.8203  2.4645
   19SAPC  H10S 2472   6.384   6.611   9.176  0.7675  0.4546  0.0833
   19SAPC  C211 2473   6.216   6.687   9.071 -0.1720  0.1047  0.6197
   19SAPC  H11R 2474   6.111   6.721   9.073  0.0510  1.2052 -1.8909
   19SAPC  C212 2475   6.277   6.721   8.955  0.1396 -0.0282  0.1242
   19SAPC  H12R 2476   6.229   6.792   8.886  0.0787 -0.8381 -0.6993
   19SAPC  C213 2477   6.415   6.677   8.898 -0.1890  0.2450  0.2093
   19SAPC  H13R 2478   6.430   6.569   8.920 -0.8137  0.3857  1.4085
   19SAPC  H13S 2479   6.497   6.733   8.947 -0.0216 -0.4562  0.7462
   19SAPC  C214 2480   6.421   6.700   8.744 -1.0205  0.2731  0.2361
   19SAPC  H14R 2481   6.339   6.652   8.689 -1.0983  1.0799 -0.3681
   19SAPC  C215 2482   6.526   6.760   8.674  1.3793  0.2136 -0.2376
   19SAPC  H15R 2483   6.522   6.755   8.564  0.6032  0.7017 -0.2356
   19SAPC  C216 2484   6.647   6.824   8.728 -0.0348  0.2133 -0.6344
   19SAPC  H16R 2485   6.726   6.770   8.672  1.8778  1.6414  0.5973
   19SAPC  H16S 2486   6.669   6.813   8.836 -2.1881 -0.6747 -0.2280
   19SAPC  C217 2487   6.649   6.965   8.672  0.1956 -0.1599 -0.6654
   19SAPC  H17R 2488   6.574   7.025   8.729  0.3889 -1.7887  1.4468
   19SAPC  H17S 2489   6.633   6.980   8.563 -1.8634  0.6838 -0.3085
   19SAPC  C218 2490   6.777   7.038   8.715 -0.5249 -0.2956 -0.0954
   19SAPC  H18R 2491   6.850   6.990   8.646 -2.1138  0.9675 -2.8219
   19SAPC  H18S 2492   6.794   7.031   8.825  1.8679  1.6883 -0.2309
   19SAPC  C219 2493   6.773   7.194   8.685  0.8360  0.3087  0.4265
   19SAPC  H19R 2494   6.715   7.250   8.761 -1.1819 -0.6821 -0.2963
   19SAPC  H19S 2495   6.736   7.223   8.584  1.2937 -0.5208  0.0084
   19SAPC  C220 2496   6.913   7.252   8.699 -0.2734  0.2643  0.4572
   19SAPC  H20R 2497   6.960   7.260   8.599 -0.2230  2.1019  0.5952
   19SAPC  H20S 2498   6.971   7.198   8.777 -0.8464 -0.4532  0.3981
   19SAPC  H20T 2499   6.911   7.358   8.733 -0.5064 -0.6791  3.7885
   19SAPC   C33 2500   5.700   6.092  10.087  0.4413  0.1210  0.4190
   19SAPC   H3X 2501   5.653   6.186  10.051 -1.7226 -1.3610 -0.9286
   19SAPC   H3Y 2502   5.624   6.026  10.041 -0.7214  2.6247 -1.5086
   19SAPC   C34 2503   5.826   6.047  10.017 -0.8745 -0.2203  0.5524
   19SAPC   H4X 2504   5.854   5.947  10.058  1.2228  1.4896  3.7524
   19SAPC   H4Y 2505   5.915   6.101  10.055  0.8501 -2.2081 -0.3979
   19SAPC   C35 2506   5.824   6.056   9.862 -0.2897 -0.0176 -0.7990
   19SAPC   H5X 2507   5.752   5.987   9.813  1.1582 -1.0049 -1.5766
   19SAPC   H5Y 2508   5.928   6.041   9.826 -0.2237  1.2069 -1.1732
   19SAPC   C36 2509   5.796   6.195   9.816  0.1378  0.5177 -0.8256
   19SAPC   H6X 2510   5.853   6.266   9.880  1.1052  0.8965 -2.0653
   19SAPC   H6Y 2511   5.691   6.227   9.835  0.4708  1.4955 -0.5614
   19SAPC   C37 2512   5.819   6.231   9.669  0.4860 -0.8103  0.9381
   19SAPC   H7X 2513   5.903   6.169   9.630  0.2747 -1.3033  1.2530
   19SAPC   H7Y 2514   5.858   6.335   9.665  1.1443 -1.0779  0.1112
   19SAPC   C38 2515   5.689   6.218   9.589  0.6302  0.4188  0.8929
   19SAPC   H8X 2516   5.620   6.301   9.614 -1.2708 -1.4522  2.1725
   19SAPC   H8Y 2517   5.641   6.122   9.616  0.2530  1.1491  2.9679
   19SAPC   C39 2518   5.710   6.215   9.433 -0.0405 -0.2065 -0.4449
   19SAPC   H9X 2519   5.618   6.184   9.379  0.7207 -2.1771 -0.6748
   19SAPC   H9Y 2520   5.782   6.133   9.412  1.5698  0.9916  0.1940
   19SAPC  C310 2521   5.760   6.350   9.383 -0.0834  0.5027  0.1364
   19SAPC  H10X 2522   5.860   6.366   9.428  0.3325  0.8059 -0.8938
   19SAPC  H10Y 2523   5.695   6.436   9.412  0.2623  0.8669 -0.1717
   19SAPC  C311 2524   5.772   6.351   9.236 -0.7222  0.5461 -0.1342
   19SAPC  H11X 2525   5.676   6.383   9.189  0.2406 -0.6278 -3.1379
   19SAPC  H11Y 2526   5.788   6.249   9.195  2.5179  0.6975  0.4873
   19SAPC  C312 2527   5.878   6.455   9.175  0.3763  0.4471 -0.1349
   19SAPC  H12X 2528   5.969   6.432   9.234  0.4258  1.0407  0.0171
   19SAPC  H12Y 2529   5.849   6.555   9.213 -1.3593  0.1939 -0.6861
   19SAPC  C313 2530   5.885   6.452   9.020  0.2424 -0.5417 -0.2717
   19SAPC  H13X 2531   5.925   6.555   9.012 -0.0158 -0.0307  3.4151
   19SAPC  H13Y 2532   5.785   6.450   8.972  0.7906 -0.4510 -1.4606
   19SAPC  C314 2533   5.981   6.345   8.964 -0.6228 -0.1563  0.3873
   19SAPC  H14X 2534   5.941   6.253   9.012  0.6219 -0.3872  1.0117
   19SAPC  H14Y 2535   6.083   6.369   9.002 -1.4911  1.3997  1.8811
   19SAPC  C315 2536   5.975   6.341   8.809  0.1557  0.0376  0.0792
   19SAPC  H15X 2537   6.027   6.431   8.770 -0.4868  0.7217  0.7713
   19SAPC  H15Y 2538   5.870   6.347   8.772  1.3691 -0.0786 -3.8350
   19SAPC  C316 2539   6.042   6.209   8.757 -0.2958 -1.0582  0.6244
   19SAPC  H16X 2540   6.004   6.125   8.819  0.7955 -2.3812 -0.4035
   19SAPC  H16Y 2541   6.151   6.204   8.778  0.4318 -2.1363 -2.6543
   19SAPC  C317 2542   6.021   6.189   8.606 -0.1221 -0.2148  0.5082
   19SAPC  H17X 2543   5.915   6.203   8.577 -0.3396 -1.4251  0.6496
   19SAPC  H17Y 2544   6.056   6.085   8.586  1.1784  0.6784 -2.3382
   19SAPC  C318 2545   6.107   6.287   8.514  0.3285  0.0350  0.0720
   19SAPC  H18X 2546   6.213   6.268   8.541  0.3120 -1.0074 -0.5417
   19SAPC  H18Y 2547   6.082   6.392   8.541 -0.5424 -0.3487  0.7970
   19SAPC  H18Z 2548   6.088   6.264   8.407  0.2297  1.2131 -0.1740
   20SAPC     N 2549   6.632   2.565  10.797 -0.9443 -0.5388  0.2747
   20SAPC   C12 2550   6.613   2.617  10.935 -0.2907  0.5139  0.2408
   20SAPC  H12A 2551   6.646   2.719  10.930 -1.5571  1.0434  1.6106
   20SAPC  H12B 2552   6.676   2.555  10.997 -0.2558 -0.1353 -0.4376
   20SAPC   C13 2553   6.772   2.585  10.748 -0.2007  0.9501 -0.0004
   20SAPC  H13A 2554   6.803   2.688  10.747  1.8601  0.3816 -0.4633
   20SAPC  H13B 2555   6.847   2.518  10.788 -1.9152 -1.0584 -0.0013
   20SAPC  H13C 2556   6.766   2.564  10.642 -0.4069 -0.7035  0.3153
   20SAPC   C14 2557   6.593   2.425  10.794 -0.5590  0.5780 -0.7546
   20SAPC  H14A 2558   6.652   2.371  10.867  1.2909  0.4153 -2.2989
   20SAPC  H14B 2559   6.487   2.417  10.817 -0.3485  0.7947  0.3916
   20SAPC  H14C 2560   6.610   2.380  10.698 -0.5563  0.4228 -0.6824
   20SAPC   C15 2561   6.552   2.642  10.699  0.2237 -0.5189 -0.0517
   20SAPC  H15A 2562   6.451   2.651  10.737 -0.2527  0.0575 -1.4271
   20SAPC  H15B 2563   6.591   2.742  10.687 -0.8795 -0.1055 -0.3416
   20SAPC  H15C 2564   6.545   2.592  10.604  2.3563 -2.5261  0.7629
   20SAPC   C11 2565   6.471   2.623  10.994 -0.0994  0.3017  0.0888
   20SAPC  H11A 2566   6.403   2.663  10.915 -2.0249  0.6893  1.8733
   20SAPC  H11B 2567   6.480   2.705  11.068 -0.8145  2.8025 -2.4110
   20SAPC     P 2568   6.283   2.453  11.020  0.1523  0.1909 -0.0155
   20SAPC   O13 2569   6.259   2.329  11.095  0.4950  0.0408 -0.0998
   20SAPC   O14 2570   6.182   2.558  11.046  0.5970  0.4151 -0.0864
   20SAPC   O12 2571   6.430   2.499  11.054 -0.2049  0.1482 -0.9960
   20SAPC   O11 2572   6.291   2.421  10.867  0.0158 -0.1164  0.4861
   20SAPC    C1 2573   6.195   2.334  10.813  0.4804 -0.3132  0.5685
   20SAPC    HA 2574   6.214   2.228  10.839 -0.1189 -0.8014 -0.9100
   20SAPC    HB 2575   6.092   2.361  10.842 -0.1626 -3.5009  1.6346
   20SAPC    C2 2576   6.190   2.359  10.657 -0.2529  0.5735  0.1933
   20SAPC    HS 2577   6.093   2.311  10.630  0.0175  0.1102  0.0271
   20SAPC   O21 2578   6.314   2.322  10.587  0.1328  0.3097  0.0630
   20SAPC   C21 2579   6.341   2.189  10.577 -0.1792  0.2742 -0.3411
   20SAPC   O22 2580   6.264   2.102  10.610 -0.1838 -0.6060  0.2071
   20SAPC   C22 2581   6.485   2.164  10.527 -0.1464 -0.2788  0.1634
   20SAPC   H2R 2582   6.539   2.258  10.550 -1.8906  0.3830  1.7503
   20SAPC   H2S 2583   6.520   2.088  10.600 -0.0770  1.3429  1.8896
   20SAPC    C3 2584   6.177   2.512  10.620 -0.4968  0.0293 -0.3103
   20SAPC    HX 2585   6.267   2.560  10.664 -0.9908  1.2719 -0.6041
   20SAPC    HY 2586   6.085   2.545  10.672 -0.1099  0.2828  0.2159
   20SAPC   O31 2587   6.154   2.543  10.485 -0.3004 -0.1541  0.0563
   20SAPC   C31 2588   6.254   2.592  10.411 -0.0886  0.6912  0.8148
   20SAPC   O32 2589   6.369   2.598  10.440  0.6310 -0.5367 -0.4753
   20SAPC   C32 2590   6.204   2.619  10.271  0.4920 -0.0341 -0.5254
   20SAPC   H2X 2591   6.135   2.706  10.276  0.8091  0.2674 -1.3349
   20SAPC   H2Y 2592   6.155   2.525  10.239 -0.3885  0.5213 -0.8270
   20SAPC   C23 2593   6.487   2.111  10.383  0.1960 -0.5526  0.4886
   20SAPC   H3R 2594   6.418   2.024  10.375  0.5841 -0.7726 -0.7638
   20SAPC   H3S 2595   6.590   2.075  10.361  0.7327  1.9704 -1.7791
   20SAPC   C24 2596   6.450   2.214  10.279  0.4050 -0.8025  0.0871
   20SAPC   H4R 2597   6.373   2.287  10.311  1.0534 -0.1451  0.1643
   20SAPC   H4S 2598   6.415   2.170  10.183 -0.6828  2.3795 -1.0908
   20SAPC   C25 2599   6.569   2.302  10.250  0.2209  0.3329 -0.8381
   20SAPC   H5R 2600   6.573   2.394  10.311 -1.7087  1.3869 -2.1912
   20SAPC   C26 2601   6.653   2.290  10.149 -0.8799 -0.5669 -0.0998
   20SAPC   H6R 2602   6.733   2.365  10.140 -2.1482  1.0276  1.3653
   20SAPC   C27 2603   6.633   2.191  10.033 -0.1818  0.0170 -0.5256
   20SAPC   H7R 2604   6.567   2.106  10.063 -0.8425  0.4530 -0.7212
   20SAPC   H7S 2605   6.734   2.147  10.017 -0.2264 -0.1770 -0.2750
   20SAPC   C28 2606   6.572   2.258   9.914  0.3753  0.0845  0.3522
   20SAPC   H8R 2607   6.463   2.276   9.910  0.7140  2.3476 -0.1461
   20SAPC   C29 2608   6.645   2.288   9.806  0.5425 -0.4311  0.2019
   20SAPC   H9R 2609   6.590   2.341   9.726 -0.2607 -0.2143  0.8874
   20SAPC  C210 2610   6.790   2.262   9.775  0.1353  0.3355  0.1186
   20SAPC  H10R 2611   6.794   2.165   9.722 -1.7678 -1.2094  2.6244
   20SAPC  H10S 2612   6.845   2.240   9.869 -1.4213 -1.0718  0.7472
   20SAPC  C211 2613   6.866   2.372   9.705 -0.1304  0.1934  0.5506
   20SAPC  H11R 2614   6.942   2.427   9.762 -0.2114  0.2791  0.5764
   20SAPC  C212 2615   6.862   2.401   9.572 -0.1024 -0.2761 -0.6155
   20SAPC  H12R 2616   6.927   2.483   9.538 -0.9537  0.4429 -0.5426
   20SAPC  C213 2617   6.777   2.334   9.469  0.1293 -0.4144  0.0371
   20SAPC  H13R 2618   6.700   2.403   9.428  2.1276  1.5611 -0.5585
   20SAPC  H13S 2619   6.703   2.263   9.512 -0.1993  0.4524  0.9421
   20SAPC  C214 2620   6.858   2.263   9.356  0.1108  0.3259 -0.6185
   20SAPC  H14R 2621   6.962   2.235   9.379 -0.0519  1.1114  1.3085
   20SAPC  C215 2622   6.823   2.246   9.231  0.1378  0.1537 -0.0741
   20SAPC  H15R 2623   6.901   2.197   9.171  0.8203  1.1277  0.0122
   20SAPC  C216 2624   6.693   2.281   9.172 -0.0969 -0.4872  0.6193
   20SAPC  H16R 2625   6.677   2.391   9.176 -3.5680 -0.7500 -1.4794
   20SAPC  H16S 2626   6.605   2.252   9.234 -1.4738  1.1903 -0.4701
   20SAPC  C217 2627   6.672   2.221   9.032  0.1491 -0.1425  0.0238
   20SAPC  H17R 2628   6.571   2.251   8.997 -0.2227 -1.6895 -0.2812
   20SAPC  H17S 2629   6.667   2.111   9.045 -0.9033 -0.0092  0.9075
   20SAPC  C218 2630   6.771   2.276   8.931 -0.0446 -0.2463  0.1718
   20SAPC  H18R 2631   6.726   2.239   8.836 -2.0988  2.4213 -0.0095
   20SAPC  H18S 2632   6.871   2.235   8.958  0.5942 -0.1305 -1.7980
   20SAPC  C219 2633   6.784   2.425   8.918 -0.1295  0.2917  0.8651
   20SAPC  H19R 2634   6.817   2.463   9.017 -1.1802  0.7702  1.0508
   20SAPC  H19S 2635   6.682   2.463   8.894 -1.0788 -2.2774  0.5369
   20SAPC  C220 2636   6.882   2.470   8.808 -0.6543 -0.2054 -0.5008
   20SAPC  H20R 2637   6.872   2.402   8.720  1.1305 -3.1188  1.4001
   20SAPC  H20S 2638   6.984   2.463   8.852 -1.2880  0.3083  1.1192
   20SAPC  H20T 2639   6.856   2.574   8.780 -0.8974 -0.2514 -0.4459
   20SAPC   C33 2640   6.317   2.646  10.168 -0.6184 -0.3216  0.0352
   20SAPC   H3X 2641   6.380   2.554  10.172 -0.7730 -0.5189 -1.5577
   20SAPC   H3Y 2642   6.383   2.733  10.189  1.6149 -2.1859  1.3873
   20SAPC   C34 2643   6.277   2.645  10.021 -0.2436  0.2001  0.5269
   20SAPC   H4X 2644   6.213   2.732   9.994 -1.3403 -0.6320  0.4043
   20SAPC   H4Y 2645   6.208   2.560  10.001 -1.7303  1.3569  0.5626
   20SAPC   C35 2646   6.400   2.626   9.930 -0.1538 -0.3515  0.0078
   20SAPC   H5X 2647   6.464   2.537   9.952  1.3763  1.6245  4.9337
   20SAPC   H5Y 2648   6.471   2.708   9.953 -0.5608 -0.5055  2.0539
   20SAPC   C36 2649   6.372   2.643   9.776  0.1171  0.1074 -0.1103
   20SAPC   H6X 2650   6.298   2.722   9.753  0.2549  0.6222  1.1410
   20SAPC   H6Y 2651   6.340   2.539   9.752 -2.1363  0.7562 -0.1688
   20SAPC   C37 2652   6.498   2.680   9.692  0.2306 -0.3898  0.4644
   20SAPC   H7X 2653   6.579   2.615   9.732  1.7069  1.0509 -0.0322
   20SAPC   H7Y 2654   6.535   2.783   9.714  0.4851 -0.7988  2.0135
   20SAPC   C38 2655   6.482   2.667   9.542  0.2058  0.5694 -0.4516
   20SAPC   H8X 2656   6.404   2.740   9.511 -0.7709 -0.0268  0.5334
   20SAPC   H8Y 2657   6.451   2.567   9.506 -0.2312  0.8895 -0.9789
   20SAPC   C39 2658   6.614   2.693   9.460  0.3254 -0.1161  0.0298
   20SAPC   H9X 2659   6.683   2.609   9.482 -0.8130 -1.1714 -0.2797
   20SAPC   H9Y 2660   6.669   2.782   9.495  0.0244  0.8118 -1.7569
   20SAPC  C310 2661   6.584   2.707   9.314  0.0173  0.2681  0.5331
   20SAPC  H10X 2662   6.508   2.788   9.316 -1.1617 -0.7738  3.7411
   20SAPC  H10Y 2663   6.531   2.614   9.285  0.7170 -0.1886  0.7020
   20SAPC  C311 2664   6.696   2.726   9.212 -0.0735  0.0222 -0.7622
   20SAPC  H11X 2665   6.764   2.639   9.227 -0.3449 -0.4224 -1.9837
   20SAPC  H11Y 2666   6.757   2.819   9.222 -1.2400  0.6339  1.3817
   20SAPC  C312 2667   6.647   2.720   9.066 -0.2564 -0.7505  0.1644
   20SAPC  H12X 2668   6.604   2.620   9.043 -1.4359  0.2592 -2.4022
   20SAPC  H12Y 2669   6.729   2.741   8.994  0.1037 -0.4532  0.6586
   20SAPC  C313 2670   6.552   2.839   9.035  0.2032 -0.3340 -0.9190
   20SAPC  H13X 2671   6.616   2.923   9.072 -1.0287  0.4095 -0.4151
   20SAPC  H13Y 2672   6.458   2.849   9.093  0.3760 -1.8768 -0.3356
   20SAPC  C314 2673   6.528   2.858   8.880  0.3585 -0.0865  0.2516
   20SAPC  H14X 2674   6.614   2.819   8.821  0.3069 -1.1907  0.8748
   20SAPC  H14Y 2675   6.521   2.967   8.859  1.0682  0.0577  0.7447
   20SAPC  C315 2676   6.396   2.785   8.846  0.6633 -0.7033 -0.3432
   20SAPC  H15X 2677   6.318   2.840   8.903  1.5067 -1.7183  1.9066
   20SAPC  H15Y 2678   6.397   2.682   8.887 -2.9890 -0.7123  0.0434
   20SAPC  C316 2679   6.357   2.766   8.698  0.6274  0.6863 -0.2101
   20SAPC  H16X 2680   6.270   2.698   8.699  0.0927  1.3434  1.0320
   20SAPC  H16Y 2681   6.432   2.718   8.632  0.8728  1.6625 -0.6674
   20SAPC  C317 2682   6.316   2.895   8.632 -1.2002  0.0559  0.1677
   20SAPC  H17X 2683   6.409   2.949   8.607  0.3498 -1.7001  1.7960
   20SAPC  H17Y 2684   6.247   2.964   8.685  1.8030  3.6490 -0.1952
   20SAPC  C318 2685   6.241   2.876   8.492  1.1889  0.2181 -0.1040
   20SAPC  H18X 2686   6.149   2.813   8.495  0.1793  1.5951 -0.7094
   20SAPC  H18Y 2687   6.313   2.850   8.412  1.8060  0.1685  0.4611
   20SAPC  H18Z 2688   6.190   2.973   8.473 -1.2353 -1.2255 -1.5404
   21SAPC     N 2689   5.627   1.852  11.107  0.6707  0.2619  0.2305
   21SAPC   C12 2690   5.507   1.911  11.169  0.4899 -0.7151 -0.4528
   21SAPC  H12A 2691   5.532   1.921  11.273 -0.3311 -0.1617 -0.2930
   21SAPC  H12B 2692   5.427   1.840  11.156  0.0927 -0.3523 -0.0468
   21SAPC   C13 2693   5.667   1.728  11.180 -0.0064  0.3952 -0.5250
   21SAPC  H13A 2694   5.585   1.658  11.182 -1.1227  1.5999 -1.6686
   21SAPC  H13B 2695   5.761   1.693  11.141  0.9764 -0.2006  2.2195
   21SAPC  H13C 2696   5.677   1.750  11.285 -2.1558 -0.7028 -0.0331
   21SAPC   C14 2697   5.595   1.822  10.967 -0.2369 -0.7553  0.1400
   21SAPC  H14A 2698   5.570   1.909  10.908  1.8005  0.3183  0.7592
   21SAPC  H14B 2699   5.680   1.770  10.926  1.3059  0.9593  1.0146
   21SAPC  H14C 2700   5.505   1.762  10.964 -0.8719  0.1179  1.0443
   21SAPC   C15 2701   5.735   1.948  11.102  0.0976 -0.2128  0.2975
   21SAPC  H15A 2702   5.824   1.916  11.049 -0.4249 -0.0914 -0.6688
   21SAPC  H15B 2703   5.696   2.036  11.052  0.7633 -0.9982 -1.7288
   21SAPC  H15C 2704   5.758   1.973  11.204 -1.9385  1.5013  0.3957
   21SAPC   C11 2705   5.440   2.051  11.118 -0.5691  0.5309 -0.0366
   21SAPC  H11A 2706   5.369   2.093  11.192 -0.8145 -0.9553  0.6249
   21SAPC  H11B 2707   5.387   2.005  11.031  2.5419  1.7947 -2.8166
   21SAPC     P 2708   5.526   2.210  10.937 -0.2570 -0.2323  0.0264
   21SAPC   O13 2709   5.386   2.247  10.904 -0.0154 -0.3875  0.3250
   21SAPC   O14 2710   5.619   2.323  10.928 -0.0672 -0.4668 -0.4002
   21SAPC   O12 2711   5.535   2.154  11.082 -0.0062  0.8227  0.2068
   21SAPC   O11 2712   5.578   2.091  10.849 -0.8679  0.3391 -0.0304
   21SAPC    C1 2713   5.696   2.107  10.766 -0.3433  0.8520  0.1988
   21SAPC    HA 2714   5.771   2.177  10.808 -0.7727  1.1273  0.5144
   21SAPC    HB 2715   5.752   2.011  10.762 -0.0848  1.0214 -0.6249
   21SAPC    C2 2716   5.650   2.146  10.618 -0.5017  0.0421  0.1468
   21SAPC    HS 2717   5.739   2.127  10.553 -0.7259  0.8728 -0.4290
   21SAPC   O21 2718   5.619   2.281  10.612 -0.0519 -0.4852 -0.4787
   21SAPC   C21 2719   5.703   2.380  10.576  0.4845 -0.3978 -0.5667
   21SAPC   O22 2720   5.811   2.360  10.529 -0.4443 -0.5163  0.0420
   21SAPC   C22 2721   5.649   2.519  10.628  0.0976  0.6719 -0.0218
   21SAPC   H2R 2722   5.552   2.534  10.576 -0.1571  0.6702  0.4427
   21SAPC   H2S 2723   5.630   2.502  10.736 -0.4850  0.6516 -0.1221
   21SAPC    C3 2724   5.534   2.053  10.582 -0.1669  0.9252 -0.3704
   21SAPC    HX 2725   5.443   2.078  10.640 -0.2964 -0.3590  0.0118
   21SAPC    HY 2726   5.552   1.945  10.601  2.8338  1.7262  2.0290
   21SAPC   O31 2727   5.513   2.070  10.443  0.4922  0.7480  0.5413
   21SAPC   C31 2728   5.412   2.146  10.399 -0.1220 -0.3183 -0.0482
   21SAPC   O32 2729   5.350   2.222  10.470  0.3507 -0.3992  0.5432
   21SAPC   C32 2730   5.383   2.116  10.254  0.1283  0.9203 -0.5472
   21SAPC   H2X 2731   5.294   2.174  10.221 -1.9020 -0.8063  1.5043
   21SAPC   H2Y 2732   5.360   2.008  10.241  0.6103  0.5223  1.4868
   21SAPC   C23 2733   5.754   2.627  10.629 -0.0717 -0.2356 -0.3983
   21SAPC   H3R 2734   5.838   2.581  10.685  0.3037 -0.6123 -1.2534
   21SAPC   H3S 2735   5.724   2.722  10.678  0.5803  1.3654 -2.9283
   21SAPC   C24 2736   5.801   2.675  10.492  0.4199  0.9843  0.6416
   21SAPC   H4R 2737   5.877   2.604  10.452  0.2339  0.6509  0.8783
   21SAPC   H4S 2738   5.867   2.763  10.507  0.7591  0.7919  0.2867
   21SAPC   C25 2739   5.685   2.715  10.410  0.2875  0.2420  0.7356
   21SAPC   H5R 2740   5.590   2.747  10.455 -0.2838 -0.7734  0.2957
   21SAPC   C26 2741   5.686   2.707  10.271  0.2122  0.2538 -0.2184
   21SAPC   H6R 2742   5.599   2.741  10.213 -0.5784  0.2234  0.9083
   21SAPC   C27 2743   5.813   2.681  10.194  0.3000  0.2601  0.3918
   21SAPC   H7R 2744   5.904   2.700  10.254  1.5031  1.1031 -1.5861
   21SAPC   H7S 2745   5.811   2.746  10.104 -1.5708 -0.5625 -0.2123
   21SAPC   C28 2746   5.815   2.536  10.158 -0.2817  0.9193 -0.5126
   21SAPC   H8R 2747   5.816   2.472  10.248 -1.8782  0.4901 -0.7691
   21SAPC   C29 2748   5.808   2.477  10.032  1.1069  0.0103 -0.2418
   21SAPC   H9R 2749   5.816   2.367  10.031  1.9756  0.0682 -0.0689
   21SAPC  C210 2750   5.805   2.557   9.905 -0.1457 -0.0338 -0.3284
   21SAPC  H10R 2751   5.744   2.649   9.919  0.1855  0.0478  0.6991
   21SAPC  H10S 2752   5.758   2.487   9.833 -1.7451 -0.9154  1.4652
   21SAPC  C211 2753   5.939   2.610   9.865 -0.5574 -0.2790 -0.3093
   21SAPC  H11R 2754   6.007   2.625   9.950 -0.5919 -2.7688  0.2233
   21SAPC  C212 2755   5.975   2.640   9.739  0.0952  0.8584 -0.2143
   21SAPC  H12R 2756   6.075   2.678   9.712 -0.5203  1.6326 -1.4959
   21SAPC  C213 2757   5.883   2.626   9.624 -0.0795 -0.1543  0.5670
   21SAPC  H13R 2758   5.776   2.644   9.647 -0.2783 -0.8289  0.1864
   21SAPC  H13S 2759   5.896   2.521   9.588 -0.9844 -0.4886  1.1743
   21SAPC  C214 2760   5.902   2.721   9.507 -0.2382 -0.0189 -0.2431
   21SAPC  H14R 2761   5.851   2.816   9.528  1.4134  0.6164  1.1710
   21SAPC  C215 2762   5.990   2.702   9.407 -0.0578 -0.3007 -0.4544
   21SAPC  H15R 2763   6.000   2.782   9.332 -0.4793  1.4065  1.2032
   21SAPC  C216 2764   6.078   2.583   9.392  0.3131  0.1518  0.0296
   21SAPC  H16R 2765   6.022   2.492   9.360  1.6981 -0.8032  0.2207
   21SAPC  H16S 2766   6.120   2.556   9.491  0.9061 -2.0821 -0.7623
   21SAPC  C217 2767   6.196   2.607   9.300  0.0617 -0.2198  0.1654
   21SAPC  H17R 2768   6.293   2.568   9.338  0.3639  0.9190  0.5855
   21SAPC  H17S 2769   6.225   2.714   9.293  1.1318 -0.4937  0.1828
   21SAPC  C218 2770   6.173   2.555   9.160 -0.0706  0.0811  0.0235
   21SAPC  H18R 2771   6.164   2.444   9.152 -2.0601  0.2093  0.0366
   21SAPC  H18S 2772   6.262   2.582   9.100 -1.1902  0.3400 -1.6067
   21SAPC  C219 2773   6.058   2.618   9.087  0.9155 -0.1966 -0.1194
   21SAPC  H19R 2774   6.063   2.726   9.113 -0.3541 -0.4880  1.4848
   21SAPC  H19S 2775   5.972   2.572   9.140 -0.1981  1.5289 -0.3748
   21SAPC  C220 2776   6.058   2.593   8.938  0.4563  0.1346 -0.4520
   21SAPC  H20R 2777   5.965   2.622   8.884  0.7896 -0.9895 -1.6775
   21SAPC  H20S 2778   6.064   2.485   8.914  1.0538 -0.2321  1.2056
   21SAPC  H20T 2779   6.133   2.654   8.884  0.6574 -1.1302 -1.6423
   21SAPC   C33 2780   5.501   2.160  10.165  0.0656 -0.7352  0.3168
   21SAPC   H3X 2781   5.595   2.104  10.185  2.1014  1.9790 -1.0458
   21SAPC   H3Y 2782   5.530   2.261  10.201 -0.4261 -0.2167 -0.7112
   21SAPC   C34 2783   5.471   2.160  10.014  0.3557 -0.1756  0.4112
   21SAPC   H4X 2784   5.377   2.218   9.998 -0.2490 -1.0598  0.6526
   21SAPC   H4Y 2785   5.416   2.067   9.988 -1.8483 -0.0413  3.8583
   21SAPC   C35 2786   5.579   2.221   9.925 -0.2593  0.0584  0.7360
   21SAPC   H5X 2787   5.659   2.145   9.915 -0.9577 -0.6345  0.2761
   21SAPC   H5Y 2788   5.633   2.300   9.982  0.8969  0.3026 -0.6456
   21SAPC   C36 2789   5.530   2.282   9.788 -0.7214  0.2021 -0.2433
   21SAPC   H6X 2790   5.526   2.392   9.798 -1.3853  0.4603 -2.8466
   21SAPC   H6Y 2791   5.429   2.250   9.756 -0.9912  0.2616  0.5139
   21SAPC   C37 2792   5.622   2.264   9.668 -0.4053  0.5196  0.0465
   21SAPC   H7X 2793   5.616   2.162   9.624  1.6157 -0.7761  2.5423
   21SAPC   H7Y 2794   5.729   2.269   9.697 -0.9050  1.6987  1.8013
   21SAPC   C38 2795   5.598   2.365   9.550 -0.2886  0.0253 -0.4459
   21SAPC   H8X 2796   5.675   2.443   9.565 -0.2691 -0.2769  1.2997
   21SAPC   H8Y 2797   5.503   2.421   9.565 -0.1221  0.1525  0.1691
   21SAPC   C39 2798   5.603   2.289   9.411 -0.2485  0.0260 -0.2817
   21SAPC   H9X 2799   5.512   2.225   9.414 -1.6717  1.9724 -0.1455
   21SAPC   H9Y 2800   5.696   2.228   9.409  0.2016  0.7075 -1.7381
   21SAPC  C310 2801   5.598   2.384   9.296  0.3966  0.0222 -0.3938
   21SAPC  H10X 2802   5.688   2.448   9.305  2.4949 -2.6795 -0.7418
   21SAPC  H10Y 2803   5.506   2.444   9.279  0.5374 -0.2117 -2.1976
   21SAPC  C311 2804   5.616   2.318   9.162  0.1527 -0.6989  0.4590
   21SAPC  H11X 2805   5.525   2.260   9.136 -0.3233 -0.4628  1.5027
   21SAPC  H11Y 2806   5.697   2.244   9.146  0.6217 -0.1345  0.2065
   21SAPC  C312 2807   5.633   2.439   9.060 -0.3594  0.4527 -0.2926
   21SAPC  H12X 2808   5.718   2.496   9.102 -1.2299 -0.7463  3.5042
   21SAPC  H12Y 2809   5.551   2.514   9.063 -2.1643 -1.4589  1.2432
   21SAPC  C313 2810   5.663   2.395   8.921  0.0931  0.3507  0.2255
   21SAPC  H13X 2811   5.589   2.320   8.887  1.0412 -1.1003  1.2399
   21SAPC  H13Y 2812   5.760   2.342   8.914  0.0630  0.0746  1.5975
   21SAPC  C314 2813   5.657   2.517   8.830 -0.2880  0.7595  0.0444
   21SAPC  H14X 2814   5.725   2.599   8.864 -2.1441  2.0467  0.7955
   21SAPC  H14Y 2815   5.554   2.557   8.833 -0.7907 -0.5115  0.3932
   21SAPC  C315 2816   5.681   2.471   8.687 -0.4010  0.0989 -0.3221
   21SAPC  H15X 2817   5.717   2.367   8.695 -0.7307  0.0453  0.7355
   21SAPC  H15Y 2818   5.751   2.530   8.624 -2.2711 -0.0239 -2.6302
   21SAPC  C316 2819   5.554   2.469   8.597 -0.2592  0.6618 -0.3935
   21SAPC  H16X 2820   5.516   2.567   8.563 -3.2963 -0.0526  0.5873
   21SAPC  H16Y 2821   5.481   2.429   8.671 -0.5462 -1.0730 -1.5483
   21SAPC  C317 2822   5.579   2.381   8.472  0.3376  0.1485 -0.3745
   21SAPC  H17X 2823   5.629   2.290   8.510 -1.7352 -0.9095 -0.0602
   21SAPC  H17Y 2824   5.658   2.417   8.402 -0.3147  0.7597 -0.8084
   21SAPC  C318 2825   5.456   2.334   8.397 -0.2795  0.4098 -0.1376
   21SAPC  H18X 2826   5.391   2.266   8.456  2.0646 -1.2427  0.7106
   21SAPC  H18Y 2827   5.479   2.268   8.310  0.8773 -3.3999  2.7652
   21SAPC  H18Z 2828   5.392   2.421   8.370 -0.1733  0.5119 -0.0621
   22SAPC     N 2829   4.633   5.822  10.851 -0.9185 -0.3575 -0.1759
   22SAPC   C12 2830   4.712   5.699  10.900  0.3267 -0.9495 -0.8093
   22SAPC  H12A 2831   4.676   5.673  10.998 -0.3033  0.3569 -0.6744
   22SAPC  H12B 2832   4.816   5.721  10.914  0.3257  0.2483 -2.3666
   22SAPC   C13 2833   4.637   5.928  10.956 -0.0377 -0.2343 -0.1441
   22SAPC  H13A 2834   4.598   5.896  11.052 -0.2868  4.0304  1.4194
   22SAPC  H13B 2835   4.733   5.972  10.979 -1.6817  3.4678  0.3754
   22SAPC  H13C 2836   4.584   6.018  10.929  1.1745 -0.1347 -2.4728
   22SAPC   C14 2837   4.700   5.879  10.727 -0.0924  0.7665  0.2472
   22SAPC  H14A 2838   4.807   5.888  10.736 -0.1775  1.2339  0.8544
   22SAPC  H14B 2839   4.696   5.798  10.655 -0.3717 -1.0963  2.2691
   22SAPC  H14C 2840   4.648   5.967  10.691  1.1674  1.8333  0.9584
   22SAPC   C15 2841   4.490   5.788  10.822  0.0770 -0.0402 -0.8551
   22SAPC  H15A 2842   4.451   5.732  10.906  0.4733 -2.4297 -2.1848
   22SAPC  H15B 2843   4.433   5.878  10.804  1.2874  0.9060 -0.0955
   22SAPC  H15C 2844   4.477   5.730  10.732  3.0153  0.9123 -2.0033
   22SAPC   C11 2845   4.691   5.574  10.817 -0.3315 -0.1259  2.0808
   22SAPC  H11A 2846   4.583   5.564  10.794 -0.1540 -0.5301  1.3844
   22SAPC  H11B 2847   4.714   5.479  10.870 -1.1020 -2.1216 -0.9407
   22SAPC     P 2848   4.919   5.552  10.686 -0.1968 -0.2227  0.0342
   22SAPC   O13 2849   5.001   5.677  10.684  0.3926  0.3780 -0.2234
   22SAPC   O14 2850   4.950   5.463  10.800 -0.5072 -0.0697  0.0770
   22SAPC   O12 2851   4.771   5.578  10.692 -0.0239 -0.3615  0.1352
   22SAPC   O11 2852   4.941   5.470  10.549 -0.0206 -0.0657 -0.2043
   22SAPC    C1 2853   4.841   5.454  10.451  0.0346 -0.2916  0.6553
   22SAPC    HA 2854   4.877   5.368  10.390  3.1330  0.8731  0.6760
   22SAPC    HB 2855   4.743   5.413  10.483 -0.3592 -1.7080 -2.0822
   22SAPC    C2 2856   4.822   5.567  10.345 -0.2779  0.3317 -0.2059
   22SAPC    HS 2857   4.744   5.529  10.276 -1.5058 -1.2088  1.9173
   22SAPC   O21 2858   4.947   5.597  10.272  0.1166  0.0749  0.0238
   22SAPC   C21 2859   4.976   5.507  10.172  0.6640 -0.5228 -0.3924
   22SAPC   O22 2860   4.901   5.415  10.138  0.9351 -0.7349 -0.1063
   22SAPC   C22 2861   5.096   5.561  10.095  0.0938 -0.1340  0.2692
   22SAPC   H2R 2862   5.085   5.671  10.077  2.2738  0.1282  0.3316
   22SAPC   H2S 2863   5.176   5.536  10.167 -0.3760  1.3998  1.3988
   22SAPC    C3 2864   4.774   5.696  10.410 -0.1109  0.0483  0.2602
   22SAPC    HX 2865   4.853   5.736  10.478 -0.9188  0.1158  1.1639
   22SAPC    HY 2866   4.684   5.673  10.470  0.1369 -1.3429  0.1266
   22SAPC   O31 2867   4.730   5.787  10.308  0.1355 -0.5945  0.2039
   22SAPC   C31 2868   4.790   5.899  10.300  0.3063 -0.1130 -0.0752
   22SAPC   O32 2869   4.872   5.940  10.380 -0.0673 -0.6814  0.5290
   22SAPC   C32 2870   4.736   5.977  10.180  0.5013 -0.3232 -0.3173
   22SAPC   H2X 2871   4.740   6.082  10.216  1.4717 -0.2740 -0.5305
   22SAPC   H2Y 2872   4.634   5.950  10.148  0.8212 -2.8353  0.6081
   22SAPC   C23 2873   5.128   5.492   9.963 -0.1593  0.1227  0.0495
   22SAPC   H3R 2874   5.115   5.383   9.975  0.2813 -0.2320 -2.3149
   22SAPC   H3S 2875   5.235   5.513   9.942 -0.2799  1.9970  1.0517
   22SAPC   C24 2876   5.042   5.528   9.844  0.0143  0.1344 -0.4545
   22SAPC   H4R 2877   5.064   5.636   9.835 -0.7250  0.5424  1.9359
   22SAPC   H4S 2878   4.934   5.518   9.867 -0.0376  2.2679  0.4317
   22SAPC   C25 2879   5.083   5.449   9.724 -0.0252  0.1001 -0.0217
   22SAPC   H5R 2880   5.109   5.345   9.748  0.9138  0.3892  0.2491
   22SAPC   C26 2881   5.092   5.487   9.599 -0.1498 -0.9247  1.0083
   22SAPC   H6R 2882   5.117   5.420   9.515 -0.8773  0.8778 -0.7332
   22SAPC   C27 2883   5.074   5.633   9.553 -0.9410 -0.2570  0.4513
   22SAPC   H7R 2884   5.098   5.705   9.633  1.7376 -2.0753  1.4334
   22SAPC   H7S 2885   4.969   5.642   9.516  0.1492  0.3718 -2.8788
   22SAPC   C28 2886   5.172   5.662   9.438  0.2042  0.7502 -0.1108
   22SAPC   H8R 2887   5.277   5.643   9.463 -0.2850 -0.5408  1.1362
   22SAPC   C29 2888   5.131   5.707   9.320 -0.0310 -0.0017 -0.1206
   22SAPC   H9R 2889   5.200   5.717   9.235  1.0799  2.9263  0.9804
   22SAPC  C210 2890   4.988   5.742   9.280 -0.1309 -0.1077  0.6038
   22SAPC  H10R 2891   4.918   5.765   9.364 -1.5831  1.6389 -1.0027
   22SAPC  H10S 2892   4.947   5.649   9.236  0.5505 -1.2223  2.2139
   22SAPC  C211 2893   4.992   5.860   9.186  0.8141 -0.2869  0.1385
   22SAPC  H11R 2894   4.975   5.955   9.238  0.6953 -0.1905 -0.0763
   22SAPC  C212 2895   5.036   5.855   9.056  0.4539 -0.0867 -0.3656
   22SAPC  H12R 2896   5.026   5.941   8.988 -1.8396  0.3413  0.4408
   22SAPC  C213 2897   5.074   5.728   8.981  0.1788  0.2332  0.0610
   22SAPC  H13R 2898   5.010   5.721   8.891  0.7495  0.7848 -0.3918
   22SAPC  H13S 2899   5.037   5.640   9.037 -0.8962 -1.0975 -2.5724
   22SAPC  C214 2900   5.218   5.723   8.934  0.3873 -0.5589  0.2143
   22SAPC  H14R 2901   5.290   5.727   9.018  0.9552 -0.3394 -0.2748
   22SAPC  C215 2902   5.269   5.706   8.808  0.3915  0.1332  0.6444
   22SAPC  H15R 2903   5.378   5.694   8.808  0.3853 -0.0578 -0.4192
   22SAPC  C216 2904   5.194   5.692   8.672 -0.3392 -0.3533  0.9090
   22SAPC  H16R 2905   5.087   5.675   8.697  0.0832 -0.6941  2.6289
   22SAPC  H16S 2906   5.233   5.598   8.629 -1.1015 -0.5293  0.5880
   22SAPC  C217 2907   5.225   5.818   8.585 -0.0454  0.4879  0.5864
   22SAPC  H17R 2908   5.199   5.807   8.478  0.7940  0.5183  0.3760
   22SAPC  H17S 2909   5.333   5.846   8.579 -0.4616  2.1530  0.2559
   22SAPC  C218 2910   5.156   5.946   8.635  0.5995  0.3818 -0.5572
   22SAPC  H18R 2911   5.195   5.974   8.736 -4.0201  0.0955  1.5443
   22SAPC  H18S 2912   5.056   5.903   8.655  0.1243  1.6933 -0.0378
   22SAPC  C219 2913   5.152   6.058   8.535 -0.3925  0.1333 -0.0258
   22SAPC  H19R 2914   5.124   6.019   8.434 -0.3087  0.5782 -0.2217
   22SAPC  H19S 2915   5.252   6.103   8.524  0.1350 -0.9634  0.1181
   22SAPC  C220 2916   5.060   6.175   8.576 -0.4346 -0.8828 -0.4791
   22SAPC  H20R 2917   5.100   6.211   8.673  1.6892 -1.9559 -0.8950
   22SAPC  H20S 2918   4.956   6.142   8.594 -0.6930  0.2992  0.2742
   22SAPC  H20T 2919   5.061   6.264   8.509 -0.9883 -2.1443 -2.2489
   22SAPC   C33 2920   4.837   5.952  10.064  0.4126  0.1423 -0.1391
   22SAPC   H3X 2921   4.936   5.914  10.099  0.2722  0.7654  0.9901
   22SAPC   H3Y 2922   4.852   6.051  10.016  0.3436 -0.6699 -1.9065
   22SAPC   C34 2923   4.775   5.853   9.962  0.4163 -0.4895  0.6832
   22SAPC   H4X 2924   4.682   5.898   9.919  0.0882 -1.8431 -0.0688
   22SAPC   H4Y 2925   4.741   5.753   9.998  1.8091 -1.0045  0.6081
   22SAPC   C35 2926   4.874   5.836   9.845 -0.6209  0.5299 -0.2720
   22SAPC   H5X 2927   4.859   5.739   9.793 -2.4958  1.3897 -1.4778
   22SAPC   H5Y 2928   4.976   5.830   9.887  0.0106 -2.3837 -1.9341
   22SAPC   C36 2929   4.861   5.953   9.740  0.4246 -0.6210 -0.6030
   22SAPC   H6X 2930   4.942   5.954   9.664  1.5739  0.5268  0.5806
   22SAPC   H6Y 2931   4.862   6.053   9.789  1.2223 -0.5250 -0.8051
   22SAPC   C37 2932   4.739   5.930   9.656 -0.6692  0.1574 -0.0939
   22SAPC   H7X 2933   4.649   5.959   9.715 -0.3836  3.2511 -1.0561
   22SAPC   H7Y 2934   4.731   5.823   9.625 -0.9056 -0.0822  0.7424
   22SAPC   C38 2935   4.739   6.013   9.524  0.1453  0.3716 -0.6978
   22SAPC   H8X 2936   4.818   5.979   9.454  1.4328  2.9012 -0.6028
   22SAPC   H8Y 2937   4.771   6.116   9.551  1.9314 -0.2011 -0.4823
   22SAPC   C39 2938   4.602   6.009   9.445 -0.1228 -0.3913 -0.6212
   22SAPC   H9X 2939   4.524   6.046   9.515  1.7314 -1.8609  2.4582
   22SAPC   H9Y 2940   4.584   5.901   9.427 -1.0068 -0.4275  0.3928
   22SAPC  C310 2941   4.602   6.094   9.321 -0.1899  0.3120 -0.2387
   22SAPC  H10X 2942   4.703   6.092   9.274  2.0180  2.8777  3.7754
   22SAPC  H10Y 2943   4.591   6.204   9.338 -0.5211  0.4462 -1.2515
   22SAPC  C311 2944   4.498   6.052   9.217 -0.2922  0.1957 -0.4338
   22SAPC  H11X 2945   4.491   6.118   9.128 -1.5992 -0.5847 -0.9285
   22SAPC  H11Y 2946   4.403   6.027   9.267 -0.0495 -0.8520 -0.4774
   22SAPC  C312 2947   4.553   5.924   9.141  0.7173 -0.1983  0.9081
   22SAPC  H12X 2948   4.545   5.845   9.219 -0.4167  0.1046  1.1215
   22SAPC  H12Y 2949   4.660   5.933   9.113  0.5213 -1.2448 -0.2561
   22SAPC  C313 2950   4.466   5.869   9.024  0.0804  0.2321  0.5884
   22SAPC  H13X 2951   4.439   5.949   8.952 -0.8804 -1.1118 -0.6079
   22SAPC  H13Y 2952   4.370   5.830   9.066 -0.5887  1.9646  0.7676
   22SAPC  C314 2953   4.518   5.757   8.935  0.4265 -0.3000  0.0406
   22SAPC  H14X 2954   4.438   5.705   8.878  1.6606 -1.8247 -0.3550
   22SAPC  H14Y 2955   4.576   5.688   8.999  0.3146  0.4449  0.9719
   22SAPC  C315 2956   4.624   5.796   8.832 -0.0049 -0.0503  0.6318
   22SAPC  H15X 2957   4.707   5.837   8.894  1.1855 -0.6866 -0.5026
   22SAPC  H15Y 2958   4.601   5.876   8.759 -0.9312  0.5760  1.5734
   22SAPC  C316 2959   4.688   5.676   8.752  0.5486 -0.0973 -0.1904
   22SAPC  H16X 2960   4.759   5.717   8.676 -0.7633  1.7444 -0.4987
   22SAPC  H16Y 2961   4.613   5.622   8.692 -0.8769  3.5800 -2.0596
   22SAPC  C317 2962   4.759   5.582   8.850 -0.1861 -0.2849 -0.2621
   22SAPC  H17X 2963   4.693   5.539   8.928  0.2505 -0.2175  0.1450
   22SAPC  H17Y 2964   4.843   5.634   8.901 -0.5276  1.5164 -1.4449
   22SAPC  C318 2965   4.816   5.469   8.767 -0.1306 -0.0516  0.5384
   22SAPC  H18X 2966   4.874   5.396   8.828  0.8580 -0.7718 -1.1822
   22SAPC  H18Y 2967   4.898   5.500   8.698  0.5771 -1.5588  0.6431
   22SAPC  H18Z 2968   4.735   5.412   8.718  0.0835 -0.2228  0.3758
   23SAPC     N 2969   6.511   1.478  11.089 -0.2515 -0.0618 -0.6264
   23SAPC   C12 2970   6.650   1.478  11.024  0.1297  0.4182  0.5847
   23SAPC  H12A 2971   6.698   1.390  11.066 -1.9971 -0.4566  1.3560
   23SAPC  H12B 2972   6.697   1.570  11.056  1.4279  0.3549 -1.0200
   23SAPC   C13 2973   6.413   1.571  11.034  0.8564  0.1109 -0.6600
   23SAPC  H13A 2974   6.408   1.557  10.927 -0.4914 -0.6051 -0.5298
   23SAPC  H13B 2975   6.316   1.562  11.080  1.6015 -0.6932  0.8166
   23SAPC  H13C 2976   6.448   1.670  11.057  0.9385 -0.4820  2.0715
   23SAPC   C14 2977   6.456   1.339  11.069  0.1819  0.4259  0.4973
   23SAPC  H14A 2978   6.476   1.313  10.966  1.4346  0.0544  0.8090
   23SAPC  H14B 2979   6.491   1.264  11.139 -0.3280 -1.4338 -1.1288
   23SAPC  H14C 2980   6.349   1.344  11.078  0.3030  2.5197  1.2978
   23SAPC   C15 2981   6.522   1.503  11.234 -0.5122 -0.2601 -0.2934
   23SAPC  H15A 2982   6.590   1.432  11.279 -0.6828  0.4647  1.1894
   23SAPC  H15B 2983   6.566   1.600  11.257 -1.6543  0.6363 -1.7226
   23SAPC  H15C 2984   6.427   1.507  11.285 -0.0361  0.8281  0.5639
   23SAPC   C11 2985   6.654   1.482  10.868 -0.2407  0.5766 -0.1494
   23SAPC  H11A 2986   6.613   1.386  10.829 -0.0201  0.7282 -0.7765
   23SAPC  H11B 2987   6.761   1.478  10.836  0.0321  0.4338  0.7504
   23SAPC     P 2988   6.660   1.740  10.816 -0.2241 -0.1929  0.1047
   23SAPC   O13 2989   6.573   1.851  10.765 -0.0372  0.4285  0.4572
   23SAPC   O14 2990   6.707   1.757  10.955  0.0658 -0.3210  0.3723
   23SAPC   O12 2991   6.589   1.595  10.810 -0.2360  0.1735 -0.2470
   23SAPC   O11 2992   6.789   1.721  10.719  0.0140 -0.1942 -0.7506
   23SAPC    C1 2993   6.765   1.673  10.593 -0.3884  0.0841  0.0969
   23SAPC    HA 2994   6.852   1.619  10.550 -1.8397 -0.2813 -2.5484
   23SAPC    HB 2995   6.680   1.602  10.589  0.4422 -0.8507 -2.0243
   23SAPC    C2 2996   6.752   1.790  10.491 -0.1045 -0.4848 -0.2882
   23SAPC    HS 2997   6.655   1.839  10.514 -0.4744 -1.5447  0.4729
   23SAPC   O21 2998   6.745   1.725  10.367 -0.6804  0.3239  0.6856
   23SAPC   C21 2999   6.624   1.682  10.338 -0.3906  0.2517  0.0120
   23SAPC   O22 3000   6.527   1.669  10.410 -0.2501 -0.4117  0.4242
   23SAPC   C22 3001   6.633   1.624  10.195 -0.0911 -0.2754 -1.0000
   23SAPC   H2R 3002   6.736   1.585  10.180  0.5664  0.3027  1.4992
   23SAPC   H2S 3003   6.577   1.528  10.186 -2.0892  0.7789 -0.4310
   23SAPC    C3 3004   6.873   1.887  10.513  0.6343 -0.1769  0.0921
   23SAPC    HX 3005   6.967   1.828  10.524  0.4001 -0.1743  2.6699
   23SAPC    HY 3006   6.864   1.936  10.612 -2.7381  1.8704 -1.0657
   23SAPC   O31 3007   6.875   2.001  10.417 -0.1838 -0.3054  0.3615
   23SAPC   C31 3008   6.998   2.042  10.387  0.4776 -0.0135  0.0735
   23SAPC   O32 3009   7.095   1.990  10.433 -0.7219 -0.3072  0.3187
   23SAPC   C32 3010   6.984   2.166  10.294  0.1827  0.1008  0.4265
   23SAPC   H2X 3011   6.970   2.261  10.351 -2.3778  0.2336 -0.2874
   23SAPC   H2Y 3012   6.898   2.165  10.223 -0.0331  5.3694  0.2766
   23SAPC   C23 3013   6.577   1.728  10.087  0.0315 -0.5449  0.7065
   23SAPC   H3R 3014   6.474   1.764  10.107 -0.7574 -1.5884 -1.1599
   23SAPC   H3S 3015   6.578   1.669   9.993 -0.7282 -2.2640  1.7313
   23SAPC   C24 3016   6.669   1.851  10.076 -0.4113  0.5381 -0.9097
   23SAPC   H4R 3017   6.666   1.911  10.170  1.6004  0.3415 -0.6861
   23SAPC   H4S 3018   6.639   1.919   9.993  1.5145  1.0113 -1.2586
   23SAPC   C25 3019   6.811   1.804  10.045  0.1704  0.4437 -0.2523
   23SAPC   H5R 3020   6.874   1.797  10.135 -0.3376 -0.1488  0.0674
   23SAPC   C26 3021   6.860   1.772   9.927  0.2114 -0.1932  0.3428
   23SAPC   H6R 3022   6.963   1.735   9.915 -0.4749 -1.8384 -0.8846
   23SAPC   C27 3023   6.783   1.781   9.797 -0.2775 -0.2610  0.2843
   23SAPC   H7R 3024   6.677   1.814   9.806  0.1632  1.0986  0.7742
   23SAPC   H7S 3025   6.785   1.686   9.740 -0.6550  0.5538 -1.1489
   23SAPC   C28 3026   6.860   1.874   9.709 -0.1594 -0.8417 -0.4167
   23SAPC   H8R 3027   6.897   1.958   9.769 -2.7405 -1.3622  2.0918
   23SAPC   C29 3028   6.899   1.880   9.580 -0.4395  0.0403 -0.2595
   23SAPC   H9R 3029   6.963   1.960   9.541  1.1965 -0.9639  0.2633
   23SAPC  C210 3030   6.875   1.775   9.484  0.1233 -0.6611 -0.4103
   23SAPC  H10R 3031   6.851   1.682   9.540 -0.7734 -0.2820 -0.1500
   23SAPC  H10S 3032   6.974   1.758   9.437  1.5028 -0.6377  2.3418
   23SAPC  C211 3033   6.761   1.823   9.396 -0.0775 -0.2221  0.2577
   23SAPC  H11R 3034   6.677   1.877   9.443 -2.7546 -1.6594 -2.5649
   23SAPC  C212 3035   6.762   1.810   9.261 -0.3817 -0.1268  0.1756
   23SAPC  H12R 3036   6.678   1.847   9.201  1.2830 -0.3724 -2.4793
   23SAPC  C213 3037   6.858   1.739   9.173  0.3298 -0.1223 -0.3161
   23SAPC  H13R 3038   6.805   1.659   9.117 -2.3126  0.6745  0.9242
   23SAPC  H13S 3039   6.940   1.692   9.232 -0.3904  2.1329  2.7500
   23SAPC  C214 3040   6.933   1.839   9.087  0.0037 -0.0952  0.0959
   23SAPC  H14R 3041   6.978   1.920   9.146 -1.1840  1.2820 -0.8221
   23SAPC  C215 3042   6.944   1.831   8.956 -0.5498 -0.4531 -0.7115
   23SAPC  H15R 3043   6.996   1.917   8.909 -0.3763  0.9234  1.8198
   23SAPC  C216 3044   6.880   1.732   8.860  0.3987  0.0968 -0.7589
   23SAPC  H16R 3045   6.847   1.642   8.916 -0.2077  1.4914  1.2400
   23SAPC  H16S 3046   6.959   1.696   8.790  0.2928  0.9667 -1.3497
   23SAPC  C217 3047   6.772   1.801   8.763  0.0833  0.2688 -0.5493
   23SAPC  H17R 3048   6.730   1.715   8.707 -0.1814 -0.0178  0.0779
   23SAPC  H17S 3049   6.824   1.870   8.693  1.3773 -1.7703 -1.7119
   23SAPC  C218 3050   6.663   1.875   8.843  0.5461 -0.0727 -0.2337
   23SAPC  H18R 3051   6.596   1.918   8.765  0.5718 -1.5425 -1.0911
   23SAPC  H18S 3052   6.710   1.956   8.903 -0.3104  0.4997 -0.3216
   23SAPC  C219 3053   6.579   1.787   8.943  0.4593 -0.6738  0.1125
   23SAPC  H19R 3054   6.520   1.864   8.997  1.9412  2.3283 -2.2286
   23SAPC  H19S 3055   6.645   1.741   9.019  1.2700  0.6827  0.2526
   23SAPC  C220 3056   6.487   1.683   8.893  0.3441 -0.1600 -0.1809
   23SAPC  H20R 3057   6.546   1.597   8.855  1.2644  0.7176 -0.7778
   23SAPC  H20S 3058   6.426   1.729   8.811  1.1741  1.6425  0.1609
   23SAPC  H20T 3059   6.425   1.650   8.979  1.3503  0.7265  0.9254
   23SAPC   C33 3060   7.100   2.194  10.204 -0.2662  0.3412 -0.0419
   23SAPC   H3X 3061   7.200   2.197  10.253 -0.8885  6.8142  1.8135
   23SAPC   H3Y 3062   7.097   2.302  10.178 -0.5737  0.3062 -0.1560
   23SAPC   C34 3063   7.109   2.109  10.067 -0.4197  0.3363  1.0492
   23SAPC   H4X 3064   7.017   2.138  10.011 -0.9292 -1.1378  1.0808
   23SAPC   H4Y 3065   7.117   1.999  10.085  0.6382 -0.1757 -2.0653
   23SAPC   C35 3066   7.232   2.135   9.977  1.2989 -0.0001 -0.2355
   23SAPC   H5X 3067   7.328   2.139  10.034  1.4503 -2.2126 -0.2443
   23SAPC   H5Y 3068   7.212   2.238   9.941 -0.3582  0.0640  0.7924
   23SAPC   C36 3069   7.226   2.037   9.865 -0.1392 -0.0363  0.0599
   23SAPC   H6X 3070   7.122   2.034   9.827 -0.0209 -3.4918 -0.3250
   23SAPC   H6Y 3071   7.255   1.938   9.907  0.1766  1.5662  4.0290
   23SAPC   C37 3072   7.330   2.075   9.758  0.0053  0.5953  0.0929
   23SAPC   H7X 3073   7.430   2.061   9.804  0.6134  1.4402 -0.9490
   23SAPC   H7Y 3074   7.310   2.177   9.720 -0.0573  0.4438 -0.2841
   23SAPC   C38 3075   7.327   1.993   9.628 -0.2999 -0.4592 -0.7186
   23SAPC   H8X 3076   7.221   1.961   9.623 -0.3210 -0.7970  1.1601
   23SAPC   H8Y 3077   7.378   1.896   9.646  1.9982  1.0351  1.5274
   23SAPC   C39 3078   7.347   2.074   9.497 -0.2583  0.4066 -0.1360
   23SAPC   H9X 3079   7.456   2.094   9.483 -0.4266  0.6012 -1.2711
   23SAPC   H9Y 3080   7.311   2.179   9.504 -1.9560 -0.0213 -1.7736
   23SAPC  C310 3081   7.316   1.993   9.364 -0.5696  0.2575 -1.0586
   23SAPC  H10X 3082   7.209   1.963   9.365  0.1123 -2.4600 -2.1982
   23SAPC  H10Y 3083   7.377   1.902   9.378 -2.5085 -0.7746  1.4296
   23SAPC  C311 3084   7.355   2.079   9.250 -0.1606  0.0570 -0.0357
   23SAPC  H11X 3085   7.463   2.100   9.255 -0.4445  1.9950 -1.0837
   23SAPC  H11Y 3086   7.315   2.182   9.262 -1.1751 -0.3850  0.5054
   23SAPC  C312 3087   7.314   2.006   9.123 -0.8605  0.1240  0.4497
   23SAPC  H12X 3088   7.207   1.977   9.114 -0.4071 -2.1779  1.6766
   23SAPC  H12Y 3089   7.373   1.913   9.109 -0.0111  0.6526  0.4331
   23SAPC  C313 3090   7.342   2.087   8.998 -0.3406 -0.6217  0.1924
   23SAPC  H13X 3091   7.341   2.022   8.907 -0.9550  2.3184 -2.0450
   23SAPC  H13Y 3092   7.447   2.118   9.013 -0.1997 -0.9335 -0.1101
   23SAPC  C314 3093   7.261   2.218   8.960  0.3108 -0.0589  0.1084
   23SAPC  H14X 3094   7.261   2.285   9.049 -0.7747 -0.2232  0.2508
   23SAPC  H14Y 3095   7.156   2.185   8.943  0.8467  0.0789 -5.2587
   23SAPC  C315 3096   7.332   2.273   8.832  0.1770  0.1489 -0.5833
   23SAPC  H15X 3097   7.328   2.208   8.742  1.5463  0.3322 -0.7979
   23SAPC  H15Y 3098   7.437   2.296   8.861  1.0127 -2.4630 -1.3191
   23SAPC  C316 3099   7.271   2.400   8.788  1.0095  0.2950 -0.0075
   23SAPC  H16X 3100   7.266   2.477   8.869 -0.8788  1.2698 -0.9722
   23SAPC  H16Y 3101   7.168   2.373   8.755  0.8284  1.1281 -0.1485
   23SAPC  C317 3102   7.350   2.473   8.674  0.0280  0.5335  0.1923
   23SAPC  H17X 3103   7.366   2.389   8.604 -3.4744 -1.0795  1.0495
   23SAPC  H17Y 3104   7.450   2.505   8.710  0.5921 -0.0922 -0.7815
   23SAPC  C318 3105   7.282   2.584   8.600 -0.0603  0.4088  0.0913
   23SAPC  H18X 3106   7.327   2.626   8.508 -2.6789 -2.8130 -2.9239
   23SAPC  H18Y 3107   7.283   2.676   8.663 -1.8122  0.1614  0.5320
   23SAPC  H18Z 3108   7.178   2.561   8.567 -0.1201  0.7153  0.0631
   24SAPC     N 3109   2.867   6.047  10.825 -0.7137 -0.2350  0.3104
   24SAPC   C12 3110   2.731   5.976  10.837  0.6201  0.6202 -0.1479
   24SAPC  H12A 3111   2.729   5.886  10.777 -0.4427  0.4372  0.1420
   24SAPC  H12B 3112   2.663   6.044  10.789  1.8041  1.9190 -0.0448
   24SAPC   C13 3113   2.864   6.170  10.912 -0.0575  0.1964  0.3264
   24SAPC  H13A 3114   2.784   6.239  10.888 -2.0128 -1.8249  0.7394
   24SAPC  H13B 3115   2.837   6.145  11.013  1.7667  1.5853  1.2301
   24SAPC  H13C 3116   2.951   6.235  10.907 -0.8939  1.3290  0.0109
   24SAPC   C14 3117   2.983   5.957  10.865 -0.2386 -0.3554  0.4747
   24SAPC  H14A 3118   2.966   5.860  10.820 -1.2616  1.6165 -3.9478
   24SAPC  H14B 3119   3.072   5.997  10.818 -0.7145  2.9249  2.0576
   24SAPC  H14C 3120   2.996   5.949  10.972  2.2915  1.9562  0.4531
   24SAPC   C15 3121   2.880   6.093  10.679  0.1382 -0.2758  0.0834
   24SAPC  H15A 3122   2.779   6.113  10.646 -0.4036  0.5665  2.0905
   24SAPC  H15B 3123   2.943   6.181  10.668 -1.5701  0.9000 -0.7064
   24SAPC  H15C 3124   2.917   6.005  10.627 -2.8026 -0.9634 -1.0153
   24SAPC   C11 3125   2.683   5.923  10.976 -0.1304  0.4608  0.2670
   24SAPC  H11A 3126   2.756   5.851  11.019 -1.7789 -1.3260  0.2008
   24SAPC  H11B 3127   2.591   5.866  10.950 -0.2792  0.7329  0.1910
   24SAPC     P 3128   2.526   6.114  11.070 -0.6413  0.3410  0.0244
   24SAPC   O13 3129   2.434   6.051  11.171 -0.0749 -0.4484 -0.2554
   24SAPC   O14 3130   2.565   6.255  11.091 -0.3359  0.0969  0.5365
   24SAPC   O12 3131   2.663   6.024  11.073 -0.2389  0.2852 -0.3028
   24SAPC   O11 3132   2.473   6.097  10.924 -0.1952  0.2000 -0.6905
   24SAPC    C1 3133   2.355   6.135  10.860  0.5131 -0.2714  0.4791
   24SAPC    HA 3134   2.299   6.043  10.835 -0.1076  0.1341  0.3676
   24SAPC    HB 3135   2.291   6.201  10.921  0.2776  1.0056 -1.0809
   24SAPC    C2 3136   2.390   6.207  10.729 -0.3126 -0.1805  0.5767
   24SAPC    HS 3137   2.294   6.238  10.683  0.4463  0.7207 -0.4351
   24SAPC   O21 3138   2.471   6.118  10.651  0.2288  0.1553  0.3675
   24SAPC   C21 3139   2.392   6.018  10.592  0.0291 -0.4316 -0.6582
   24SAPC   O22 3140   2.273   6.009  10.587 -0.0981  0.5744  0.3584
   24SAPC   C22 3141   2.483   5.917  10.531 -0.4184 -0.4405  0.9255
   24SAPC   H2R 3142   2.529   5.850  10.606  1.8650  0.3381  0.3048
   24SAPC   H2S 3143   2.414   5.854  10.472  0.0759 -0.8027  0.7266
   24SAPC    C3 3144   2.469   6.334  10.758  0.2301  0.1582  0.0201
   24SAPC    HX 3145   2.572   6.312  10.792  0.4478 -0.7907 -1.2177
   24SAPC    HY 3146   2.414   6.386  10.840  2.0171  1.9080  0.1893
   24SAPC   O31 3147   2.465   6.418  10.637 -0.6055 -0.1721  0.2338
   24SAPC   C31 3148   2.564   6.416  10.552  0.4264  0.9479  0.2058
   24SAPC   O32 3149   2.652   6.333  10.540 -0.1974 -0.4745 -0.1789
   24SAPC   C32 3150   2.534   6.529  10.456  0.3974  0.3207  0.3074
   24SAPC   H2X 3151   2.518   6.617  10.522 -0.7571 -0.9649  1.8441
   24SAPC   H2Y 3152   2.433   6.511  10.413 -0.3382  3.2009  0.6062
   24SAPC   C23 3153   2.598   5.969  10.448 -0.5700 -0.0329  0.5141
   24SAPC   H3R 3154   2.692   5.970  10.508 -0.0599 -0.3711 -0.2576
   24SAPC   H3S 3155   2.583   6.072  10.408 -1.6064  0.2039  1.4893
   24SAPC   C24 3156   2.621   5.880  10.320  0.1907 -0.3297 -0.8294
   24SAPC   H4R 3157   2.632   5.776  10.358 -2.3023 -1.2811 -2.4399
   24SAPC   H4S 3158   2.721   5.908  10.279  1.3740 -1.0847  1.3756
   24SAPC   C25 3159   2.510   5.900  10.216 -0.4825  0.6778  0.1142
   24SAPC   H5R 3160   2.407   5.872  10.245 -0.2973  1.2737  1.4375
   24SAPC   C26 3161   2.532   5.954  10.090  0.3465  0.6260  0.0684
   24SAPC   H6R 3162   2.450   5.966  10.018 -0.9194  0.9586  1.5106
   24SAPC   C27 3163   2.661   6.005  10.030 -0.4529  0.1832  0.3929
   24SAPC   H7R 3164   2.655   6.022   9.920  2.9072  2.2929  0.3954
   24SAPC   H7S 3165   2.752   5.943  10.044 -0.6447  0.2175  1.9788
   24SAPC   C28 3166   2.691   6.135  10.083 -0.5611  0.2466 -0.0718
   24SAPC   H8R 3167   2.746   6.138  10.179  0.7890  3.5263 -0.8066
   24SAPC   C29 3168   2.654   6.257  10.035  0.4612  0.9170  0.1792
   24SAPC   H9R 3169   2.685   6.333  10.108  1.3031 -0.8684  1.7423
   24SAPC  C210 3170   2.581   6.288   9.914 -0.7139 -0.0782 -0.1099
   24SAPC  H10R 3171   2.474   6.313   9.931 -1.0985 -0.5505 -1.7032
   24SAPC  H10S 3172   2.586   6.205   9.841 -1.2858  0.2078 -0.4927
   24SAPC  C211 3173   2.636   6.417   9.860  0.5731  0.4130 -0.4462
   24SAPC  H11R 3174   2.659   6.484   9.944  0.4438 -1.6811  1.3527
   24SAPC  C212 3175   2.664   6.452   9.734  0.6478  0.6338  0.1343
   24SAPC  H12R 3176   2.709   6.551   9.720  1.1361  1.1028  3.9589
   24SAPC  C213 3177   2.646   6.357   9.614 -0.4296  0.3702 -0.3354
   24SAPC  H13R 3178   2.547   6.307   9.622  0.1900 -1.1933 -1.8611
   24SAPC  H13S 3179   2.716   6.273   9.633 -0.1817  0.5797 -0.3078
   24SAPC  C214 3180   2.676   6.414   9.480  0.0941  0.6767 -0.1892
   24SAPC  H14R 3181   2.752   6.493   9.477  0.0539  0.7029 -0.9187
   24SAPC  C215 3182   2.627   6.360   9.365 -0.6076 -0.5384  0.0811
   24SAPC  H15R 3183   2.658   6.415   9.275 -0.4853  0.7719  0.9028
   24SAPC  C216 3184   2.541   6.233   9.363  0.1504  0.1380  0.6739
   24SAPC  H16R 3185   2.497   6.214   9.263  0.0259 -1.0886  0.9472
   24SAPC  H16S 3186   2.458   6.235   9.436 -0.2398  2.1700  0.2392
   24SAPC  C217 3187   2.621   6.104   9.395 -0.5423  0.7748  0.0537
   24SAPC  H17R 3188   2.650   6.113   9.502  0.3796  3.2121 -0.3364
   24SAPC  H17S 3189   2.715   6.105   9.335 -0.7284 -1.3540 -0.3545
   24SAPC  C218 3190   2.543   5.973   9.350 -0.8128 -0.0606 -1.1567
   24SAPC  H18R 3191   2.511   5.969   9.244 -0.2231  0.5829 -1.3704
   24SAPC  H18S 3192   2.443   5.975   9.399  0.3261 -0.3540  1.3496
   24SAPC  C219 3193   2.609   5.846   9.400  0.7086  0.1052  0.2475
   24SAPC  H19R 3194   2.708   5.819   9.357  1.2545  0.0748  1.4820
   24SAPC  H19S 3195   2.545   5.763   9.363  0.5500  0.0161  0.7179
   24SAPC  C220 3196   2.628   5.843   9.553 -0.4071 -0.3823  0.4837
   24SAPC  H20R 3197   2.653   5.737   9.575 -0.4243  0.0657  2.8471
   24SAPC  H20S 3198   2.552   5.894   9.616 -1.2787  1.3856 -1.8238
   24SAPC  H20T 3199   2.716   5.907   9.576  0.6656 -1.4582 -0.5053
   24SAPC   C33 3200   2.646   6.552  10.350 -0.7395  0.4987 -0.1669
   24SAPC   H3X 3201   2.638   6.472  10.273 -1.6849 -0.2840  0.7106
   24SAPC   H3Y 3202   2.747   6.545  10.396  1.1084 -1.1235 -4.0154
   24SAPC   C34 3203   2.642   6.690  10.278  0.3116 -0.4690 -0.2620
   24SAPC   H4X 3204   2.650   6.766  10.358 -0.3594  0.5036 -1.0900
   24SAPC   H4Y 3205   2.546   6.702  10.223  0.7002  0.1936 -0.8129
   24SAPC   C35 3206   2.761   6.710  10.176 -0.1420 -0.3498 -0.7743
   24SAPC   H5X 3207   2.756   6.648  10.084 -0.7214 -1.3092 -0.1103
   24SAPC   H5Y 3208   2.855   6.684  10.229  0.1527  2.0970  0.0076
   24SAPC   C36 3209   2.775   6.857  10.145 -0.2825 -0.2289  0.2858
   24SAPC   H6X 3210   2.874   6.896  10.177 -0.6821  0.6422  0.4827
   24SAPC   H6Y 3211   2.698   6.923  10.191 -1.8050 -1.2737 -0.6399
   24SAPC   C37 3212   2.773   6.876   9.989  0.2435 -0.5137  0.3364
   24SAPC   H7X 3213   2.844   6.809   9.935  1.9357  1.1202  0.4374
   24SAPC   H7Y 3214   2.800   6.981   9.964 -0.7876 -0.0087  1.2908
   24SAPC   C38 3215   2.638   6.845   9.926 -0.0097 -0.1595  0.9412
   24SAPC   H8X 3216   2.557   6.901   9.977  0.2651  1.7197 -0.5392
   24SAPC   H8Y 3217   2.615   6.737   9.934 -2.8476  0.4289  1.7272
   24SAPC   C39 3218   2.634   6.881   9.778 -0.3383  0.2445  0.7196
   24SAPC   H9X 3219   2.720   6.826   9.733 -0.3999  1.1203 -0.5075
   24SAPC   H9Y 3220   2.650   6.990   9.765 -0.6273  0.0101 -2.4116
   24SAPC  C310 3221   2.507   6.844   9.709 -0.1300 -0.0812  0.5962
   24SAPC  H10X 3222   2.428   6.910   9.752 -0.1256  1.4358 -1.5688
   24SAPC  H10Y 3223   2.478   6.738   9.728 -1.3386  0.0170 -0.5034
   24SAPC  C311 3224   2.511   6.865   9.554 -0.2433 -0.3765  0.3736
   24SAPC  H11X 3225   2.529   6.970   9.523 -1.2418 -1.0092 -2.7381
   24SAPC  H11Y 3226   2.413   6.836   9.510 -0.0438  0.5323 -0.7358
   24SAPC  C312 3227   2.608   6.782   9.467 -1.0678 -0.1494  0.3278
   24SAPC  H12X 3228   2.596   6.676   9.497  0.7794 -1.1381 -2.0167
   24SAPC  H12Y 3229   2.715   6.811   9.481 -0.9119 -0.4404 -0.2201
   24SAPC  C313 3230   2.584   6.803   9.319  0.3495  0.0613  0.6176
   24SAPC  H13X 3231   2.568   6.912   9.302  1.5530  0.0143 -1.0084
   24SAPC  H13Y 3232   2.489   6.750   9.292  1.0046 -1.2432  0.8109
   24SAPC  C314 3233   2.700   6.764   9.229 -0.0888 -0.5112  0.1948
   24SAPC  H14X 3234   2.709   6.653   9.233  0.6080 -0.5329 -1.2069
   24SAPC  H14Y 3235   2.797   6.799   9.270  1.0457  0.9633 -3.3103
   24SAPC  C315 3236   2.683   6.811   9.082  0.4455 -0.2019  0.2511
   24SAPC  H15X 3237   2.722   6.915   9.081  0.0877  0.0368  3.1566
   24SAPC  H15Y 3238   2.576   6.810   9.055  0.6874  0.5684 -0.8398
   24SAPC  C316 3239   2.759   6.717   8.991 -0.7581 -0.1535  0.5220
   24SAPC  H16X 3240   2.710   6.618   9.002 -0.2657 -0.5593 -0.6869
   24SAPC  H16Y 3241   2.865   6.715   9.025 -0.3150  0.1425 -0.7906
   24SAPC  C317 3242   2.747   6.761   8.843  0.5305 -0.2737 -0.0025
   24SAPC  H17X 3243   2.805   6.693   8.777  2.7032  0.6231  0.8798
   24SAPC  H17Y 3244   2.785   6.865   8.835  1.5806 -0.7293 -1.4804
   24SAPC  C318 3245   2.601   6.757   8.791  0.4683 -0.5374 -0.0900
   24SAPC  H18X 3246   2.535   6.834   8.837 -1.3651 -1.2305 -1.4246
   24SAPC  H18Y 3247   2.566   6.652   8.804  0.1695 -0.4198  0.0502
   24SAPC  H18Z 3248   2.595   6.775   8.681  0.8030  0.9791  0.1159
   25SAPC     N 3249   4.923   6.004   6.219 -0.1225  0.6602  0.5391
   25SAPC   C12 3250   5.008   5.878   6.213 -0.5019  0.1114 -1.3070
   25SAPC  H12A 3251   4.987   5.829   6.307 -0.3817  2.1789 -0.1362
   25SAPC  H12B 3252   5.111   5.906   6.202 -0.3352  0.3784  0.4961
   25SAPC   C13 3253   4.961   6.076   6.342  0.2575 -0.9469 -0.0520
   25SAPC  H13A 3254   5.067   6.091   6.337  0.3322 -1.7279 -1.0674
   25SAPC  H13B 3255   4.906   6.169   6.351 -0.2607 -1.1312 -1.1602
   25SAPC  H13C 3256   4.941   6.017   6.431  1.9611  0.9727  1.7182
   25SAPC   C14 3257   4.951   6.092   6.105  0.6645  0.4220  0.5832
   25SAPC  H14A 3258   4.931   6.025   6.023  5.1407 -0.7332  0.1289
   25SAPC  H14B 3259   4.887   6.179   6.105 -0.7030 -0.4170  3.8950
   25SAPC  H14C 3260   5.054   6.121   6.086 -0.0575  1.8148 -1.5408
   25SAPC   C15 3261   4.772   5.978   6.223 -0.2802 -0.2414  0.5573
   25SAPC  H15A 3262   4.748   5.937   6.320 -0.7381 -0.4819  0.3450
   25SAPC  H15B 3263   4.722   6.074   6.216  1.3452  1.0777  4.1449
   25SAPC  H15C 3264   4.750   5.912   6.141  0.7387  0.0029  0.0626
   25SAPC   C11 3265   4.997   5.782   6.088  0.1217 -0.4553 -0.6347
   25SAPC  H11A 3266   5.074   5.703   6.102 -1.3268 -1.5729  1.6686
   25SAPC  H11B 3267   5.028   5.836   5.996  0.6127 -1.2034 -0.9228
   25SAPC     P 3268   4.836   5.595   6.135 -0.2500  0.3012  0.0562
   25SAPC   O13 3269   4.690   5.589   6.172  0.0703 -0.6494 -0.2099
   25SAPC   O14 3270   4.881   5.487   6.049 -0.3305  0.6101  0.3371
   25SAPC   O12 3271   4.869   5.725   6.063 -0.0049 -0.5998  0.1211
   25SAPC   O11 3272   4.930   5.603   6.264  0.5374  0.0686  0.4736
   25SAPC    C1 3273   4.891   5.577   6.397  0.4828  0.4693 -0.5702
   25SAPC    HA 3274   4.868   5.675   6.443  1.4321  0.1141  0.7390
   25SAPC    HB 3275   4.795   5.522   6.405  0.8071  0.1695  2.4439
   25SAPC    C2 3276   4.998   5.502   6.482  0.5476 -1.0791 -0.3822
   25SAPC    HS 3277   4.993   5.538   6.586  2.8592 -0.8708 -0.2853
   25SAPC   O21 3278   5.133   5.526   6.435  0.4426 -0.2693 -0.4485
   25SAPC   C21 3279   5.167   5.651   6.447  0.1750 -0.3936 -0.0599
   25SAPC   O22 3280   5.104   5.743   6.496  0.3147 -0.3349 -0.3317
   25SAPC   C22 3281   5.307   5.671   6.383  0.0978 -0.4764  0.0569
   25SAPC   H2R 3282   5.346   5.567   6.377  0.7657 -0.1617 -2.2812
   25SAPC   H2S 3283   5.293   5.712   6.281 -0.2624  0.8446  0.6230
   25SAPC    C3 3284   4.959   5.357   6.473 -1.0196  0.2055 -0.2205
   25SAPC    HX 3285   4.974   5.327   6.367 -1.0492 -1.5465  0.2396
   25SAPC    HY 3286   4.853   5.337   6.499 -1.2182 -0.0521 -1.1713
   25SAPC   O31 3287   5.053   5.276   6.562  0.1372  0.1804  0.0597
   25SAPC   C31 3288   5.013   5.153   6.573  0.0255 -0.5123  0.2070
   25SAPC   O32 3289   4.914   5.103   6.529  0.1363 -0.1042  0.5481
   25SAPC   C32 3290   5.111   5.070   6.655 -0.0091 -0.2128  0.6290
   25SAPC   H2X 3291   5.217   5.088   6.628 -0.4198  2.5239  0.5126
   25SAPC   H2Y 3292   5.099   4.964   6.627  1.4671  0.1075 -1.4147
   25SAPC   C23 3293   5.414   5.757   6.462 -0.1936  0.1109  0.0288
   25SAPC   H3R 3294   5.373   5.853   6.500  0.1823  0.7494 -1.1605
   25SAPC   H3S 3295   5.487   5.791   6.387 -0.1201  0.4499  0.2556
   25SAPC   C24 3296   5.488   5.680   6.580 -0.5434  0.3036 -0.5403
   25SAPC   H4R 3297   5.552   5.764   6.615  0.2485  0.8076 -2.9988
   25SAPC   H4S 3298   5.555   5.599   6.546 -0.2592  1.5346 -3.1731
   25SAPC   C25 3299   5.398   5.630   6.689  0.4825  0.5047  0.3670
   25SAPC   H5R 3300   5.346   5.536   6.667  1.3192 -0.1428  1.1065
   25SAPC   C26 3301   5.385   5.682   6.813 -0.7743 -0.0113  0.1440
   25SAPC   H6R 3302   5.309   5.638   6.879 -0.2849 -2.0641 -0.5898
   25SAPC   C27 3303   5.458   5.805   6.871  0.3376  0.1151 -0.3120
   25SAPC   H7R 3304   5.394   5.865   6.939  1.5196  1.1502 -0.0788
   25SAPC   H7S 3305   5.493   5.874   6.790 -0.3647  1.3601  0.4142
   25SAPC   C28 3306   5.589   5.769   6.935  0.1374 -0.2952 -0.2853
   25SAPC   H8R 3307   5.676   5.790   6.871  1.1861  0.2021  1.2489
   25SAPC   C29 3308   5.607   5.745   7.069 -0.3394 -0.5815 -0.5631
   25SAPC   H9R 3309   5.710   5.747   7.109 -1.2848 -1.2039  2.1235
   25SAPC  C210 3310   5.500   5.738   7.178  0.4583 -0.2484  0.0037
   25SAPC  H10R 3311   5.401   5.744   7.130  1.4214  1.5337 -1.9051
   25SAPC  H10S 3312   5.504   5.829   7.243 -1.1771  0.3119 -0.6308
   25SAPC  C211 3313   5.512   5.613   7.260 -0.3418 -0.1494  0.0244
   25SAPC  H11R 3314   5.461   5.529   7.210 -0.6561 -0.0896  0.2421
   25SAPC  C212 3315   5.577   5.591   7.372  0.6830  0.4096 -0.9699
   25SAPC  H12R 3316   5.582   5.494   7.424 -2.4252  1.0781  0.8469
   25SAPC  C213 3317   5.661   5.688   7.456 -0.1906  0.0472  1.0667
   25SAPC  H13R 3318   5.629   5.789   7.421  0.5323  0.0119  0.2537
   25SAPC  H13S 3319   5.769   5.676   7.430 -0.1229  1.6427  0.4600
   25SAPC  C214 3320   5.627   5.658   7.601  1.0567 -0.2176 -0.1313
   25SAPC  H14R 3321   5.524   5.632   7.629  1.1030  0.0582  0.3124
   25SAPC  C215 3322   5.720   5.655   7.692  0.2621  0.4477 -0.7162
   25SAPC  H15R 3323   5.694   5.620   7.793  0.4254  0.5404 -0.6423
   25SAPC  C216 3324   5.859   5.685   7.675 -0.6049 -0.3172 -0.1502
   25SAPC  H16R 3325   5.885   5.742   7.767 -0.2833 -0.7656  0.0414
   25SAPC  H16S 3326   5.887   5.752   7.592  2.9406  0.5261  1.5649
   25SAPC  C217 3327   5.946   5.556   7.654 -0.1334 -0.5397  0.1068
   25SAPC  H17R 3328   6.052   5.580   7.635 -0.3750  0.1585 -0.4087
   25SAPC  H17S 3329   5.896   5.504   7.570 -2.8360  1.5288  0.2810
   25SAPC  C218 3330   5.940   5.461   7.769  0.0459  0.1331  0.0629
   25SAPC  H18R 3331   5.835   5.435   7.794  0.9058 -1.5623  2.2089
   25SAPC  H18S 3332   5.980   5.509   7.861 -3.2034  0.5162  1.4053
   25SAPC  C219 3333   6.001   5.329   7.736 -0.0850  0.3333 -0.5571
   25SAPC  H19R 3334   6.112   5.340   7.731 -0.2099  1.8883 -0.3382
   25SAPC  H19S 3335   5.964   5.297   7.636 -0.2359  1.3588 -0.8411
   25SAPC  C220 3336   5.966   5.214   7.831 -0.7277 -0.4682  0.1477
   25SAPC  H20R 3337   5.971   5.115   7.780  2.0177  0.7829 -2.3066
   25SAPC  H20S 3338   5.865   5.229   7.874 -0.2693  1.6686  0.6147
   25SAPC  H20T 3339   6.039   5.208   7.914 -0.9868 -0.3936  0.3850
   25SAPC   C33 3340   5.094   5.097   6.802 -0.1941  0.1203 -0.2924
   25SAPC   H3X 3341   5.157   5.017   6.847  0.9900  0.3501 -1.4986
   25SAPC   H3Y 3342   4.988   5.081   6.832 -0.2226  2.7175  1.2957
   25SAPC   C34 3343   5.134   5.236   6.859  0.0741  0.6080 -0.0749
   25SAPC   H4X 3344   5.094   5.315   6.792  0.0984  0.2473 -0.5236
   25SAPC   H4Y 3345   5.244   5.248   6.865  0.2741 -0.6775 -0.7133
   25SAPC   C35 3346   5.060   5.252   6.996 -0.1981 -0.7434 -0.2377
   25SAPC   H5X 3347   4.952   5.231   6.981 -0.4892  1.0649 -0.9668
   25SAPC   H5Y 3348   5.054   5.360   7.021  0.3184 -0.6883 -0.3353
   25SAPC   C36 3349   5.134   5.177   7.112  0.1830  0.4258 -0.0443
   25SAPC   H6X 3350   5.167   5.079   7.072 -0.7075  0.5861 -1.2345
   25SAPC   H6Y 3351   5.067   5.156   7.198  2.1118 -2.5633  0.8962
   25SAPC   C37 3352   5.254   5.253   7.165 -0.3760  0.0093 -0.0968
   25SAPC   H7X 3353   5.210   5.340   7.218 -3.8705 -1.0215 -0.9953
   25SAPC   H7Y 3354   5.332   5.279   7.091  0.2208 -1.0728  0.1290
   25SAPC   C38 3355   5.325   5.162   7.266  0.3301 -0.0157 -0.4398
   25SAPC   H8X 3356   5.360   5.075   7.206 -0.8336 -0.9994  0.2549
   25SAPC   H8Y 3357   5.251   5.124   7.340 -1.1665 -0.2055 -1.9906
   25SAPC   C39 3358   5.433   5.233   7.347 -0.0404 -0.2383  0.1255
   25SAPC   H9X 3359   5.399   5.319   7.408 -0.8096  0.1865 -0.8873
   25SAPC   H9Y 3360   5.507   5.280   7.279  0.8604 -2.3038 -0.3929
   25SAPC  C310 3361   5.525   5.151   7.443  0.2093  0.1131 -0.4238
   25SAPC  H10X 3362   5.577   5.073   7.384  1.3154  0.2829  0.2893
   25SAPC  H10Y 3363   5.452   5.093   7.503 -0.8487  0.3144 -1.4848
   25SAPC  C311 3364   5.613   5.247   7.534  0.4173 -0.3045  0.1955
   25SAPC  H11X 3365   5.552   5.338   7.553  0.1977 -0.4846  0.3489
   25SAPC  H11Y 3366   5.704   5.269   7.473 -1.0427  1.3384 -1.4875
   25SAPC  C312 3367   5.655   5.182   7.664  0.1689 -0.4110  0.7863
   25SAPC  H12X 3368   5.732   5.245   7.714 -0.9148  0.6925  1.1090
   25SAPC  H12Y 3369   5.710   5.089   7.641  2.0594  1.0464 -0.9450
   25SAPC  C313 3370   5.539   5.146   7.761 -0.4077 -0.2569  0.6885
   25SAPC  H13X 3371   5.482   5.062   7.716  0.4786 -0.4428 -0.1188
   25SAPC  H13Y 3372   5.469   5.233   7.766 -0.7469 -0.4521 -0.4734
   25SAPC  C314 3373   5.584   5.110   7.902 -1.1918  0.0534  0.0380
   25SAPC  H14X 3374   5.493   5.104   7.965 -2.1838  0.6981 -1.2748
   25SAPC  H14Y 3375   5.658   5.187   7.933 -1.6465  0.3005  0.5239
   25SAPC  C315 3376   5.669   4.986   7.906 -0.2897  0.0685  0.1077
   25SAPC  H15X 3377   5.751   4.986   7.831 -0.6830 -1.9826 -0.3648
   25SAPC  H15Y 3378   5.623   4.886   7.891 -0.9127  0.5711 -1.4366
   25SAPC  C316 3379   5.733   4.963   8.047  0.4669  0.5593 -0.3013
   25SAPC  H16X 3380   5.783   5.059   8.070  0.4254  0.5683 -0.2503
   25SAPC  H16Y 3381   5.812   4.885   8.050  0.4203  0.5493  1.6656
   25SAPC  C317 3382   5.621   4.922   8.156  0.5349  0.5193  1.1123
   25SAPC  H17X 3383   5.586   4.820   8.130  0.6649  0.5015  1.0003
   25SAPC  H17Y 3384   5.539   4.997   8.148  2.0256  2.3582  2.1677
   25SAPC  C318 3385   5.675   4.933   8.300  0.0784 -0.2555  0.3544
   25SAPC  H18X 3386   5.698   5.039   8.322 -0.4890  0.0664 -0.5655
   25SAPC  H18Y 3387   5.760   4.862   8.312 -1.2821 -1.4763  4.5800
   25SAPC  H18Z 3388   5.590   4.913   8.369 -0.7694  1.1614 -0.2358
   26SAPC     N 3389   3.635   6.518   6.167 -0.0579 -0.2069 -0.3763
   26SAPC   C12 3390   3.646   6.507   6.320 -0.0282  0.1293 -0.2092
   26SAPC  H12A 3391   3.574   6.435   6.356  0.0744  0.0801 -0.1041
   26SAPC  H12B 3392   3.619   6.605   6.356  1.4040  0.5697 -0.2651
   26SAPC   C13 3393   3.665   6.392   6.101 -0.0320 -0.1174 -0.2542
   26SAPC  H13A 3394   3.647   6.398   5.995 -0.1785 -3.2161 -0.5031
   26SAPC  H13B 3395   3.765   6.354   6.117  0.2253  0.5626 -0.1898
   26SAPC  H13C 3396   3.594   6.315   6.125  0.1229 -0.5571 -1.1707
   26SAPC   C14 3397   3.500   6.560   6.130  0.4601  0.2937  0.6995
   26SAPC  H14A 3398   3.493   6.664   6.157  0.2510  0.0234  1.7329
   26SAPC  H14B 3399   3.489   6.536   6.025 -0.3918 -1.8312  1.2114
   26SAPC  H14C 3400   3.436   6.491   6.183 -0.0573 -1.2558 -1.7398
   26SAPC   C15 3401   3.720   6.630   6.104  0.0991 -0.7037  0.3121
   26SAPC  H15A 3402   3.711   6.735   6.130  0.2832 -1.0099  1.6541
   26SAPC  H15B 3403   3.825   6.605   6.102  0.4859  0.3540  3.2510
   26SAPC  H15C 3404   3.695   6.634   5.999 -2.2830  0.5611  0.8415
   26SAPC   C11 3405   3.781   6.469   6.389 -0.6183  0.0859  0.5256
   26SAPC  H11A 3406   3.760   6.471   6.498 -0.6599 -0.5367  0.5354
   26SAPC  H11B 3407   3.851   6.550   6.360 -0.8570 -0.1031 -0.6493
   26SAPC     P 3408   3.813   6.208   6.434 -0.1223  0.0633 -0.0856
   26SAPC   O13 3409   3.674   6.176   6.454  0.0340 -0.6200  0.3813
   26SAPC   O14 3410   3.886   6.091   6.382 -0.3291 -0.0680 -0.1703
   26SAPC   O12 3411   3.825   6.339   6.347  0.1944  0.7859 -0.6170
   26SAPC   O11 3412   3.871   6.254   6.574 -0.3841 -0.0099  0.0188
   26SAPC    C1 3413   3.998   6.315   6.588 -0.9258  0.1478  0.3264
   26SAPC    HA 3414   4.038   6.341   6.487 -1.4232 -1.5983 -0.3548
   26SAPC    HB 3415   3.986   6.410   6.645 -2.4655  1.0375 -1.3642
   26SAPC    C2 3416   4.096   6.218   6.660 -0.4017 -0.5184  0.6039
   26SAPC    HS 3417   4.097   6.117   6.613 -0.7100 -0.8272  1.2474
   26SAPC   O21 3418   4.050   6.198   6.795  0.5955 -0.0357  0.0323
   26SAPC   C21 3419   4.119   6.119   6.873  0.3670 -0.0542 -0.2335
   26SAPC   O22 3420   4.213   6.047   6.833  0.1512 -0.1738 -0.1485
   26SAPC   C22 3421   4.058   6.123   7.013  0.3356  0.0685 -0.0921
   26SAPC   H2R 3422   4.046   6.231   7.039 -0.5340 -0.3975  1.6121
   26SAPC   H2S 3423   3.960   6.072   7.024 -0.9519  2.2751 -0.6984
   26SAPC    C3 3424   4.239   6.280   6.642 -0.3790  0.2081 -0.2411
   26SAPC    HX 3425   4.256   6.293   6.533 -1.3303  1.9586 -0.2107
   26SAPC    HY 3426   4.309   6.208   6.690 -0.2173 -0.2611 -1.1482
   26SAPC   O31 3427   4.240   6.405   6.709 -0.0069  0.5232  0.0795
   26SAPC   C31 3428   4.352   6.470   6.693  0.0491 -0.3571 -0.8988
   26SAPC   O32 3429   4.446   6.436   6.620  0.4889 -0.3021  0.1661
   26SAPC   C32 3430   4.347   6.590   6.780 -0.1390  0.1831  0.1904
   26SAPC   H2X 3431   4.250   6.640   6.761 -1.4338 -2.1544  0.2972
   26SAPC   H2Y 3432   4.429   6.661   6.757  1.0966 -0.8665  1.1738
   26SAPC   C23 3433   4.156   6.055   7.111 -0.5770 -0.3847 -0.2563
   26SAPC   H3R 3434   4.262   6.084   7.100 -1.2256  2.2204 -0.2284
   26SAPC   H3S 3435   4.150   5.946   7.091 -0.8905 -0.3354 -0.4424
   26SAPC   C24 3436   4.109   6.075   7.262 -0.8727 -0.3011  0.2169
   26SAPC   H4R 3437   4.158   5.994   7.320  0.7002  0.0975 -0.4936
   26SAPC   H4S 3438   4.001   6.050   7.269 -0.6642 -1.9643 -1.7149
   26SAPC   C25 3439   4.147   6.211   7.321 -0.8703  0.1077  1.4390
   26SAPC   H5R 3440   4.151   6.300   7.256 -0.3682 -0.9569 -0.0421
   26SAPC   C26 3441   4.183   6.225   7.446 -0.8159 -0.4576  0.3139
   26SAPC   H6R 3442   4.198   6.325   7.488 -1.3476 -0.4987  0.6055
   26SAPC   C27 3443   4.187   6.123   7.556 -0.9993  0.4898  0.5408
   26SAPC   H7R 3444   4.289   6.100   7.596 -0.6765  1.0574  0.0660
   26SAPC   H7S 3445   4.142   6.027   7.523 -0.6579  0.7491 -0.7499
   26SAPC   C28 3446   4.107   6.166   7.678  0.1616 -0.3971  0.1034
   26SAPC   H8R 3447   4.003   6.130   7.679 -0.8644  2.3323 -0.0447
   26SAPC   C29 3448   4.155   6.241   7.782  0.3334  0.1896  0.4262
   26SAPC   H9R 3449   4.083   6.273   7.859 -0.2518  1.8596 -0.7558
   26SAPC  C210 3450   4.298   6.287   7.796 -0.2506 -0.8162  0.3632
   26SAPC  H10R 3451   4.339   6.319   7.698  1.4518  1.2084  1.6446
   26SAPC  H10S 3452   4.363   6.204   7.832 -0.7945  0.6484  5.4451
   26SAPC  C211 3453   4.310   6.397   7.900 -0.0868 -0.1750 -0.5140
   26SAPC  H11R 3454   4.246   6.481   7.870 -1.6554 -1.8140 -1.9720
   26SAPC  C212 3455   4.377   6.397   8.019  0.0514  0.0754 -0.2201
   26SAPC  H12R 3456   4.370   6.488   8.081  2.1114  0.4789 -0.5179
   26SAPC  C213 3457   4.469   6.289   8.067  0.5821  0.5945 -0.1461
   26SAPC  H13R 3458   4.491   6.211   7.991 -0.6836 -0.3756  0.4554
   26SAPC  H13S 3459   4.420   6.222   8.141  1.3928 -0.5309 -0.5865
   26SAPC  C214 3460   4.602   6.327   8.119 -0.1147 -0.1813  0.4282
   26SAPC  H14R 3461   4.665   6.368   8.038  0.1418 -1.5374 -0.0850
   26SAPC  C215 3462   4.649   6.317   8.243 -0.3240  0.1858  0.5210
   26SAPC  H15R 3463   4.751   6.355   8.258 -0.8565  2.3409 -0.7995
   26SAPC  C216 3464   4.575   6.266   8.358  0.4738  0.1885 -0.0489
   26SAPC  H16R 3465   4.467   6.292   8.367 -0.0133 -1.5655 -0.4358
   26SAPC  H16S 3466   4.633   6.297   8.447  1.8477 -0.7919 -0.5711
   26SAPC  C217 3467   4.560   6.118   8.378 -0.1487  0.2305 -0.0377
   26SAPC  H17R 3468   4.463   6.084   8.336 -0.0265 -0.0847 -0.0695
   26SAPC  H17S 3469   4.564   6.096   8.487 -0.8243  3.1966  0.6674
   26SAPC  C218 3470   4.686   6.047   8.317 -0.5681  0.0871  0.4231
   26SAPC  H18R 3471   4.775   6.100   8.357  0.0702 -0.2250 -0.5582
   26SAPC  H18S 3472   4.703   6.053   8.208 -1.5185  0.9811  0.3050
   26SAPC  C219 3473   4.679   5.894   8.357  0.2690 -0.0336  0.0962
   26SAPC  H19R 3474   4.576   5.855   8.340  0.9920 -3.0888  1.9620
   26SAPC  H19S 3475   4.699   5.880   8.466  1.1417 -1.4250 -0.2301
   26SAPC  C220 3476   4.771   5.808   8.271  0.3017 -0.4296  0.4427
   26SAPC  H20R 3477   4.878   5.824   8.296  0.1677  1.0037  0.1765
   26SAPC  H20S 3478   4.749   5.832   8.165 -0.2218 -1.4295  0.3100
   26SAPC  H20T 3479   4.736   5.702   8.278 -1.2360 -0.0558 -1.0693
   26SAPC   C33 3480   4.360   6.543   6.930  0.5972 -0.2704 -0.2284
   26SAPC   H3X 3481   4.276   6.475   6.955  0.4787  0.5911  1.9315
   26SAPC   H3Y 3482   4.357   6.632   6.996  1.0622 -2.1914  2.5490
   26SAPC   C34 3483   4.493   6.475   6.963 -0.4125  0.1684  0.2788
   26SAPC   H4X 3484   4.581   6.500   6.899 -1.0311 -0.7961 -0.9798
   26SAPC   H4Y 3485   4.465   6.369   6.949  3.3709 -1.2635  2.0985
   26SAPC   C35 3486   4.543   6.504   7.109  0.4962 -0.2236  0.5297
   26SAPC   H5X 3487   4.566   6.612   7.126 -2.0189  0.0914  2.5238
   26SAPC   H5Y 3488   4.643   6.456   7.117  0.2205 -0.8472  0.2836
   26SAPC   C36 3489   4.449   6.458   7.220 -0.1864 -0.3553 -0.2932
   26SAPC   H6X 3490   4.425   6.351   7.204 -0.9677 -0.1015 -0.8726
   26SAPC   H6Y 3491   4.357   6.519   7.209  1.4231  2.5905  1.2019
   26SAPC   C37 3492   4.507   6.479   7.362  0.5313  0.5367  0.8061
   26SAPC   H7X 3493   4.606   6.430   7.375  0.5433  0.7882  1.7429
   26SAPC   H7Y 3494   4.429   6.438   7.430 -0.7888 -0.3406 -1.1439
   26SAPC   C38 3495   4.517   6.627   7.395 -0.3208 -1.1585 -0.0732
   26SAPC   H8X 3496   4.437   6.688   7.347  0.5253 -1.5242 -2.0078
   26SAPC   H8Y 3497   4.606   6.667   7.342 -2.3856  0.4811 -2.5532
   26SAPC   C39 3498   4.510   6.652   7.541 -0.1860  0.1562  0.3169
   26SAPC   H9X 3499   4.605   6.618   7.587  0.4609  1.3645 -0.0829
   26SAPC   H9Y 3500   4.418   6.611   7.588  0.4985  1.7708  3.2840
   26SAPC  C310 3501   4.498   6.806   7.569 -0.4646 -0.2684 -0.3362
   26SAPC  H10X 3502   4.416   6.852   7.510 -1.0573  0.6671  1.1562
   26SAPC  H10Y 3503   4.602   6.836   7.542  0.0758  0.1201  1.9859
   26SAPC  C311 3504   4.471   6.842   7.720  0.1686  0.2337  0.2948
   26SAPC  H11X 3505   4.381   6.789   7.757  1.3928 -2.0788  0.1656
   26SAPC  H11Y 3506   4.452   6.952   7.723  0.4091  0.2480  1.6512
   26SAPC  C312 3507   4.576   6.778   7.816 -0.2251  0.2632  0.5188
   26SAPC  H12X 3508   4.681   6.802   7.791 -0.3239  2.9158  2.2416
   26SAPC  H12Y 3509   4.575   6.668   7.800 -0.9620  0.3408 -0.0633
   26SAPC  C313 3510   4.557   6.816   7.962 -0.1210 -0.3016 -0.9622
   26SAPC  H13X 3511   4.469   6.763   8.004 -1.5341  4.0314  2.3688
   26SAPC  H13Y 3512   4.550   6.927   7.959  1.0398 -0.2117 -0.7141
   26SAPC  C314 3513   4.680   6.775   8.046 -0.1087  0.5547  0.2604
   26SAPC  H14X 3514   4.770   6.813   7.993  1.4675 -0.8802  1.7996
   26SAPC  H14Y 3515   4.698   6.665   8.042  1.8216  0.7074  2.4705
   26SAPC  C315 3516   4.685   6.842   8.185 -0.2518  0.5145  0.4055
   26SAPC  H15X 3517   4.663   6.951   8.183  0.4473  0.6749 -2.3800
   26SAPC  H15Y 3518   4.788   6.835   8.226 -0.3238  0.6326  0.6070
   26SAPC  C316 3519   4.588   6.770   8.281 -0.3438  0.1497  0.1565
   26SAPC  H16X 3520   4.617   6.666   8.306  0.5129  0.1139 -0.8918
   26SAPC  H16Y 3521   4.487   6.756   8.237 -0.4712 -2.5506  1.1283
   26SAPC  C317 3522   4.582   6.844   8.414 -0.4914  0.0116  0.7753
   26SAPC  H17X 3523   4.514   6.930   8.394 -0.7189 -0.2118  0.5737
   26SAPC  H17Y 3524   4.685   6.880   8.429  0.2869 -1.2644 -1.0720
   26SAPC  C318 3525   4.539   6.763   8.529 -0.5514  0.5291 -0.1354
   26SAPC  H18X 3526   4.551   6.814   8.626  0.4691  0.1622 -0.0599
   26SAPC  H18Y 3527   4.596   6.669   8.546 -0.4758  0.9733  2.4168
   26SAPC  H18Z 3528   4.429   6.749   8.517 -0.4244  0.1922 -0.9655
   27SAPC     N 3529   2.698   1.629   6.337  0.7351  1.0621 -0.2693
   27SAPC   C12 3530   2.783   1.685   6.452 -0.0325  0.0737 -0.0815
   27SAPC  H12A 3531   2.773   1.792   6.445 -2.0830  0.0349  1.2915
   27SAPC  H12B 3532   2.885   1.652   6.448 -0.7363 -2.1931 -1.9849
   27SAPC   C13 3533   2.758   1.646   6.200  0.0591  0.6395  0.3790
   27SAPC  H13A 3534   2.692   1.610   6.122  0.7186  1.5285 -0.6117
   27SAPC  H13B 3535   2.785   1.744   6.163  0.5673  0.3660  0.0242
   27SAPC  H13C 3536   2.850   1.590   6.188  1.1713  2.0724  1.8325
   27SAPC   C14 3537   2.683   1.485   6.369  0.2549  0.3091 -0.2382
   27SAPC  H14A 3538   2.610   1.435   6.307  0.2809 -1.6399  1.2083
   27SAPC  H14B 3539   2.776   1.431   6.369 -1.7965 -3.6366  1.5984
   27SAPC  H14C 3540   2.643   1.479   6.469 -1.1355  1.0833 -0.7197
   27SAPC   C15 3541   2.552   1.682   6.337  0.3006  0.4423  0.3518
   27SAPC  H15A 3542   2.557   1.787   6.314  1.1708  0.4314  0.4540
   27SAPC  H15B 3543   2.493   1.630   6.263 -1.8756  0.4930  1.9495
   27SAPC  H15C 3544   2.510   1.687   6.437 -0.8204  2.2447 -0.1683
   27SAPC   C11 3545   2.734   1.645   6.593 -1.0141  0.0891  0.1785
   27SAPC  H11A 3546   2.807   1.683   6.668 -3.2958  2.7215  1.2507
   27SAPC  H11B 3547   2.739   1.534   6.597  0.5298  0.0923 -1.1234
   27SAPC     P 3548   2.509   1.625   6.728 -0.1876  0.0411 -0.1439
   27SAPC   O13 3549   2.484   1.706   6.843 -0.3605 -0.0732 -0.0180
   27SAPC   O14 3550   2.388   1.589   6.651 -0.3409  0.3420 -0.0535
   27SAPC   O12 3551   2.606   1.698   6.637 -0.2782 -0.5168  0.2018
   27SAPC   O11 3552   2.585   1.501   6.769 -0.7223  0.6958 -0.1966
   27SAPC    C1 3553   2.525   1.376   6.800  0.4254 -0.4145  0.1191
   27SAPC    HA 3554   2.426   1.362   6.752  0.7835  0.1745 -0.8401
   27SAPC    HB 3555   2.594   1.299   6.760 -0.3788 -1.1823  0.1876
   27SAPC    C2 3556   2.510   1.359   6.951 -0.5771 -0.0606 -0.4235
   27SAPC    HS 3557   2.447   1.268   6.960 -0.1135 -0.2561  1.0773
   27SAPC   O21 3558   2.440   1.475   7.010 -0.1382 -0.0214 -0.2769
   27SAPC   C21 3559   2.304   1.469   6.984 -0.1914 -0.1687  0.0119
   27SAPC   O22 3560   2.252   1.375   6.935 -0.2451 -0.3278 -0.4269
   27SAPC   C22 3561   2.235   1.586   7.047 -0.0785  0.8358  0.1785
   27SAPC   H2R 3562   2.313   1.662   7.066  0.9517 -0.7097  2.7124
   27SAPC   H2S 3563   2.152   1.620   6.981 -2.0572 -1.4545  1.3102
   27SAPC    C3 3564   2.648   1.331   7.020  1.1476  0.1343  0.3159
   27SAPC    HX 3565   2.703   1.426   7.039 -1.6059  1.1158  5.2277
   27SAPC    HY 3566   2.716   1.278   6.950 -0.3813 -0.6734 -0.5946
   27SAPC   O31 3567   2.618   1.248   7.137 -0.0185 -0.2854 -0.6678
   27SAPC   C31 3568   2.735   1.191   7.186  0.2236 -0.3339 -0.0088
   27SAPC   O32 3569   2.845   1.205   7.136 -0.4843  0.9121  0.2433
   27SAPC   C32 3570   2.700   1.099   7.301 -0.0231  0.0852  0.5567
   27SAPC   H2X 3571   2.750   1.000   7.295  0.6981  0.4899 -0.2432
   27SAPC   H2Y 3572   2.591   1.087   7.317 -0.0455 -2.0322 -0.7840
   27SAPC   C23 3573   2.182   1.561   7.187  0.5967  0.0264  0.0591
   27SAPC   H3R 3574   2.270   1.571   7.255  0.6845  3.7722 -0.3893
   27SAPC   H3S 3575   2.152   1.454   7.190  0.6729 -0.2770 -4.1853
   27SAPC   C24 3576   2.068   1.662   7.236  0.2118 -0.9356  0.0105
   27SAPC   H4R 3577   2.026   1.594   7.314 -0.6837 -2.5850 -1.8077
   27SAPC   H4S 3578   1.981   1.672   7.168 -0.3792  1.4900  1.0361
   27SAPC   C25 3579   2.126   1.793   7.283  0.5280 -0.9216  0.1100
   27SAPC   H5R 3580   2.115   1.874   7.209  1.2465  1.3361  2.3321
   27SAPC   C26 3581   2.159   1.816   7.414  0.0128  0.0274 -0.4436
   27SAPC   H6R 3582   2.205   1.910   7.447 -0.7505  0.3687 -0.3332
   27SAPC   C27 3583   2.148   1.719   7.527 -0.1037  0.4831  0.4911
   27SAPC   H7R 3584   2.223   1.752   7.601 -0.0103 -1.7743  1.4911
   27SAPC   H7S 3585   2.175   1.613   7.506  0.5408  0.3653  1.8138
   27SAPC   C28 3586   2.014   1.723   7.586  0.4485  0.4928  0.2237
   27SAPC   H8R 3587   1.932   1.728   7.512  2.8888  3.0357 -2.5630
   27SAPC   C29 3588   1.984   1.734   7.718  0.2028 -0.4549 -0.8073
   27SAPC   H9R 3589   1.878   1.735   7.746  0.4147 -2.1132  0.1968
   27SAPC  C210 3590   2.081   1.741   7.839  0.0958 -0.2176 -0.1651
   27SAPC  H10R 3591   2.020   1.791   7.918 -0.2748 -1.0124  0.0613
   27SAPC  H10S 3592   2.164   1.814   7.822 -0.3150 -0.2032 -2.3588
   27SAPC  C211 3593   2.132   1.599   7.873 -0.7819 -0.4668  0.4046
   27SAPC  H11R 3594   2.160   1.539   7.785 -0.2939 -2.7392  2.0214
   27SAPC  C212 3595   2.148   1.541   7.990 -0.5244  0.5785  0.1725
   27SAPC  H12R 3596   2.193   1.441   7.987 -1.8539 -0.0545  0.6287
   27SAPC  C213 3597   2.111   1.588   8.123 -0.2002  0.3864  0.0125
   27SAPC  H13R 3598   2.093   1.497   8.184  0.7668  0.1146 -0.0914
   27SAPC  H13S 3599   2.010   1.634   8.117 -0.5640 -0.5531 -3.2168
   27SAPC  C214 3600   2.207   1.689   8.176 -0.4551  0.0998 -0.0026
   27SAPC  H14R 3601   2.291   1.721   8.112 -0.4174  1.2482  0.5974
   27SAPC  C215 3602   2.198   1.749   8.296 -0.3474 -0.3552 -0.1566
   27SAPC  H15R 3603   2.279   1.821   8.314 -0.5810  0.5306 -2.4164
   27SAPC  C216 3604   2.085   1.733   8.391 -0.1267 -0.5402  0.2120
   27SAPC  H16R 3605   2.122   1.690   8.486 -0.8591  0.0520  0.7745
   27SAPC  H16S 3606   2.012   1.660   8.350  1.4722 -1.9308 -0.2727
   27SAPC  C217 3607   2.013   1.864   8.418  0.1827  0.1205  0.3404
   27SAPC  H17R 3608   2.083   1.936   8.467 -1.6092  1.0510  1.6420
   27SAPC  H17S 3609   1.936   1.844   8.496 -0.0561  1.4103  0.4639
   27SAPC  C218 3610   1.935   1.922   8.301  0.5901 -0.4823  0.4748
   27SAPC  H18R 3611   1.875   1.844   8.250 -1.7764  0.2729  1.9222
   27SAPC  H18S 3612   2.001   1.970   8.226 -0.7421  1.6697  0.5702
   27SAPC  C219 3613   1.825   2.025   8.340 -0.5003 -0.3953 -0.0098
   27SAPC  H19R 3614   1.861   2.123   8.378 -1.7132  1.0902 -2.4662
   27SAPC  H19S 3615   1.769   1.971   8.420 -2.6418  1.8218  0.1124
   27SAPC  C220 3616   1.731   2.066   8.219  0.3913  0.5763 -0.0219
   27SAPC  H20R 3617   1.678   2.161   8.238 -1.8079 -0.4681 -0.5936
   27SAPC  H20S 3618   1.657   1.985   8.201  1.5709 -0.1435 -1.9533
   27SAPC  H20T 3619   1.797   2.071   8.130  0.6358 -0.6008  0.0706
   27SAPC   C33 3620   2.745   1.176   7.429 -0.4726 -0.0385  0.3567
   27SAPC   H3X 3621   2.710   1.281   7.426 -0.3924 -0.0389 -1.3548
   27SAPC   H3Y 3622   2.856   1.172   7.430 -0.4582 -0.8106  2.8770
   27SAPC   C34 3623   2.696   1.118   7.556 -0.3542  0.2122  0.4704
   27SAPC   H4X 3624   2.680   1.009   7.542  1.6609  0.0429 -1.0653
   27SAPC   H4Y 3625   2.598   1.166   7.576 -0.0671  1.8275 -1.5632
   27SAPC   C35 3626   2.796   1.143   7.670  0.1905 -0.5118 -0.0030
   27SAPC   H5X 3627   2.819   1.251   7.684  1.8682 -1.0035  1.4771
   27SAPC   H5Y 3628   2.886   1.082   7.647  0.1198 -0.0481 -1.5707
   27SAPC   C36 3629   2.746   1.102   7.811 -0.8445  0.2051 -0.0099
   27SAPC   H6X 3630   2.735   0.992   7.807  3.6387 -0.4395  0.2322
   27SAPC   H6Y 3631   2.649   1.156   7.825 -0.9561  0.4476 -1.5733
   27SAPC   C37 3632   2.834   1.150   7.930  0.4697  0.3353  0.7255
   27SAPC   H7X 3633   2.847   1.258   7.911 -1.8519  0.6265  0.4934
   27SAPC   H7Y 3634   2.937   1.109   7.922  0.4898  0.6379 -0.7896
   27SAPC   C38 3635   2.762   1.133   8.066 -0.5237  0.4777  0.3009
   27SAPC   H8X 3636   2.734   1.029   8.092 -0.4192  0.9753  2.6056
   27SAPC   H8Y 3637   2.670   1.196   8.063  0.0348  1.2790 -0.8389
   27SAPC   C39 3638   2.847   1.188   8.184  0.1297 -0.1017  0.3623
   27SAPC   H9X 3639   2.849   1.299   8.184  0.9868 -0.0941  1.2827
   27SAPC   H9Y 3640   2.949   1.147   8.168 -1.3280 -4.1544  0.2847
   27SAPC  C310 3641   2.795   1.152   8.325  0.7078 -0.5723 -0.7600
   27SAPC  H10X 3642   2.686   1.172   8.336  0.4017 -1.8739 -1.3018
   27SAPC  H10Y 3643   2.843   1.225   8.394 -1.3721  0.5224 -0.3731
   27SAPC  C311 3644   2.817   1.013   8.375 -0.2976  0.1997  0.0505
   27SAPC  H11X 3645   2.925   0.992   8.388  0.0098 -0.2359 -2.5746
   27SAPC  H11Y 3646   2.780   0.949   8.292  2.5976  0.3011 -1.4436
   27SAPC  C312 3647   2.734   0.975   8.498 -0.0870 -0.1069 -0.1910
   27SAPC  H12X 3648   2.629   1.000   8.472  0.3942  3.9663  0.9736
   27SAPC  H12Y 3649   2.758   1.043   8.583 -1.6101 -1.5072  1.4209
   27SAPC  C313 3650   2.743   0.827   8.530 -0.1968 -0.6241 -0.1153
   27SAPC  H13X 3651   2.695   0.821   8.630  0.0661  0.5386  0.1049
   27SAPC  H13Y 3652   2.852   0.806   8.540  0.2259  0.8939 -1.0714
   27SAPC  C314 3653   2.679   0.731   8.433  0.0779 -0.0058  0.3795
   27SAPC  H14X 3654   2.726   0.745   8.333 -0.0417  0.5386  0.3985
   27SAPC  H14Y 3655   2.570   0.747   8.419  0.5683  1.5854 -2.2802
   27SAPC  C315 3656   2.704   0.585   8.456 -0.0165  0.9338  0.6002
   27SAPC  H15X 3657   2.660   0.561   8.555  0.1184  1.1831  0.7234
   27SAPC  H15Y 3658   2.810   0.554   8.473 -0.7490 -2.6194 -0.5282
   27SAPC  C316 3659   2.654   0.491   8.342  0.0395  0.2789  0.7244
   27SAPC  H16X 3660   2.710   0.511   8.248  0.4228  0.2721  0.9502
   27SAPC  H16Y 3661   2.547   0.513   8.322  0.6617  2.9427 -0.1066
   27SAPC  C317 3662   2.677   0.347   8.381 -0.0265  0.1771 -1.1001
   27SAPC  H17X 3663   2.786   0.325   8.377 -0.2793 -1.1164 -1.4526
   27SAPC  H17Y 3664   2.635   0.281   8.303 -0.1672 -0.9102 -0.1450
   27SAPC  C318 3665   2.603   0.307   8.513 -0.4068 -1.1753 -0.3309
   27SAPC  H18X 3666   2.637   0.356   8.607 -0.0642  0.2433 -1.1588
   27SAPC  H18Y 3667   2.610   0.198   8.533 -0.2448 -1.2375 -0.7138
   27SAPC  H18Z 3668   2.500   0.345   8.504 -0.2613 -0.0495  2.0310
   28SAPC     N 3669   1.543   3.598   6.583  0.0346  0.8826 -0.1447
   28SAPC   C12 3670   1.557   3.483   6.487  0.7022 -0.0882 -0.0251
   28SAPC  H12A 3671   1.624   3.409   6.528 -1.1688 -1.1932  1.1496
   28SAPC  H12B 3672   1.610   3.510   6.397  0.5226 -1.6462 -0.6262
   28SAPC   C13 3673   1.674   3.652   6.615  0.1770  0.2100 -0.2001
   28SAPC  H13A 3674   1.740   3.577   6.655 -2.3870 -2.4764 -0.6514
   28SAPC  H13B 3675   1.725   3.680   6.523  0.0705 -2.2475 -1.0691
   28SAPC  H13C 3676   1.670   3.729   6.691 -0.3805 -0.1265  0.1102
   28SAPC   C14 3677   1.445   3.699   6.543  0.5880 -1.2711 -0.8408
   28SAPC  H14A 3678   1.345   3.659   6.537 -0.2374  0.7100 -1.0760
   28SAPC  H14B 3679   1.439   3.760   6.631 -1.2689  0.2238 -1.9266
   28SAPC  H14C 3680   1.465   3.744   6.447 -0.0769 -0.8875 -0.8006
   28SAPC   C15 3681   1.496   3.527   6.720  0.0407 -1.2376  0.3642
   28SAPC  H15A 3682   1.396   3.496   6.693 -0.4600  0.2682  0.3515
   28SAPC  H15B 3683   1.556   3.444   6.752  0.6304 -0.3150  1.7280
   28SAPC  H15C 3684   1.475   3.601   6.796  0.2816  1.8674 -2.3267
   28SAPC   C11 3685   1.424   3.407   6.444 -0.0060  0.3636  0.1382
   28SAPC  H11A 3686   1.366   3.387   6.537 -0.1267  0.9911  0.2043
   28SAPC  H11B 3687   1.460   3.309   6.407  0.2276  0.2324  0.7005
   28SAPC     P 3688   1.204   3.499   6.343 -0.0033 -0.0814  0.4867
   28SAPC   O13 3689   1.175   3.623   6.421  0.1418 -0.7323  0.4588
   28SAPC   O14 3690   1.155   3.498   6.202 -0.9145 -0.1190  0.5649
   28SAPC   O12 3691   1.364   3.477   6.336 -0.2217  0.0521 -0.9680
   28SAPC   O11 3692   1.136   3.378   6.424 -0.4421 -0.3787  0.1075
   28SAPC    C1 3693   1.002   3.397   6.451 -0.0967  0.1645  0.5752
   28SAPC    HA 3694   0.955   3.469   6.381  0.5848 -0.3781 -0.4718
   28SAPC    HB 3695   0.948   3.302   6.430 -0.3113  0.5937 -0.9120
   28SAPC    C2 3696   0.974   3.431   6.595  0.5827 -0.5938 -0.3894
   28SAPC    HS 3697   1.017   3.530   6.619  1.2157 -0.9662  0.0571
   28SAPC   O21 3698   1.021   3.315   6.667 -0.1980  0.2607 -0.1170
   28SAPC   C21 3699   1.144   3.333   6.714  0.8358 -0.2590  0.4941
   28SAPC   O22 3700   1.201   3.440   6.720  0.2248  0.1636 -0.5952
   28SAPC   C22 3701   1.188   3.207   6.785 -0.3170  0.0520  0.0032
   28SAPC   H2R 3702   1.114   3.168   6.857  0.3644 -2.0134 -0.3565
   28SAPC   H2S 3703   1.210   3.129   6.709 -0.4145 -0.5058  0.5425
   28SAPC    C3 3704   0.821   3.454   6.620  0.0304 -0.3611  0.2690
   28SAPC    HX 3705   0.770   3.372   6.566  1.2311 -0.1648 -1.2550
   28SAPC    HY 3706   0.805   3.553   6.571 -1.3368 -0.7987 -0.1941
   28SAPC   O31 3707   0.774   3.457   6.753  0.4680  0.8920  0.4102
   28SAPC   C31 3708   0.826   3.543   6.842 -0.6318  0.5878 -0.2935
   28SAPC   O32 3709   0.909   3.628   6.827 -0.1959 -0.6367 -0.1046
   28SAPC   C32 3710   0.778   3.495   6.979  0.5588 -0.4492  0.5657
   28SAPC   H2X 3711   0.753   3.386   6.976 -1.4698 -0.0380  1.2349
   28SAPC   H2Y 3712   0.697   3.563   7.011  1.0176 -0.0502  0.8880
   28SAPC   C23 3713   1.314   3.230   6.877 -0.6675 -0.0370  0.6412
   28SAPC   H3R 3714   1.293   3.307   6.955 -1.6119  1.2748 -0.8611
   28SAPC   H3S 3715   1.394   3.273   6.813 -2.1004 -0.8643 -1.8424
   28SAPC   C24 3716   1.355   3.098   6.942  0.1013 -0.3673 -0.4103
   28SAPC   H4R 3717   1.264   3.065   6.997  1.1830 -2.1440  0.4414
   28SAPC   H4S 3718   1.377   3.028   6.859  2.6122  0.8752 -0.9040
   28SAPC   C25 3719   1.473   3.113   7.029 -0.6583  0.1512  0.0447
   28SAPC   H5R 3720   1.570   3.132   6.982 -0.8698  0.4836 -0.2538
   28SAPC   C26 3721   1.484   3.092   7.160  0.0238 -0.6191 -0.2561
   28SAPC   H6R 3722   1.582   3.101   7.208  0.7125 -0.6117 -1.6240
   28SAPC   C27 3723   1.379   3.044   7.252  0.0069 -0.0126  0.0774
   28SAPC   H7R 3724   1.277   3.044   7.208  0.3300 -1.5847 -0.7195
   28SAPC   H7S 3725   1.377   3.112   7.340 -2.4110  0.6949 -0.4484
   28SAPC   C28 3726   1.416   2.899   7.303  0.1366  0.0726  0.2793
   28SAPC   H8R 3727   1.385   2.822   7.232  0.4079 -0.1324  0.3820
   28SAPC   C29 3728   1.473   2.863   7.422 -0.3344 -0.4851 -0.0043
   28SAPC   H9R 3729   1.485   2.754   7.434 -1.9030 -0.8144 -1.0749
   28SAPC  C210 3730   1.518   2.961   7.522 -0.2953  0.3681 -1.0217
   28SAPC  H10R 3731   1.491   3.066   7.498 -0.3907  0.5677 -0.1106
   28SAPC  H10S 3732   1.629   2.968   7.522 -0.0828 -1.2398  1.7833
   28SAPC  C211 3733   1.476   2.934   7.657 -1.1474  0.5599 -0.3429
   28SAPC  H11R 3734   1.414   2.844   7.671 -0.0082 -0.3354 -0.9169
   28SAPC  C212 3735   1.511   3.001   7.772  0.1778  0.0037 -0.3760
   28SAPC  H12R 3736   1.472   2.969   7.869 -1.5837  0.0057 -1.0427
   28SAPC  C213 3737   1.588   3.130   7.773 -0.1844  0.0810 -0.1619
   28SAPC  H13R 3738   1.575   3.189   7.866  0.0813  0.0425 -0.1028
   28SAPC  H13S 3739   1.537   3.181   7.688  1.0589 -1.6891 -2.0675
   28SAPC  C214 3740   1.731   3.117   7.732 -0.0816 -0.3624 -0.4695
   28SAPC  H14R 3741   1.754   3.130   7.625  1.6760  2.8577  0.1738
   28SAPC  C215 3742   1.834   3.091   7.814 -0.7006  0.8051  0.3378
   28SAPC  H15R 3743   1.934   3.105   7.769 -1.3844  1.2994 -1.0680
   28SAPC  C216 3744   1.817   3.068   7.964 -0.2066  0.2902 -0.7388
   28SAPC  H16R 3745   1.717   3.089   8.008  0.2961  1.4825 -0.1185
   28SAPC  H16S 3746   1.890   3.130   8.019 -1.1831 -1.0128  2.2359
   28SAPC  C217 3747   1.845   2.924   8.008 -0.2749  0.6184  0.5579
   28SAPC  H17R 3748   1.927   2.869   7.957  1.0297  0.2098  2.9418
   28SAPC  H17S 3749   1.760   2.862   7.973  0.4509  1.9605 -4.3728
   28SAPC  C218 3750   1.865   2.909   8.159 -0.0765  0.2775  0.1742
   28SAPC  H18R 3751   1.800   2.973   8.223 -1.9928  0.2651 -1.6861
   28SAPC  H18S 3752   1.968   2.948   8.173  0.2099 -1.1365  2.7749
   28SAPC  C219 3753   1.862   2.766   8.219 -0.3968 -0.5565  0.1247
   28SAPC  H19R 3754   1.914   2.768   8.317  0.8301  1.7747 -0.5188
   28SAPC  H19S 3755   1.919   2.698   8.151  0.5211 -1.7789  2.0278
   28SAPC  C220 3756   1.722   2.704   8.231 -0.1052  0.7788  0.1878
   28SAPC  H20R 3757   1.682   2.700   8.128  2.0117  1.2157 -0.7096
   28SAPC  H20S 3758   1.666   2.769   8.302  1.6959 -0.2861  2.7562
   28SAPC  H20T 3759   1.726   2.608   8.286 -2.5477 -1.8750 -3.7936
   28SAPC   C33 3760   0.892   3.491   7.083  0.2773  0.0226 -0.8241
   28SAPC   H3X 3761   0.920   3.591   7.121 -0.3711 -0.4168  0.8777
   28SAPC   H3Y 3762   0.976   3.431   7.040  0.3589  1.3285 -2.6078
   28SAPC   C34 3763   0.846   3.413   7.206 -0.1025  0.1492 -0.2933
   28SAPC   H4X 3764   0.931   3.369   7.263  0.8810  1.4141 -0.7403
   28SAPC   H4Y 3765   0.767   3.341   7.176 -0.3880 -1.2446  3.3019
   28SAPC   C35 3766   0.767   3.499   7.301  0.2273  0.3783  0.0414
   28SAPC   H5X 3767   0.683   3.542   7.243 -0.1316  1.0362  1.0156
   28SAPC   H5Y 3768   0.828   3.584   7.340  0.7080 -0.8938  2.2617
   28SAPC   C36 3769   0.712   3.440   7.434 -0.4957  0.4028 -0.3599
   28SAPC   H6X 3770   0.793   3.403   7.501 -0.1453  1.2980 -0.2685
   28SAPC   H6Y 3771   0.646   3.356   7.405 -0.6410  1.1902 -2.5259
   28SAPC   C37 3772   0.633   3.544   7.508 -0.1266  0.2865 -0.7123
   28SAPC   H7X 3773   0.540   3.578   7.457  0.6065  0.4432 -1.9886
   28SAPC   H7Y 3774   0.699   3.633   7.513  0.7895 -0.2595 -2.4649
   28SAPC   C38 3775   0.597   3.511   7.652  0.3238 -0.1073 -0.3300
   28SAPC   H8X 3776   0.684   3.498   7.719 -0.7468  1.8106  1.5680
   28SAPC   H8Y 3777   0.551   3.411   7.664  3.3684 -1.3327  2.7874
   28SAPC   C39 3778   0.505   3.613   7.714 -0.2644  0.0197 -0.3822
   28SAPC   H9X 3779   0.411   3.588   7.660  0.5298 -0.5123 -1.5906
   28SAPC   H9Y 3780   0.534   3.719   7.700 -0.3403 -0.1276 -1.8619
   28SAPC  C310 3781   0.498   3.600   7.869 -0.1175  0.5327  0.4228
   28SAPC  H10X 3782   0.470   3.495   7.892 -0.3304  0.2636 -1.0253
   28SAPC  H10Y 3783   0.410   3.665   7.891  0.1415  0.5092  1.6192
   28SAPC  C311 3784   0.626   3.648   7.940 -0.0954  0.0138  0.2925
   28SAPC  H11X 3785   0.664   3.737   7.885 -2.8203  1.1843  0.1281
   28SAPC  H11Y 3786   0.698   3.564   7.924 -1.7713 -1.2757 -0.8540
   28SAPC  C312 3787   0.600   3.692   8.086 -0.1238  0.1566 -0.5226
   28SAPC  H12X 3788   0.537   3.784   8.080  0.2574  0.4079 -0.7263
   28SAPC  H12Y 3789   0.699   3.724   8.126 -0.4156  2.1097 -1.2321
   28SAPC  C313 3790   0.550   3.577   8.172  0.1045 -0.8726 -0.0765
   28SAPC  H13X 3791   0.607   3.486   8.143  0.9785 -0.4910  0.4024
   28SAPC  H13Y 3792   0.448   3.556   8.135  0.5888  0.6141 -2.4819
   28SAPC  C314 3793   0.545   3.604   8.325  0.9189 -0.1916 -0.0550
   28SAPC  H14X 3794   0.492   3.701   8.334  0.1948 -0.3648 -1.9784
   28SAPC  H14Y 3795   0.653   3.616   8.347  0.7361  1.5257  0.0402
   28SAPC  C315 3796   0.495   3.494   8.407 -0.2805  0.3862 -0.2495
   28SAPC  H15X 3797   0.541   3.399   8.375 -1.2377 -0.2889  0.3182
   28SAPC  H15Y 3798   0.385   3.487   8.394 -0.4266  1.6756  0.1366
   28SAPC  C316 3799   0.524   3.520   8.554 -0.1164  1.1412  0.1732
   28SAPC  H16X 3800   0.448   3.589   8.597 -1.1991  0.2299 -0.2385
   28SAPC  H16Y 3801   0.623   3.570   8.565  0.6876 -0.1207 -1.0778
   28SAPC  C317 3802   0.525   3.385   8.629  0.5296 -0.2166  0.0163
   28SAPC  H17X 3803   0.536   3.401   8.738 -0.2232  2.6701 -0.2456
   28SAPC  H17Y 3804   0.620   3.334   8.600  0.1717 -1.8555  1.5567
   28SAPC  C318 3805   0.400   3.304   8.613 -0.3305 -0.1483  0.1253
   28SAPC  H18X 3806   0.420   3.207   8.663  0.8779  1.0933  2.1719
   28SAPC  H18Y 3807   0.383   3.287   8.504 -1.6243 -1.1512  0.4601
   28SAPC  H18Z 3808   0.309   3.347   8.660 -0.0169 -0.3553  0.9422
   29SAPC     N 3809   4.098   0.479   6.232 -0.0459  0.2991 -0.4754
   29SAPC   C12 3810   3.958   0.525   6.234  0.2876  0.1544 -0.1264
   29SAPC  H12A 3811   3.932   0.554   6.134 -2.8000  0.0598  0.5446
   29SAPC  H12B 3812   3.961   0.619   6.288 -0.5319 -0.1649  0.5036
   29SAPC   C13 3813   4.106   0.354   6.150 -0.4157  0.2964  0.6715
   29SAPC  H13A 3814   4.203   0.306   6.149 -0.6318 -0.1896  1.5687
   29SAPC  H13B 3815   4.033   0.279   6.176  0.6850 -1.2541 -0.5423
   29SAPC  H13C 3816   4.088   0.380   6.047  0.8056  0.9125  0.5883
   29SAPC   C14 3817   4.186   0.580   6.167 -0.7621  0.0334  0.4731
   29SAPC  H14A 3818   4.150   0.625   6.076 -3.1703  0.6582  1.6577
   29SAPC  H14B 3819   4.210   0.668   6.225  2.0433 -1.2245  1.3901
   29SAPC  H14C 3820   4.283   0.539   6.140  0.5701  2.8182  0.6936
   29SAPC   C15 3821   4.153   0.451   6.370 -0.5301 -0.1218 -0.6718
   29SAPC  H15A 3822   4.130   0.535   6.434 -1.3421 -0.6982 -0.1813
   29SAPC  H15B 3823   4.109   0.367   6.420  2.5417 -0.7799  1.1737
   29SAPC  H15C 3824   4.259   0.451   6.387 -0.3472  0.7652 -1.6994
   29SAPC   C11 3825   3.854   0.442   6.309  0.4067 -0.3374  0.0702
   29SAPC  H11A 3826   3.893   0.419   6.410  0.3100 -0.4035  0.0925
   29SAPC  H11B 3827   3.831   0.342   6.266 -0.6297 -1.2085  2.5041
   29SAPC     P 3828   3.703   0.627   6.415 -0.2175 -0.1492 -0.0402
   29SAPC   O13 3829   3.792   0.739   6.382  0.2846 -0.5914  0.0434
   29SAPC   O14 3830   3.559   0.653   6.426  0.2612 -0.1939  0.1426
   29SAPC   O12 3831   3.732   0.517   6.314 -0.5963 -0.5644  0.0179
   29SAPC   O11 3832   3.749   0.568   6.556  0.0964 -0.1170  0.1373
   29SAPC    C1 3833   3.813   0.645   6.658  0.5973  0.5209  0.8668
   29SAPC    HA 3834   3.916   0.672   6.624  0.9352  0.4722  1.8082
   29SAPC    HB 3835   3.772   0.746   6.679  0.9823  1.3060 -1.8747
   29SAPC    C2 3836   3.807   0.568   6.797 -0.8884  0.0407 -0.3405
   29SAPC    HS 3837   3.864   0.632   6.868 -2.2576  2.1730 -1.0508
   29SAPC   O21 3838   3.866   0.437   6.787  0.0943 -0.0701 -0.4788
   29SAPC   C21 3839   3.988   0.439   6.765 -0.2922 -0.2549 -0.4825
   29SAPC   O22 3840   4.062   0.542   6.762  0.7947  0.5294 -0.3736
   29SAPC   C22 3841   4.036   0.298   6.744 -0.7015  0.2615  0.4091
   29SAPC   H2R 3842   3.967   0.242   6.677  0.9743 -0.6469 -0.6371
   29SAPC   H2S 3843   4.131   0.305   6.687 -0.5261  0.9479  0.7701
   29SAPC    C3 3844   3.671   0.542   6.855 -0.0955  0.2344 -0.3586
   29SAPC    HX 3845   3.623   0.456   6.804 -1.1540 -0.9526  2.4378
   29SAPC    HY 3846   3.618   0.638   6.836 -1.6493 -0.6527 -0.6599
   29SAPC   O31 3847   3.684   0.517   6.996 -0.1840 -0.2087  0.1313
   29SAPC   C31 3848   3.566   0.544   7.062 -0.9635 -0.3855  0.3145
   29SAPC   O32 3849   3.472   0.604   7.019  0.0128  0.1184 -0.0904
   29SAPC   C32 3850   3.566   0.495   7.201  0.5713  0.6615  0.3969
   29SAPC   H2X 3851   3.466   0.519   7.244 -1.0367 -1.1916 -2.0408
   29SAPC   H2Y 3852   3.640   0.552   7.261 -0.1475  0.5425  1.4302
   29SAPC   C23 3853   4.049   0.219   6.879 -0.1478 -0.5617 -0.1054
   29SAPC   H3R 3854   4.038   0.110   6.862 -1.1594 -0.6936  1.2410
   29SAPC   H3S 3855   3.967   0.233   6.952  0.8851 -0.3287  1.0462
   29SAPC   C24 3856   4.185   0.264   6.941 -0.5608 -0.3111  0.0854
   29SAPC   H4R 3857   4.184   0.370   6.974  3.4477 -0.6254  1.7396
   29SAPC   H4S 3858   4.259   0.256   6.858 -0.1171 -1.4023  0.5715
   29SAPC   C25 3859   4.246   0.183   7.051 -0.2448  0.3663  0.1057
   29SAPC   H5R 3860   4.283   0.087   7.012 -1.8245 -0.2197 -0.0550
   29SAPC   C26 3861   4.263   0.218   7.180 -0.1032  0.3489 -0.3374
   29SAPC   H6R 3862   4.312   0.142   7.243 -1.5807 -0.6190 -0.3152
   29SAPC   C27 3863   4.217   0.348   7.247  0.3202  0.8865  0.4720
   29SAPC   H7R 3864   4.169   0.328   7.345 -0.1124 -0.3278  0.0344
   29SAPC   H7S 3865   4.126   0.391   7.199 -0.7529 -0.3009  1.3935
   29SAPC   C28 3866   4.320   0.456   7.261  0.2069  0.4349  0.0765
   29SAPC   H8R 3867   4.366   0.475   7.163  0.7660 -0.5506  0.1374
   29SAPC   C29 3868   4.339   0.537   7.361  0.4296 -0.2872  0.1134
   29SAPC   H9R 3869   4.404   0.624   7.343 -0.7701  0.0412 -3.6341
   29SAPC  C210 3870   4.279   0.528   7.498  0.2116 -0.2620  0.2063
   29SAPC  H10R 3871   4.169   0.513   7.492  0.3756 -0.9907 -2.0607
   29SAPC  H10S 3872   4.286   0.628   7.545 -0.5343 -0.9524  1.8877
   29SAPC  C211 3873   4.340   0.412   7.578 -0.4104 -0.1790 -0.0082
   29SAPC  H11R 3874   4.376   0.330   7.514 -1.6830 -0.6898 -0.1012
   29SAPC  C212 3875   4.344   0.397   7.713  0.1437  0.6224  0.1885
   29SAPC  H12R 3876   4.391   0.311   7.764  2.0059  2.7951  2.3991
   29SAPC  C213 3877   4.294   0.493   7.821  0.2531 -0.3244 -0.2058
   29SAPC  H13R 3878   4.230   0.441   7.895 -0.6404  0.5083 -0.3620
   29SAPC  H13S 3879   4.229   0.572   7.776 -2.9042 -3.0122 -0.7403
   29SAPC  C214 3880   4.414   0.564   7.877  1.1784 -0.0602 -0.2606
   29SAPC  H14R 3881   4.434   0.664   7.837  1.2338  0.7722  1.7394
   29SAPC  C215 3882   4.486   0.540   7.985  0.2875  0.4321 -0.9066
   29SAPC  H15R 3883   4.575   0.601   8.002  0.4776 -0.3615  1.3310
   29SAPC  C216 3884   4.461   0.428   8.083  0.3375 -0.1918 -0.0235
   29SAPC  H16R 3885   4.553   0.366   8.087 -1.0402 -2.5596 -1.9873
   29SAPC  H16S 3886   4.381   0.361   8.045 -0.3149  0.2246  0.6005
   29SAPC  C217 3887   4.415   0.481   8.217  0.0952 -0.3001 -0.1203
   29SAPC  H17R 3888   4.316   0.532   8.209  1.8828  3.1894 -3.3343
   29SAPC  H17S 3889   4.483   0.565   8.242  1.1422 -0.9473 -0.6929
   29SAPC  C218 3890   4.407   0.370   8.324  0.5916 -0.8122  0.1972
   29SAPC  H18R 3891   4.501   0.312   8.315  1.2451 -0.0180  1.5318
   29SAPC  H18S 3892   4.324   0.302   8.295  0.6158 -0.4279 -0.8117
   29SAPC  C219 3893   4.411   0.420   8.468 -0.3999  0.2175 -0.8684
   29SAPC  H19R 3894   4.434   0.338   8.539 -0.6723  1.1361  0.3144
   29SAPC  H19S 3895   4.310   0.452   8.500 -0.2211 -0.1801  0.1481
   29SAPC  C220 3896   4.510   0.538   8.498  0.4875  0.5637 -0.4434
   29SAPC  H20R 3897   4.513   0.558   8.607  1.4982  2.4153 -0.7651
   29SAPC  H20S 3898   4.474   0.630   8.448  3.4074  1.2677 -1.4426
   29SAPC  H20T 3899   4.613   0.517   8.463  0.2228  0.4983 -1.2075
   29SAPC   C33 3900   3.596   0.353   7.234  0.1670 -0.8222  0.2829
   29SAPC   H3X 3901   3.688   0.308   7.190  0.5305 -1.6010  1.7688
   29SAPC   H3Y 3902   3.516   0.279   7.210  0.6195 -1.2667  0.1240
   29SAPC   C34 3903   3.601   0.328   7.388  0.0031  0.8446 -0.3714
   29SAPC   H4X 3904   3.654   0.406   7.445 -0.9413  0.1468  1.5286
   29SAPC   H4Y 3905   3.645   0.228   7.406  0.0366  0.7956 -0.7073
   29SAPC   C35 3906   3.456   0.325   7.452 -0.2501 -0.5260 -0.2933
   29SAPC   H5X 3907   3.400   0.236   7.418 -0.7917  0.1182 -1.1218
   29SAPC   H5Y 3908   3.392   0.410   7.423 -1.4049 -0.6004  1.8450
   29SAPC   C36 3909   3.451   0.337   7.601 -0.2158  0.4344  0.1970
   29SAPC   H6X 3910   3.476   0.442   7.629 -3.5609  1.3532  0.2542
   29SAPC   H6Y 3911   3.521   0.266   7.650 -1.5217 -1.2243 -0.2373
   29SAPC   C37 3912   3.306   0.316   7.642  0.0115 -0.0277 -0.5305
   29SAPC   H7X 3913   3.267   0.222   7.597  1.1337 -0.1072 -1.3539
   29SAPC   H7Y 3914   3.245   0.402   7.607 -2.3451 -0.6031  1.7966
   29SAPC   C38 3915   3.298   0.310   7.800  0.4199 -0.0876 -0.5608
   29SAPC   H8X 3916   3.342   0.405   7.835 -0.8459  0.2536  0.1764
   29SAPC   H8Y 3917   3.370   0.232   7.833 -0.4257 -0.2204  1.0772
   29SAPC   C39 3918   3.165   0.266   7.871 -0.2952 -0.2167  0.2536
   29SAPC   H9X 3919   3.114   0.182   7.820  0.5561 -0.7841  0.3099
   29SAPC   H9Y 3920   3.097   0.353   7.888 -1.4361 -1.3366  1.6998
   29SAPC  C310 3921   3.184   0.207   8.014  0.3060  0.0267 -0.3326
   29SAPC  H10X 3922   3.223   0.284   8.083  1.6457 -1.6314  0.8588
   29SAPC  H10Y 3923   3.256   0.122   8.014 -1.5178 -1.6011  1.0599
   29SAPC  C311 3924   3.047   0.153   8.068 -0.3620 -0.5231  0.4368
   29SAPC  H11X 3925   2.985   0.126   7.980 -0.0724 -0.0061  0.0758
   29SAPC  H11Y 3926   2.992   0.234   8.120 -1.2963  0.0024 -1.2982
   29SAPC  C312 3927   3.070   0.026   8.157  0.1314 -0.3542  0.3664
   29SAPC  H12X 3928   3.121   0.061   8.250  0.7635 -1.9325  0.6510
   29SAPC  H12Y 3929   3.143  -0.037   8.101  0.4890  0.2924  0.1005
   29SAPC  C313 3930   2.947  -0.061   8.192  0.1335 -0.5659  0.4952
   29SAPC  H13X 3931   2.980  -0.164   8.219  0.3778 -0.2960  1.2553
   29SAPC  H13Y 3932   2.872  -0.077   8.112 -0.7222 -0.0565  1.1826
   29SAPC  C314 3933   2.872   0.006   8.314  0.5833  0.4939  0.1277
   29SAPC  H14X 3934   2.867   0.116   8.295  1.4606  0.4049 -0.7210
   29SAPC  H14Y 3935   2.941  -0.008   8.399 -1.2176  0.6036  1.6780
   29SAPC  C315 3936   2.733  -0.045   8.317  0.0916  0.1193 -0.6738
   29SAPC  H15X 3937   2.690   0.007   8.228  1.2134  2.7130  0.2041
   29SAPC  H15Y 3938   2.683   0.003   8.404  1.5291  1.5760 -0.6178
   29SAPC  C316 3939   2.714  -0.200   8.319 -0.0700 -0.8287 -0.0165
   29SAPC  H16X 3940   2.756  -0.239   8.224  1.4301  2.5203 -0.8967
   29SAPC  H16Y 3941   2.607  -0.226   8.332  0.2313 -1.2479  1.8878
   29SAPC  C317 3942   2.785  -0.268   8.438  0.3759 -0.6478 -0.1465
   29SAPC  H17X 3943   2.738  -0.234   8.533  2.1805  1.7155 -0.0291
   29SAPC  H17Y 3944   2.892  -0.241   8.437  0.0422  0.8027  0.4517
   29SAPC  C318 3945   2.758  -0.415   8.432 -0.1837  0.1628  0.0702
   29SAPC  H18X 3946   2.649  -0.433   8.443 -0.2302 -0.1130 -0.7786
   29SAPC  H18Y 3947   2.812  -0.460   8.518  1.2691  0.2312 -0.7752
   29SAPC  H18Z 3948   2.795  -0.474   8.345 -1.4297 -2.9517  1.4841
   30SAPC     N 3949   5.904   0.957   5.977 -0.7247  0.1923  0.1237
   30SAPC   C12 3950   6.018   1.054   5.935  0.0071 -0.9025 -0.5036
   30SAPC  H12A 3951   6.090   1.005   5.871  2.1431  0.2855  0.8803
   30SAPC  H12B 3952   6.071   1.100   6.017 -1.2334  1.9278 -1.1402
   30SAPC   C13 3953   5.967   0.827   6.033 -0.2392  0.2130  0.4684
   30SAPC  H13A 3954   6.033   0.774   5.966 -2.1310 -0.6311 -0.7857
   30SAPC  H13B 3955   6.028   0.837   6.122  1.4352 -0.9548 -0.5002
   30SAPC  H13C 3956   5.886   0.758   6.048 -2.3173  2.1663 -1.0595
   30SAPC   C14 3957   5.824   1.014   6.085  0.2550  0.4643  0.0699
   30SAPC  H14A 3958   5.892   1.044   6.163  1.3369  1.4633 -1.1930
   30SAPC  H14B 3959   5.771   1.100   6.047 -0.0795  1.4865  2.6683
   30SAPC  H14C 3960   5.758   0.943   6.131  1.1969  0.9962  2.3894
   30SAPC   C15 3961   5.814   0.928   5.857  0.2190  0.3071 -0.5703
   30SAPC  H15A 3962   5.788   1.025   5.819 -1.8841 -0.5235 -1.4260
   30SAPC  H15B 3963   5.865   0.889   5.770 -0.0318 -0.8249 -0.2325
   30SAPC  H15C 3964   5.735   0.859   5.883  1.7813 -2.1743 -1.9163
   30SAPC   C11 3965   5.977   1.190   5.861  0.2735  0.8215 -0.4193
   30SAPC  H11A 3966   5.920   1.172   5.767 -2.6762 -1.3430  1.6336
   30SAPC  H11B 3967   6.071   1.241   5.829 -0.0140  1.3988 -0.3592
   30SAPC     P 3968   5.956   1.370   6.064  0.2319  0.3947  0.0824
   30SAPC   O13 3969   6.012   1.483   5.992 -0.3842 -0.1441 -0.4450
   30SAPC   O14 3970   5.850   1.389   6.168 -0.1901 -0.5021  0.0933
   30SAPC   O12 3971   5.902   1.280   5.953 -0.2077  0.1426 -0.0857
   30SAPC   O11 3972   6.067   1.290   6.131 -0.6851  0.9139  0.0958
   30SAPC    C1 3973   6.211   1.329   6.128 -0.4203  0.0578  0.1520
   30SAPC    HA 3974   6.277   1.240   6.127  0.2484  0.4661  2.5889
   30SAPC    HB 3975   6.256   1.393   6.050  2.3369 -1.5961  0.2444
   30SAPC    C2 3976   6.259   1.396   6.270  0.2664 -0.8619  0.3158
   30SAPC    HS 3977   6.366   1.373   6.290  0.2347  0.2007  1.8875
   30SAPC   O21 3978   6.186   1.351   6.382  0.0448  0.1279  0.0282
   30SAPC   C21 3979   6.224   1.227   6.412  1.0366 -0.0644 -0.2369
   30SAPC   O22 3980   6.307   1.157   6.361 -0.0956  0.6595  0.1617
   30SAPC   C22 3981   6.140   1.178   6.535  0.6339 -0.1185  0.9390
   30SAPC   H2R 3982   6.060   1.251   6.557  1.2964  1.2202 -0.8451
   30SAPC   H2S 3983   6.098   1.081   6.500 -1.0574  1.1935 -0.8284
   30SAPC    C3 3984   6.253   1.547   6.255  0.0718  0.0010  0.0159
   30SAPC    HX 3985   6.166   1.579   6.194 -0.3450  0.5102  0.8512
   30SAPC    HY 3986   6.346   1.575   6.201 -0.3178  0.8353 -0.2459
   30SAPC   O31 3987   6.252   1.618   6.377 -0.0459  0.4040 -0.7311
   30SAPC   C31 3988   6.359   1.631   6.452  0.1940 -0.2998 -0.3736
   30SAPC   O32 3989   6.471   1.609   6.414  0.1843 -0.3009  0.0238
   30SAPC   C32 3990   6.331   1.677   6.597  0.5131 -0.5348  0.5709
   30SAPC   H2X 3991   6.228   1.648   6.627 -1.4954  1.2874 -3.7088
   30SAPC   H2Y 3992   6.332   1.788   6.588  4.1655 -0.3965  0.9255
   30SAPC   C23 3993   6.228   1.142   6.656  0.9655 -0.3278  0.5543
   30SAPC   H3R 3994   6.293   1.053   6.645 -1.0596 -1.6828 -1.1207
   30SAPC   H3S 3995   6.162   1.103   6.736 -2.7007 -0.3120 -2.2319
   30SAPC   C24 3996   6.307   1.265   6.713  0.3927 -0.0770 -0.3702
   30SAPC   H4R 3997   6.379   1.303   6.638  0.5268 -0.0856 -0.2452
   30SAPC   H4S 3998   6.357   1.219   6.801  0.1843 -1.2702 -0.8608
   30SAPC   C25 3999   6.218   1.380   6.743 -0.5798  0.9941  0.3894
   30SAPC   H5R 4000   6.197   1.447   6.658  1.4384 -0.0810 -1.0389
   30SAPC   C26 4001   6.157   1.392   6.862 -0.0807  0.4517  0.5174
   30SAPC   H6R 4002   6.099   1.484   6.876  2.3329  2.1486 -0.0431
   30SAPC   C27 4003   6.159   1.308   6.986  0.6527  0.1013  0.4665
   30SAPC   H7R 4004   6.250   1.244   6.991  0.7516  0.2158  0.1183
   30SAPC   H7S 4005   6.072   1.240   6.986  0.4440  0.2429 -2.6096
   30SAPC   C28 4006   6.166   1.398   7.108 -0.6746 -0.1072  0.0806
   30SAPC   H8R 4007   6.262   1.447   7.128 -0.6543 -0.4721  0.9042
   30SAPC   C29 4008   6.097   1.379   7.220  0.3151  0.1155 -0.1862
   30SAPC   H9R 4009   6.111   1.445   7.307 -1.9033  0.1358  0.2121
   30SAPC  C210 4010   5.970   1.302   7.246  0.1178 -0.0038 -0.0168
   30SAPC  H10R 4011   5.905   1.307   7.156  0.1181  2.6451  0.0388
   30SAPC  H10S 4012   5.924   1.344   7.338  4.2506  2.1014  1.3305
   30SAPC  C211 4013   6.008   1.166   7.283 -1.1654 -0.1879 -0.7557
   30SAPC  H11R 4014   6.020   1.090   7.204  0.3259 -0.9454  0.1536
   30SAPC  C212 4015   6.043   1.125   7.410 -0.0709 -0.4117  0.5009
   30SAPC  H12R 4016   6.072   1.019   7.420 -0.4262 -0.5838 -0.2665
   30SAPC  C213 4017   6.056   1.203   7.534 -0.0651 -0.7553 -0.1139
   30SAPC  H13R 4018   6.040   1.312   7.519 -0.8810 -1.1135 -2.1176
   30SAPC  H13S 4019   6.159   1.186   7.570  0.4972  0.8341 -0.9003
   30SAPC  C214 4020   5.938   1.161   7.630  0.2395  0.4382  0.3048
   30SAPC  H14R 4021   5.917   1.054   7.640  1.2523  0.4045  2.9896
   30SAPC  C215 4022   5.860   1.254   7.688 -0.1235  0.4910 -0.5147
   30SAPC  H15R 4023   5.779   1.203   7.742  2.4804 -3.9531 -0.3081
   30SAPC  C216 4024   5.861   1.406   7.689  0.2474 -0.5685  0.5669
   30SAPC  H16R 4025   5.753   1.425   7.700  0.3603 -0.0995  0.8827
   30SAPC  H16S 4026   5.892   1.446   7.589  0.9357  1.3657  1.5056
   30SAPC  C217 4027   5.943   1.482   7.795  0.2082  1.1064 -0.6598
   30SAPC  H17R 4028   5.925   1.591   7.782 -1.8004  0.9377  0.2939
   30SAPC  H17S 4029   6.050   1.467   7.769  0.2267 -0.5147  0.2155
   30SAPC  C218 4030   5.903   1.429   7.933 -0.0802  0.3181  0.3571
   30SAPC  H18R 4031   5.935   1.322   7.934  1.7473  0.8016 -1.0008
   30SAPC  H18S 4032   5.794   1.434   7.954 -0.0109 -0.7994  1.0958
   30SAPC  C219 4033   5.952   1.517   8.046  0.1055 -0.3219 -0.1090
   30SAPC  H19R 4034   5.897   1.613   8.048 -0.0924 -0.4418  0.3749
   30SAPC  H19S 4035   6.060   1.535   8.033  0.2443 -1.8960 -1.5545
   30SAPC  C220 4036   5.931   1.456   8.187  0.2512  0.4363 -0.2347
   30SAPC  H20R 4037   5.957   1.349   8.171  0.4526  0.5125 -0.4373
   30SAPC  H20S 4038   5.827   1.487   8.210 -0.4184 -0.1320 -2.2723
   30SAPC  H20T 4039   6.005   1.499   8.258 -1.5636  0.6871  1.5666
   30SAPC   C33 4040   6.447   1.636   6.703 -0.1257 -0.5169 -0.2051
   30SAPC   H3X 4041   6.528   1.711   6.690 -1.6088  1.4202  1.1099
   30SAPC   H3Y 4042   6.480   1.532   6.685 -0.2923 -0.8236  1.1361
   30SAPC   C34 4043   6.405   1.655   6.850  0.5135 -1.4538 -0.4679
   30SAPC   H4X 4044   6.304   1.616   6.875  0.6233 -1.6233 -0.2815
   30SAPC   H4Y 4045   6.400   1.764   6.869 -1.7051 -1.8207  1.6058
   30SAPC   C35 4046   6.505   1.609   6.953  0.1952 -0.0656  0.0648
   30SAPC   H5X 4047   6.608   1.629   6.915  0.5880  0.5183  1.3840
   30SAPC   H5Y 4048   6.498   1.500   6.969  2.7759 -0.2127  0.7163
   30SAPC   C36 4049   6.486   1.674   7.094 -0.7507  0.1768  0.4561
   30SAPC   H6X 4050   6.377   1.668   7.114 -0.9600  1.7406 -0.0748
   30SAPC   H6Y 4051   6.518   1.779   7.076  1.8367 -0.7604 -0.9022
   30SAPC   C37 4052   6.567   1.605   7.198  0.5518  1.0349  0.0753
   30SAPC   H7X 4053   6.676   1.595   7.179  0.7529 -0.8128  1.9454
   30SAPC   H7Y 4054   6.529   1.501   7.203  1.5687  0.6478 -0.0254
   30SAPC   C38 4055   6.566   1.665   7.341 -0.6990 -0.3494  0.5276
   30SAPC   H8X 4056   6.557   1.775   7.335  0.5487 -0.3316 -2.1883
   30SAPC   H8Y 4057   6.656   1.642   7.402  0.3489 -0.3920 -0.9881
   30SAPC   C39 4058   6.457   1.613   7.432  0.1278  0.0643  0.6694
   30SAPC   H9X 4059   6.457   1.502   7.425  1.8195  0.0285  0.8793
   30SAPC   H9Y 4060   6.359   1.656   7.403  1.0879  2.3754  0.6798
   30SAPC  C310 4061   6.476   1.657   7.578 -0.6145  0.7209  0.0041
   30SAPC  H10X 4062   6.490   1.767   7.569 -0.6093  0.6991 -0.2727
   30SAPC  H10Y 4063   6.574   1.613   7.604 -1.1230 -0.7167 -0.3994
   30SAPC  C311 4064   6.367   1.618   7.678  0.5070  0.3849 -0.2842
   30SAPC  H11X 4065   6.348   1.511   7.657 -0.4208  0.5993 -0.5718
   30SAPC  H11Y 4066   6.273   1.674   7.657  0.6153  0.3059 -1.0049
   30SAPC  C312 4067   6.410   1.647   7.820 -0.1786 -0.0797 -0.5038
   30SAPC  H12X 4068   6.389   1.755   7.828 -0.0682  0.0614 -1.9448
   30SAPC  H12Y 4069   6.519   1.628   7.831 -0.1431 -0.1437 -0.9362
   30SAPC  C313 4070   6.337   1.561   7.930  0.1889 -0.3336  0.2709
   30SAPC  H13X 4071   6.379   1.458   7.932 -0.0492 -0.4151  1.4085
   30SAPC  H13Y 4072   6.228   1.561   7.908  0.7107  1.8277 -3.2082
   30SAPC  C314 4073   6.354   1.627   8.066  0.4538  0.0315 -0.0025
   30SAPC  H14X 4074   6.281   1.577   8.133  2.5784 -1.5775  1.2105
   30SAPC  H14Y 4075   6.330   1.735   8.052  2.7019  0.7556  1.1923
   30SAPC  C315 4076   6.494   1.607   8.121  0.1906 -0.4822 -0.7495
   30SAPC  H15X 4077   6.573   1.659   8.063 -0.0464  1.2304  0.3776
   30SAPC  H15Y 4078   6.531   1.503   8.113 -1.5805 -1.1122 -1.1197
   30SAPC  C316 4079   6.509   1.652   8.267  0.2329 -0.1318 -0.2396
   30SAPC  H16X 4080   6.480   1.758   8.283 -1.3022 -0.4735 -0.5249
   30SAPC  H16Y 4081   6.609   1.633   8.311 -0.2339 -1.0518  0.4551
   30SAPC  C317 4082   6.419   1.571   8.365  0.0115 -0.0475  0.2352
   30SAPC  H17X 4083   6.428   1.462   8.343 -1.0150 -0.0060 -0.4834
   30SAPC  H17Y 4084   6.312   1.594   8.342  0.2075 -0.4518 -1.1600
   30SAPC  C318 4085   6.438   1.615   8.514  0.2573  0.0721  0.0749
   30SAPC  H18X 4086   6.539   1.591   8.553 -1.4021 -2.1889  3.4443
   30SAPC  H18Y 4087   6.372   1.563   8.587  0.4103 -0.1612  0.0503
   30SAPC  H18Z 4088   6.440   1.725   8.526 -0.0970 -0.0517  1.3249
   31SAPC     N 4089   6.466   2.370   6.099 -0.1060  0.3734 -0.2634
   31SAPC   C12 4090   6.471   2.226   6.063 -0.5688  0.0938  0.0601
   31SAPC  H12A 4091   6.496   2.216   5.959  1.6764  0.7490  0.4979
   31SAPC  H12B 4092   6.369   2.190   6.069 -1.6256  2.5710 -1.4909
   31SAPC   C13 4093   6.359   2.405   6.192 -0.6112 -0.0634  0.5098
   31SAPC  H13A 4094   6.260   2.384   6.154  0.1823 -4.4362  0.3351
   31SAPC  H13B 4095   6.359   2.341   6.279 -1.3334  1.4418  1.6681
   31SAPC  H13C 4096   6.372   2.506   6.228 -0.4471 -0.1669  0.7368
   31SAPC   C14 4097   6.590   2.398   6.178 -0.0689  0.2128  0.2531
   31SAPC  H14A 4098   6.681   2.368   6.128  1.2094  1.6150  1.6155
   31SAPC  H14B 4099   6.599   2.499   6.215  0.6624 -0.3350  1.6644
   31SAPC  H14C 4100   6.594   2.337   6.267 -0.2460 -1.0071 -0.5598
   31SAPC   C15 4101   6.466   2.459   5.989 -0.6752  0.4577  0.1388
   31SAPC  H15A 4102   6.554   2.451   5.926 -1.4708  2.5360 -1.3238
   31SAPC  H15B 4103   6.378   2.445   5.928 -0.8837  0.1762  0.5000
   31SAPC  H15C 4104   6.467   2.560   6.025 -0.0317 -0.2456  2.2218
   31SAPC   C11 4105   6.565   2.127   6.137  0.2835 -0.0501 -0.2402
   31SAPC  H11A 4106   6.672   2.148   6.116  0.9486 -0.7178  2.1284
   31SAPC  H11B 4107   6.548   2.023   6.101 -0.8013 -0.0428  0.2188
   31SAPC     P 4108   6.473   2.019   6.358 -0.1989 -0.0539 -0.5305
   31SAPC   O13 4109   6.361   2.090   6.432  0.4256  0.2818 -0.1407
   31SAPC   O14 4110   6.439   1.913   6.262  0.4542 -0.6692  0.0760
   31SAPC   O12 4111   6.552   2.129   6.285  0.0710  0.5870 -0.3621
   31SAPC   O11 4112   6.581   1.960   6.457  0.2619 -0.1201 -0.3355
   31SAPC    C1 4113   6.701   1.911   6.398 -0.2543 -0.4156  0.4080
   31SAPC    HA 4114   6.700   1.800   6.409 -2.2500 -0.2511  2.9484
   31SAPC    HB 4115   6.706   1.933   6.290 -0.4974  1.4331  0.7401
   31SAPC    C2 4116   6.834   1.974   6.458 -0.1235  0.2309 -0.5567
   31SAPC    HS 4117   6.921   1.912   6.430 -0.1987  0.4196 -1.2185
   31SAPC   O21 4118   6.818   1.988   6.596  0.1278 -0.3013 -0.6877
   31SAPC   C21 4119   6.821   1.887   6.673  0.8240  0.4383 -0.7077
   31SAPC   O22 4120   6.857   1.770   6.643 -0.1703  0.3948 -0.2245
   31SAPC   C22 4121   6.776   1.937   6.815  0.7552 -0.1475 -0.1055
   31SAPC   H2R 4122   6.712   2.027   6.803 -2.1951 -2.2743 -1.6708
   31SAPC   H2S 4123   6.724   1.848   6.857  0.5196 -0.8358 -1.7695
   31SAPC    C3 4124   6.867   2.115   6.399 -0.1023 -0.1325 -0.2672
   31SAPC    HX 4125   6.804   2.195   6.444  2.2362 -0.2117  3.5373
   31SAPC    HY 4126   6.850   2.123   6.289 -1.0397  0.6903 -0.0760
   31SAPC   O31 4127   7.004   2.140   6.423 -0.5806 -0.2565 -0.8229
   31SAPC   C31 4128   7.038   2.269   6.443  0.0295  0.2930  0.5934
   31SAPC   O32 4129   6.962   2.363   6.429 -0.1774  0.7944 -0.8446
   31SAPC   C32 4130   7.189   2.288   6.451 -1.0521  0.1069 -0.2262
   31SAPC   H2X 4131   7.205   2.398   6.451  3.1718 -0.3247  0.1525
   31SAPC   H2Y 4132   7.236   2.253   6.357  0.8940  0.8492  0.4259
   31SAPC   C23 4133   6.891   1.974   6.912  0.0949  0.1814 -0.3110
   31SAPC   H3R 4134   6.877   2.079   6.945  0.7214  0.0333  0.4436
   31SAPC   H3S 4135   6.987   1.965   6.858 -1.0242  0.8327 -2.5087
   31SAPC   C24 4136   6.906   1.872   7.024 -1.0028  0.5736  0.2056
   31SAPC   H4R 4137   7.015   1.864   7.047 -0.2917 -0.5502 -2.9921
   31SAPC   H4S 4138   6.872   1.770   6.998  1.7813 -0.4297  0.1509
   31SAPC   C25 4139   6.826   1.926   7.145 -0.3213  0.5751  0.0215
   31SAPC   H5R 4140   6.725   1.966   7.126 -0.7348 -0.2348  0.4574
   31SAPC   C26 4141   6.856   1.901   7.275  0.2265  0.3267  0.1787
   31SAPC   H6R 4142   6.782   1.943   7.346 -1.1354  0.1342 -1.0682
   31SAPC   C27 4143   6.976   1.831   7.328  0.2541  0.1737 -0.7717
   31SAPC   H7R 4144   7.051   1.844   7.248 -0.6759  1.5459 -1.4480
   31SAPC   H7S 4145   6.964   1.722   7.346  1.3798  0.0884 -0.4720
   31SAPC   C28 4146   7.018   1.909   7.444  0.1737 -0.2262  0.3491
   31SAPC   H8R 4147   7.101   1.979   7.426  0.5809 -0.8598 -0.2806
   31SAPC   C29 4148   6.970   1.899   7.572  0.2535 -0.1067  0.6181
   31SAPC   H9R 4149   7.020   1.961   7.647 -0.2050  2.0216 -0.7458
   31SAPC  C210 4150   6.855   1.804   7.614 -0.6185  0.5136  0.7277
   31SAPC  H10R 4151   6.891   1.705   7.648 -0.1084  0.5399  0.2744
   31SAPC  H10S 4152   6.799   1.778   7.521 -2.0233 -0.1911  1.7342
   31SAPC  C211 4153   6.770   1.870   7.716 -0.1459 -0.3471  0.8533
   31SAPC  H11R 4154   6.693   1.932   7.669 -1.7378 -2.1573  0.9479
   31SAPC  C212 4155   6.765   1.857   7.849 -0.0990  0.1853 -0.5519
   31SAPC  H12R 4156   6.719   1.942   7.902 -1.0737 -0.8189  0.2752
   31SAPC  C213 4157   6.848   1.765   7.935  0.3391 -0.1819  0.4878
   31SAPC  H13R 4158   6.849   1.662   7.894  0.3926 -0.0666  0.1977
   31SAPC  H13S 4159   6.795   1.758   8.033  0.5054  0.2218  0.6109
   31SAPC  C214 4160   6.991   1.821   7.953 -0.4426 -0.3799 -0.0239
   31SAPC  H14R 4161   7.060   1.829   7.867  0.3715 -1.0653  0.5518
   31SAPC  C215 4162   7.043   1.877   8.061 -0.4195  0.5412 -0.2251
   31SAPC  H15R 4163   7.137   1.932   8.049 -1.5606  2.4074 -0.9480
   31SAPC  C216 4164   6.970   1.897   8.197 -0.3311  0.0971  0.2477
   31SAPC  H16R 4165   6.888   1.825   8.215  0.4538 -0.6834  0.8107
   31SAPC  H16S 4166   6.918   1.995   8.189  0.6620  0.6003 -0.3411
   31SAPC  C217 4167   7.063   1.891   8.313  0.5879  0.0350  1.0469
   31SAPC  H17R 4168   7.152   1.955   8.291 -0.1363  0.7897  0.2386
   31SAPC  H17S 4169   7.111   1.792   8.329  1.4151  0.0984 -0.7613
   31SAPC  C218 4170   7.005   1.945   8.448 -0.0229 -0.0818  0.1379
   31SAPC  H18R 4171   6.911   1.888   8.459  0.4655 -0.6686  1.5194
   31SAPC  H18S 4172   6.975   2.049   8.425 -2.9754 -0.6745  0.9510
   31SAPC  C219 4173   7.087   1.930   8.572 -0.7542  0.2610  0.2795
   31SAPC  H19R 4174   7.089   1.822   8.599  0.8928  0.3480  0.5533
   31SAPC  H19S 4175   7.041   1.986   8.656 -1.0894 -1.6691  1.4650
   31SAPC  C220 4176   7.229   1.987   8.547  0.1474  0.0587 -0.0222
   31SAPC  H20R 4177   7.211   2.088   8.505  0.0311  0.4335  0.8891
   31SAPC  H20S 4178   7.294   1.927   8.480  1.8175  2.0474 -0.2837
   31SAPC  H20T 4179   7.273   2.001   8.648 -1.9925  1.7525  0.7520
   31SAPC   C33 4180   7.245   2.217   6.581  0.0865  0.0844  0.0255
   31SAPC   H3X 4181   7.356   2.226   6.588  0.1066 -0.9443  1.2672
   31SAPC   H3Y 4182   7.224   2.109   6.565 -2.0681  0.5913 -0.8499
   31SAPC   C34 4183   7.173   2.254   6.708  0.4954 -0.6598  0.1670
   31SAPC   H4X 4184   7.067   2.219   6.705  0.3123 -0.0958 -0.2458
   31SAPC   H4Y 4185   7.162   2.365   6.714  0.9646 -0.6270  0.4947
   31SAPC   C35 4186   7.233   2.187   6.827 -0.0802 -0.1011  0.4163
   31SAPC   H5X 4187   7.334   2.233   6.829  0.0856 -0.4775  1.0239
   31SAPC   H5Y 4188   7.248   2.078   6.814 -1.3848 -0.1150 -1.4120
   31SAPC   C36 4189   7.167   2.219   6.965 -0.0097  0.2312  0.0334
   31SAPC   H6X 4190   7.062   2.183   6.973  0.6645 -1.4623  2.3775
   31SAPC   H6Y 4191   7.180   2.329   6.978 -0.7267  0.4203 -0.7193
   31SAPC   C37 4192   7.244   2.151   7.075  0.0435 -0.1111 -0.2386
   31SAPC   H7X 4193   7.354   2.160   7.063 -0.1093 -0.5129 -2.2258
   31SAPC   H7Y 4194   7.220   2.043   7.067 -1.2733  0.0765  0.7590
   31SAPC   C38 4195   7.194   2.189   7.210  0.8025 -0.4472 -0.8954
   31SAPC   H8X 4196   7.220   2.099   7.270 -1.4057 -1.2999 -1.1417
   31SAPC   H8Y 4197   7.083   2.194   7.211  0.7402 -1.3807  1.2091
   31SAPC   C39 4198   7.261   2.317   7.265 -0.0318 -0.2138 -0.0767
   31SAPC   H9X 4199   7.238   2.409   7.208  1.9484 -0.0085 -0.6315
   31SAPC   H9Y 4200   7.370   2.302   7.251  0.2619  2.4426 -1.1734
   31SAPC  C310 4201   7.245   2.340   7.414 -0.1538 -0.6896 -1.1507
   31SAPC  H10X 4202   7.311   2.424   7.444  2.3110 -1.9596 -2.6535
   31SAPC  H10Y 4203   7.263   2.247   7.472  0.9084  0.8677  1.1549
   31SAPC  C311 4204   7.100   2.384   7.462  0.0889 -0.1315  1.0342
   31SAPC  H11X 4205   7.031   2.311   7.414 -1.6101  1.5249  0.8800
   31SAPC  H11Y 4206   7.080   2.480   7.411  0.5986 -1.3373 -1.6381
   31SAPC  C312 4207   7.075   2.393   7.615 -0.0140  0.1491 -0.1647
   31SAPC  H12X 4208   6.993   2.464   7.638 -0.7591 -1.2175  1.6084
   31SAPC  H12Y 4209   7.169   2.429   7.663  0.5144  1.2181 -1.9057
   31SAPC  C313 4210   7.028   2.258   7.681  0.3175 -0.3436 -0.3217
   31SAPC  H13X 4211   7.101   2.174   7.690  1.3977  0.4135 -1.5447
   31SAPC  H13Y 4212   6.941   2.222   7.622  0.0506 -0.7813  0.3371
   31SAPC  C314 4213   6.977   2.275   7.824  0.0825 -0.4063 -0.2249
   31SAPC  H14X 4214   6.940   2.174   7.850 -0.0369 -0.7313 -1.6032
   31SAPC  H14Y 4215   6.884   2.336   7.820  0.1869 -0.1059  1.1671
   31SAPC  C315 4216   7.095   2.323   7.914  0.3202 -0.9132  0.0425
   31SAPC  H15X 4217   7.105   2.433   7.896 -1.1319 -0.4137  1.9352
   31SAPC  H15Y 4218   7.178   2.262   7.874  0.9238  1.1698 -2.1553
   31SAPC  C316 4219   7.076   2.291   8.064 -0.3698 -0.2768  0.1445
   31SAPC  H16X 4220   7.080   2.180   8.072  1.7344 -0.2684 -0.2966
   31SAPC  H16Y 4221   6.977   2.330   8.096 -2.0506 -1.6967 -2.8131
   31SAPC  C317 4222   7.191   2.350   8.144  0.2736 -0.4101  0.2858
   31SAPC  H17X 4223   7.188   2.459   8.125 -0.0273 -0.6896 -1.4376
   31SAPC  H17Y 4224   7.292   2.316   8.112  0.4733  1.4190 -1.1657
   31SAPC  C318 4225   7.172   2.325   8.294  0.9914  0.7141  0.2981
   31SAPC  H18X 4226   7.167   2.216   8.317 -0.6619  0.4396 -1.2485
   31SAPC  H18Y 4227   7.091   2.384   8.342  0.8315  0.4794  0.3194
   31SAPC  H18Z 4228   7.267   2.357   8.343  0.9422 -0.6239  1.3509
   32SAPC     N 4229   2.660   4.472   5.919 -0.2858 -0.0646  0.1335
   32SAPC   C12 4230   2.689   4.477   6.072  0.7945  0.1214 -0.3578
   32SAPC  H12A 4231   2.666   4.579   6.100  0.4119  0.0891 -0.5587
   32SAPC  H12B 4232   2.793   4.451   6.084  0.9300  1.1777  1.0254
   32SAPC   C13 4233   2.775   4.539   5.851 -0.0996  0.1559 -0.0802
   32SAPC  H13A 4234   2.777   4.645   5.871 -0.6799  0.0039  0.8240
   32SAPC  H13B 4235   2.863   4.485   5.883 -1.2972 -2.4623 -0.9396
   32SAPC  H13C 4236   2.760   4.521   5.746 -0.5881 -2.3885  0.3736
   32SAPC   C14 4237   2.639   4.333   5.867 -0.5904 -0.4669  0.8234
   32SAPC  H14A 4238   2.612   4.327   5.763  0.4980 -3.2117  0.6131
   32SAPC  H14B 4239   2.737   4.289   5.880 -0.7722 -1.0922  0.1191
   32SAPC  H14C 4240   2.569   4.280   5.931  0.3808 -0.2151  2.1353
   32SAPC   C15 4241   2.539   4.544   5.900 -0.0050 -0.2329  0.4556
   32SAPC  H15A 4242   2.463   4.468   5.908  0.9808 -1.2332  0.5260
   32SAPC  H15B 4243   2.520   4.629   5.965  2.8568 -0.2174  1.4170
   32SAPC  H15C 4244   2.523   4.577   5.798  2.9517  0.6508  0.1731
   32SAPC   C11 4245   2.609   4.373   6.169  0.5913  0.1053  0.2810
   32SAPC  H11A 4246   2.500   4.378   6.151  0.5347 -1.9209 -0.1078
   32SAPC  H11B 4247   2.629   4.402   6.275  1.4524  2.0888 -0.3717
   32SAPC     P 4248   2.805   4.187   6.160  0.4270 -0.3457 -0.1480
   32SAPC   O13 4249   2.859   4.136   6.032  0.7183 -0.0727  0.0982
   32SAPC   O14 4250   2.880   4.279   6.248  0.1258  0.3380 -0.9049
   32SAPC   O12 4251   2.654   4.240   6.142 -0.4951  0.7164  0.2293
   32SAPC   O11 4252   2.785   4.061   6.259  0.7024 -0.4283 -0.6284
   32SAPC    C1 4253   2.890   3.976   6.300  0.1908 -0.1863  0.3484
   32SAPC    HA 4254   2.877   3.879   6.247 -1.0930  2.0199 -3.7678
   32SAPC    HB 4255   2.993   4.010   6.274 -0.9819  0.2852 -4.7893
   32SAPC    C2 4256   2.864   3.960   6.457  0.5029 -0.1154  0.4485
   32SAPC    HS 4257   2.949   3.904   6.502  1.5691  1.8399  0.9656
   32SAPC   O21 4258   2.736   3.909   6.489 -0.2107  0.0347 -0.4596
   32SAPC   C21 4259   2.725   3.776   6.466  0.7076 -0.7834 -0.4441
   32SAPC   O22 4260   2.807   3.711   6.406 -0.3936 -0.6948  0.2225
   32SAPC   C22 4261   2.607   3.718   6.544  0.2480 -0.1935 -0.3098
   32SAPC   H2R 4262   2.576   3.793   6.619  0.1446  1.0980 -1.5914
   32SAPC   H2S 4263   2.523   3.699   6.474 -0.4056  1.9537 -0.1653
   32SAPC    C3 4264   2.874   4.095   6.534 -0.1898 -0.1223 -0.1511
   32SAPC    HX 4265   2.796   4.163   6.494  1.3006  2.2196  0.6741
   32SAPC    HY 4266   2.975   4.129   6.500 -0.6357  1.9352  0.4547
   32SAPC   O31 4267   2.870   4.061   6.669 -0.0755  0.4114 -0.4630
   32SAPC   C31 4268   2.757   4.101   6.729 -0.0745  0.2479 -0.4234
   32SAPC   O32 4269   2.657   4.152   6.681 -0.0669  0.4145  0.0187
   32SAPC   C32 4270   2.783   4.086   6.876  0.4511  0.3330  0.6568
   32SAPC   H2X 4271   2.872   4.149   6.894  1.8098 -0.8056 -1.6043
   32SAPC   H2Y 4272   2.822   3.984   6.896  2.6712  1.0771  0.3862
   32SAPC   C23 4273   2.637   3.585   6.617  0.6616 -0.4155  0.0386
   32SAPC   H3R 4274   2.694   3.520   6.547  0.2294  0.8898 -1.5994
   32SAPC   H3S 4275   2.543   3.529   6.635  1.5420 -2.6867 -1.9115
   32SAPC   C24 4276   2.731   3.599   6.736 -0.3071 -0.5226 -0.5000
   32SAPC   H4R 4277   2.686   3.674   6.805 -1.4088 -0.3117 -1.4149
   32SAPC   H4S 4278   2.837   3.631   6.725  0.2272 -0.3060  3.6241
   32SAPC   C25 4279   2.708   3.468   6.812 -0.6643 -0.1359  0.3341
   32SAPC   H5R 4280   2.782   3.389   6.791 -0.3643  0.3247 -0.3951
   32SAPC   C26 4281   2.622   3.436   6.905 -0.0352 -0.0796  0.2161
   32SAPC   H6R 4282   2.611   3.332   6.942 -1.1369  0.2991  1.0072
   32SAPC   C27 4283   2.523   3.540   6.954  0.2350 -0.3206  0.6741
   32SAPC   H7R 4284   2.487   3.597   6.866 -1.7971  2.3535  3.0241
   32SAPC   H7S 4285   2.570   3.602   7.034  2.0299 -1.8158  0.8372
   32SAPC   C28 4286   2.406   3.471   7.018  0.3159 -0.0380  0.4220
   32SAPC   H8R 4287   2.313   3.465   6.959  0.3902 -0.8676  0.3831
   32SAPC   C29 4288   2.412   3.414   7.140  0.2549 -0.5143  0.2525
   32SAPC   H9R 4289   2.323   3.358   7.173 -1.1392 -0.2932 -2.8184
   32SAPC  C210 4290   2.529   3.427   7.237  0.3651  0.0603 -0.1354
   32SAPC  H10R 4291   2.512   3.495   7.322  0.6397  0.3527 -0.3091
   32SAPC  H10S 4292   2.622   3.471   7.195  0.6428  0.1141  0.5273
   32SAPC  C211 4293   2.569   3.288   7.285  0.0415  0.6679 -0.4733
   32SAPC  H11R 4294   2.544   3.201   7.223 -2.5598 -1.5670  3.3028
   32SAPC  C212 4295   2.614   3.256   7.408  0.0880 -0.2893 -0.1609
   32SAPC  H12R 4296   2.646   3.153   7.432  1.6964  0.5599  1.5687
   32SAPC  C213 4297   2.646   3.347   7.523 -0.2958  0.0118 -0.5701
   32SAPC  H13R 4298   2.566   3.330   7.599  1.2124 -1.2203  0.8079
   32SAPC  H13S 4299   2.637   3.456   7.502 -3.7404 -0.0031  0.2436
   32SAPC  C214 4300   2.776   3.312   7.587  0.3124 -0.4551 -0.3489
   32SAPC  H14R 4301   2.862   3.360   7.538  1.2766 -0.8381  0.9190
   32SAPC  C215 4302   2.790   3.231   7.699  0.3348  0.6439  0.7373
   32SAPC  H15R 4303   2.888   3.205   7.741 -0.2228 -0.4615  1.3879
   32SAPC  C216 4304   2.685   3.159   7.773  0.0353  0.0060  0.0738
   32SAPC  H16R 4305   2.711   3.051   7.779 -2.3339 -0.5329  2.7336
   32SAPC  H16S 4306   2.585   3.162   7.724  0.3240 -0.6662 -0.5796
   32SAPC  C217 4307   2.668   3.213   7.920  0.2613 -0.2301 -0.7444
   32SAPC  H17R 4308   2.574   3.181   7.969 -0.8607  0.6907 -2.2076
   32SAPC  H17S 4309   2.654   3.323   7.918 -2.2346 -0.4899 -2.2108
   32SAPC  C218 4310   2.780   3.177   8.023  0.0942  0.4131  0.0821
   32SAPC  H18R 4311   2.867   3.243   8.003  0.1555  0.9979  2.1283
   32SAPC  H18S 4312   2.803   3.069   8.008  0.1854 -0.0723  3.1249
   32SAPC  C219 4313   2.734   3.200   8.166  0.0852 -0.1573  0.6022
   32SAPC  H19R 4314   2.636   3.147   8.173  0.2599 -0.5126  0.3373
   32SAPC  H19S 4315   2.715   3.310   8.170 -0.1725 -0.1364 -0.7253
   32SAPC  C220 4316   2.828   3.154   8.279 -0.3416 -0.0536 -0.8907
   32SAPC  H20R 4317   2.934   3.180   8.257 -0.5341 -0.5862 -2.5613
   32SAPC  H20S 4318   2.833   3.044   8.291 -1.0096 -0.2012 -1.8495
   32SAPC  H20T 4319   2.784   3.191   8.374  0.3219 -0.6173 -0.3553
   32SAPC   C33 4320   2.672   4.128   6.975 -0.7835 -0.2900 -0.2346
   32SAPC   H3X 4321   2.583   4.062   6.964 -0.3076 -1.5417  2.5105
   32SAPC   H3Y 4322   2.645   4.235   6.965  2.5087  0.7459  0.6323
   32SAPC   C34 4323   2.718   4.101   7.120  0.0668  0.2901 -0.8703
   32SAPC   H4X 4324   2.651   4.158   7.188 -0.8575 -2.2335  0.4914
   32SAPC   H4Y 4325   2.825   4.130   7.134  0.7947 -1.4980 -2.4052
   32SAPC   C35 4326   2.699   3.950   7.159 -0.2324  0.1464 -0.5397
   32SAPC   H5X 4327   2.766   3.888   7.094 -0.0906  0.6018 -0.8326
   32SAPC   H5Y 4328   2.594   3.924   7.136 -0.5017  0.6077  0.1447
   32SAPC   C36 4329   2.733   3.922   7.306  0.0513  0.4945  0.6914
   32SAPC   H6X 4330   2.757   4.023   7.347  1.3308 -0.8343  3.4274
   32SAPC   H6Y 4331   2.826   3.862   7.320 -1.1397 -2.1083 -1.6435
   32SAPC   C37 4332   2.614   3.880   7.400  0.3808  0.0180 -0.0543
   32SAPC   H7X 4333   2.558   3.788   7.373 -1.6535  1.0300  0.5097
   32SAPC   H7Y 4334   2.534   3.957   7.400 -0.3850 -0.7101 -1.6067
   32SAPC   C38 4335   2.646   3.871   7.549  0.1595 -0.1431 -0.1477
   32SAPC   H8X 4336   2.588   3.947   7.605  1.0664 -0.1943  0.8906
   32SAPC   H8Y 4337   2.750   3.905   7.566  0.5363 -0.5795 -1.4312
   32SAPC   C39 4338   2.631   3.732   7.610  0.1014  0.0607  0.3840
   32SAPC   H9X 4339   2.703   3.658   7.570  2.9302  1.7169  2.1012
   32SAPC   H9Y 4340   2.528   3.701   7.580 -0.4802  2.3493 -0.2021
   32SAPC  C310 4341   2.618   3.735   7.763  0.1189 -0.5213  0.2558
   32SAPC  H10X 4342   2.539   3.807   7.797  0.8365  0.4917 -0.1633
   32SAPC  H10Y 4343   2.718   3.772   7.794 -0.6563 -0.1585  2.4561
   32SAPC  C311 4344   2.592   3.599   7.832 -0.4655 -0.2627 -0.3218
   32SAPC  H11X 4345   2.666   3.526   7.796  0.6601  0.4105  0.5663
   32SAPC  H11Y 4346   2.492   3.556   7.807 -0.4385  0.4770 -1.7725
   32SAPC  C312 4347   2.622   3.601   7.981 -0.5344  0.7661 -0.2508
   32SAPC  H12X 4348   2.731   3.617   7.994 -0.5246 -0.9576  3.1615
   32SAPC  H12Y 4349   2.600   3.503   8.029  2.4619  0.3826  0.5595
   32SAPC  C313 4350   2.557   3.710   8.067 -0.4717 -0.0302 -0.4699
   32SAPC  H13X 4351   2.448   3.704   8.045 -0.9694  0.6633  1.6353
   32SAPC  H13Y 4352   2.593   3.809   8.032  1.4832 -0.7077 -0.5075
   32SAPC  C314 4353   2.577   3.687   8.212 -0.1545  0.5337  0.3234
   32SAPC  H14X 4354   2.683   3.710   8.237 -0.8097  0.7276  3.2081
   32SAPC  H14Y 4355   2.558   3.581   8.238  1.2585  1.0593  4.1804
   32SAPC  C315 4356   2.495   3.767   8.305 -0.0980 -0.1985  0.5261
   32SAPC  H15X 4357   2.390   3.738   8.286 -0.0213  0.3852 -0.8565
   32SAPC  H15Y 4358   2.499   3.877   8.293 -1.2988 -0.0078  1.6365
   32SAPC  C316 4359   2.533   3.741   8.454  0.3093 -0.2340  0.2302
   32SAPC  H16X 4360   2.631   3.792   8.458 -0.0360  0.4134  0.7038
   32SAPC  H16Y 4361   2.542   3.633   8.477 -1.5943 -0.4552  0.1398
   32SAPC  C317 4362   2.425   3.801   8.551 -0.2613 -0.3365  0.1093
   32SAPC  H17X 4363   2.442   3.782   8.659 -0.7554  0.0495  0.2599
   32SAPC  H17Y 4364   2.329   3.753   8.523 -0.3290  0.2906 -0.7717
   32SAPC  C318 4365   2.398   3.957   8.536 -0.1751  0.0555 -0.1651
   32SAPC  H18X 4366   2.346   3.973   8.439  2.1505 -1.8190 -1.8171
   32SAPC  H18Y 4367   2.488   4.022   8.539 -0.7308  0.9396 -1.4856
   32SAPC  H18Z 4368   2.326   3.991   8.614 -0.2411  0.6291 -0.4656
   33POPC     N 4369   3.730   4.535  10.804 -0.2559 -0.6146  0.0278
   33POPC   C12 4370   3.710   4.532  10.656  0.3885 -0.0048  0.1171
   33POPC  H12A 4371   3.802   4.549  10.604 -0.6168  0.9312 -1.4452
   33POPC  H12B 4372   3.657   4.625  10.637 -2.2629 -1.1841  1.1844
   33POPC   C13 4373   3.764   4.672  10.843  0.3368 -0.8359 -0.0803
   33POPC  H13A 4374   3.679   4.737  10.827 -0.5263 -2.0760 -0.6351
   33POPC  H13B 4375   3.771   4.685  10.950 -1.2261 -0.3196 -0.0238
   33POPC  H13C 4376   3.849   4.704  10.785  0.8763  0.9790  1.5931
   33POPC   C14 4377   3.607   4.485  10.881 -0.4233 -0.2623 -0.3466
   33POPC  H14A 4378   3.515   4.532  10.850 -1.0138 -0.4027  1.0822
   33POPC  H14B 4379   3.603   4.377  10.873  2.4120 -0.4316 -0.7590
   33POPC  H14C 4380   3.613   4.520  10.983 -2.4393  1.4957 -0.7714
   33POPC   C15 4381   3.860   4.454  10.834 -0.0638  0.2245  1.0160
   33POPC  H15A 4382   3.891   4.472  10.935  1.8474  1.1873  0.3027
   33POPC  H15B 4383   3.945   4.477  10.771 -0.8225 -1.8560 -0.9121
   33POPC  H15C 4384   3.842   4.348  10.826  0.3185  0.2161  0.1094
   33POPC   C11 4385   3.621   4.420  10.595  0.0128  0.2377  0.5937
   33POPC  H11A 4386   3.650   4.327  10.648  0.5954 -0.1857 -0.4464
   33POPC  H11B 4387   3.648   4.393  10.491 -2.6335 -2.6489  0.5332
   33POPC     P 4388   3.393   4.491  10.497  0.3790  0.3006 -0.4985
   33POPC   O13 4389   3.259   4.554  10.535  0.6243 -0.2681  0.1899
   33POPC   O14 4390   3.393   4.367  10.413  0.6769 -0.1633  0.4778
   33POPC   O12 4391   3.486   4.457  10.615 -0.3794 -0.3620 -0.5983
   33POPC   O11 4392   3.482   4.605  10.431  0.0296  0.1452 -0.4300
   33POPC    C1 4393   3.565   4.562  10.320 -0.6193 -0.0433 -0.3345
   33POPC    HA 4394   3.668   4.593  10.347 -1.3628  2.4258 -0.0983
   33POPC    HB 4395   3.566   4.453  10.297 -0.3860  0.3725 -2.5641
   33POPC    C2 4396   3.530   4.631  10.187 -0.1177 -0.3015 -0.0945
   33POPC    HS 4397   3.540   4.741  10.196  2.1351 -0.3245 -1.3767
   33POPC   O21 4398   3.400   4.596  10.133 -0.2328 -0.7379 -0.4096
   33POPC   C21 4399   3.295   4.664  10.174 -0.2933 -0.4498  0.9745
   33POPC   O22 4400   3.295   4.762  10.245  0.1702 -0.6592  0.2514
   33POPC   C22 4401   3.171   4.602  10.112 -0.3107 -0.1694  0.2816
   33POPC   H2R 4402   3.109   4.563  10.195  0.1142 -0.2820  0.5490
   33POPC   H2S 4403   3.204   4.518  10.048  2.5051  1.1196 -0.1493
   33POPC    C3 4404   3.638   4.586  10.071  0.0570  0.5338  0.4091
   33POPC    HX 4405   3.626   4.482  10.035  2.2625  0.0700  0.8186
   33POPC    HY 4406   3.743   4.584  10.108  1.4079  1.7325 -2.9750
   33POPC   O31 4407   3.631   4.674   9.955 -0.5589  0.0488  0.4812
   33POPC   C31 4408   3.745   4.677   9.885  0.1615  0.5933  0.2954
   33POPC   O32 4409   3.846   4.618   9.910 -0.4263 -0.8006 -0.8848
   33POPC   C32 4410   3.724   4.782   9.777  0.2248  0.0675  0.2040
   33POPC   H2X 4411   3.741   4.883   9.820  1.4643 -0.0659  0.0602
   33POPC   H2Y 4412   3.620   4.777   9.737 -0.0200 -0.2374  0.8668
   33POPC   C23 4413   3.087   4.705  10.040  0.7547  0.4273 -0.8267
   33POPC   H3R 4414   3.047   4.768  10.122  2.5116  0.4238  0.0933
   33POPC   H3S 4415   3.004   4.654   9.988  0.8771  0.4255 -1.0236
   33POPC   C24 4416   3.161   4.784   9.939  0.6695 -0.0290 -0.4176
   33POPC   H4R 4417   3.249   4.831   9.988 -2.3946  2.5340  3.2509
   33POPC   H4S 4418   3.099   4.866   9.897  2.0843  0.3936 -1.7872
   33POPC   C25 4419   3.203   4.688   9.822  0.2879 -0.3768 -0.2535
   33POPC   H5R 4420   3.116   4.651   9.763  0.1632 -0.5346  0.0248
   33POPC   H5S 4421   3.251   4.597   9.865 -2.1971 -1.8548 -0.4321
   33POPC   C26 4422   3.311   4.742   9.726  0.7679  0.4141 -0.7166
   33POPC   H6R 4423   3.391   4.791   9.785  0.6574 -0.7831  0.4782
   33POPC   H6S 4424   3.272   4.825   9.663 -1.3734 -1.5615 -2.1440
   33POPC   C27 4425   3.376   4.630   9.629 -0.6599  0.2230 -0.1849
   33POPC   H7R 4426   3.425   4.556   9.696  0.4457  1.3166  0.2472
   33POPC   H7S 4427   3.459   4.681   9.576 -0.4437 -1.0715 -1.1608
   33POPC   C28 4428   3.273   4.553   9.549 -0.1179  0.5635 -0.4061
   33POPC   H8R 4429   3.204   4.625   9.501 -0.1991 -0.0045 -1.1622
   33POPC   H8S 4430   3.204   4.509   9.624  0.1233  2.4174  0.9543
   33POPC   C29 4431   3.339   4.459   9.445  0.1816  0.1748 -0.2736
   33POPC   H91 4432   3.327   4.353   9.471 -2.3269  0.6411  0.7402
   33POPC  C210 4433   3.396   4.489   9.327  0.4250  0.3825  0.4754
   33POPC  H101 4434   3.437   4.416   9.256  2.1409  2.0784 -0.3733
   33POPC  C211 4435   3.414   4.622   9.285 -0.1038 -0.1803  1.1324
   33POPC  H11R 4436   3.443   4.689   9.368  0.1600  1.4259 -0.2037
   33POPC  H11S 4437   3.321   4.654   9.233 -0.0606 -1.8871 -0.0957
   33POPC  C212 4438   3.520   4.636   9.178  0.6265  0.9504 -0.5281
   33POPC  H12R 4439   3.611   4.585   9.213 -0.2140 -0.8184 -0.8275
   33POPC  H12S 4440   3.548   4.744   9.174  1.5355  0.6984 -1.5470
   33POPC  C213 4441   3.487   4.582   9.035 -0.5594 -0.0838  0.2424
   33POPC  H13R 4442   3.429   4.488   9.049  0.0897 -0.1262  3.4711
   33POPC  H13S 4443   3.574   4.559   8.970 -0.7543  1.0586 -0.4603
   33POPC  C214 4444   3.417   4.692   8.948 -0.2879  0.3610 -0.7060
   33POPC  H14R 4445   3.445   4.791   8.991 -1.8207  0.6940 -0.4229
   33POPC  H14S 4446   3.310   4.681   8.973  0.1384 -1.8316  0.4172
   33POPC  C215 4447   3.456   4.687   8.800  0.4567 -0.5616  0.0809
   33POPC  H15R 4448   3.451   4.579   8.772  2.5250 -1.1865  1.8307
   33POPC  H15S 4449   3.561   4.722   8.799 -0.3074  1.9075 -0.9649
   33POPC  C216 4450   3.359   4.766   8.713 -0.3460 -0.3424  0.2292
   33POPC  H16R 4451   3.366   4.874   8.741 -0.8462 -0.1539 -0.3457
   33POPC  H16S 4452   3.257   4.731   8.739 -0.0477 -1.3109  0.1209
   33POPC  C217 4453   3.401   4.744   8.570 -0.0447 -0.2720  0.3674
   33POPC  H17R 4454   3.332   4.678   8.513 -0.7070  0.3025  0.5025
   33POPC  H17S 4455   3.491   4.678   8.566 -0.0923 -0.2986 -2.6264
   33POPC  C218 4456   3.445   4.871   8.486  0.1676 -0.7496 -0.0161
   33POPC  H18R 4457   3.490   4.837   8.391  1.5184 -1.0476  0.7014
   33POPC  H18S 4458   3.525   4.932   8.533 -0.1579 -0.9402  0.8070
   33POPC  H18T 4459   3.359   4.935   8.458 -1.7600 -2.9079  0.6621
   33POPC   C33 4460   3.833   4.756   9.663 -0.0763 -0.1921  0.3251
   33POPC   H3X 4461   3.927   4.707   9.699  1.5892  1.3276 -1.7213
   33POPC   H3Y 4462   3.855   4.853   9.614  2.4955 -1.1539 -0.6123
   33POPC   C34 4463   3.772   4.664   9.562 -0.4433 -0.1076 -0.1366
   33POPC   H4X 4464   3.669   4.689   9.529 -0.4783  0.7427  0.5746
   33POPC   H4Y 4465   3.769   4.564   9.611 -0.3939 -0.2086 -0.3399
   33POPC   C35 4466   3.855   4.656   9.441  0.1525  1.1390 -0.2398
   33POPC   H5X 4467   3.841   4.556   9.394 -2.5302  1.0601  0.5678
   33POPC   H5Y 4468   3.964   4.654   9.466  0.3135  0.8691 -0.9469
   33POPC   C36 4469   3.837   4.766   9.330  0.4115 -0.1596 -0.5372
   33POPC   H6X 4470   3.874   4.859   9.379 -0.3169 -1.8929  3.7061
   33POPC   H6Y 4471   3.732   4.773   9.293  0.1983  0.0064  0.0762
   33POPC   C37 4472   3.932   4.745   9.204  0.2891  0.2113 -0.4327
   33POPC   H7X 4473   4.024   4.690   9.231  0.2396 -1.2889 -2.9451
   33POPC   H7Y 4474   3.958   4.844   9.162  1.8131  0.4523  1.0200
   33POPC   C38 4475   3.867   4.676   9.085  0.2829  0.4909  0.2627
   33POPC   H8X 4476   3.771   4.730   9.065 -0.6821 -0.9883  0.7136
   33POPC   H8Y 4477   3.830   4.576   9.116  0.9498  0.1832  0.0639
   33POPC   C39 4478   3.955   4.656   8.968 -0.5814 -0.0553  0.3134
   33POPC   H9X 4479   4.047   4.596   8.990  0.1099  0.4864 -0.9917
   33POPC   H9Y 4480   4.004   4.752   8.942  1.1834 -0.9022  0.2992
   33POPC  C310 4481   3.885   4.605   8.837 -0.1673 -0.0107  0.4049
   33POPC  H10X 4482   3.802   4.675   8.813  1.1501  1.3884 -0.2809
   33POPC  H10Y 4483   3.837   4.507   8.858  2.1306 -1.5347 -0.9051
   33POPC  C311 4484   3.972   4.568   8.722 -0.0793 -0.0867 -0.2483
   33POPC  H11X 4485   4.030   4.474   8.736  0.7927  0.6685  1.5212
   33POPC  H11Y 4486   4.051   4.646   8.720  1.2413 -1.3422  0.6564
   33POPC  C312 4487   3.878   4.570   8.604 -0.1418 -0.1250 -0.0010
   33POPC  H12X 4488   3.831   4.669   8.586  0.7463  0.4393  0.7017
   33POPC  H12Y 4489   3.798   4.492   8.608 -1.8103  1.3006 -2.5950
   33POPC  C313 4490   3.951   4.528   8.480 -0.6260  0.2282  0.1070
   33POPC  H13X 4491   4.002   4.431   8.499  0.0450  0.8353  1.6395
   33POPC  H13Y 4492   4.032   4.600   8.454 -0.8343 -0.3700 -2.4628
   33POPC  C314 4493   3.868   4.522   8.352  0.1321  0.2093 -0.1588
   33POPC  H14X 4494   3.771   4.468   8.365  0.8688 -1.2021 -0.2930
   33POPC  H14Y 4495   3.921   4.458   8.278  1.4481  3.0598 -1.8285
   33POPC  C315 4496   3.844   4.663   8.291  0.1407  0.4589  0.0875
   33POPC  H15X 4497   3.931   4.711   8.241  0.3407 -1.3618 -1.4148
   33POPC  H15Y 4498   3.819   4.736   8.371 -2.2055 -0.4263  0.2173
   33POPC  C316 4499   3.739   4.651   8.175  0.4456  0.7001  0.8095
   33POPC  H16X 4500   3.699   4.752   8.153 -1.6176  0.3424  2.5266
   33POPC  H16Y 4501   3.647   4.601   8.214 -0.0146  1.1323  0.2769
   33POPC  H16Z 4502   3.779   4.615   8.079 -0.4965  1.7280  0.0031
   34POPC     N 4503   5.336   5.598  10.883  0.4051 -0.2296 -0.1719
   34POPC   C12 4504   5.485   5.622  10.881 -0.3411 -0.5489 -0.3744
   34POPC  H12A 4505   5.535   5.529  10.902 -2.9238 -1.2914  3.8603
   34POPC  H12B 4506   5.519   5.686  10.962 -2.9695 -0.2264  0.5848
   34POPC   C13 4507   5.307   5.566  11.023 -0.0381 -0.6771  0.5638
   34POPC  H13A 4508   5.203   5.544  11.041 -0.4632  0.4985 -0.3778
   34POPC  H13B 4509   5.363   5.477  11.051  1.0553 -0.3475 -0.5071
   34POPC  H13C 4510   5.326   5.653  11.083 -0.1926  0.7432 -1.3735
   34POPC   C14 4511   5.254   5.716  10.838  0.4746  0.9190  0.1783
   34POPC  H14A 4512   5.271   5.716  10.731  0.4983 -3.2424  0.0403
   34POPC  H14B 4513   5.147   5.698  10.839  0.5617  0.2816 -0.5248
   34POPC  H14C 4514   5.280   5.799  10.902  0.6329  0.2289  1.0086
   34POPC   C15 4515   5.302   5.479  10.797  1.3337  0.3850  0.0557
   34POPC  H15A 4516   5.199   5.453  10.779  1.1801 -0.2728  1.7213
   34POPC  H15B 4517   5.349   5.389  10.834 -1.3713 -0.7488  1.0127
   34POPC  H15C 4518   5.332   5.498  10.695  1.9742  1.6956  0.4609
   34POPC   C11 4519   5.546   5.676  10.748  0.0549 -0.5419  0.2814
   34POPC  H11A 4520   5.653   5.689  10.774 -0.1905  1.1449  0.5415
   34POPC  H11B 4521   5.496   5.771  10.718  0.2742 -0.6950 -0.6079
   34POPC     P 4522   5.630   5.445  10.638 -0.6579 -0.0738 -0.0330
   34POPC   O13 4523   5.542   5.334  10.592  0.3266  0.1862 -1.1462
   34POPC   O14 4524   5.712   5.426  10.758 -0.3815 -0.0662  0.0333
   34POPC   O12 4525   5.539   5.578  10.646  0.3898 -0.2966  0.0871
   34POPC   O11 4526   5.726   5.472  10.520  1.2525 -0.3605 -0.6451
   34POPC    C1 4527   5.733   5.597  10.453  0.2495 -0.2098 -0.1393
   34POPC    HA 4528   5.835   5.614  10.414 -0.7305 -0.2473 -2.9771
   34POPC    HB 4529   5.714   5.681  10.524 -2.1354 -1.1106  0.3808
   34POPC    C2 4530   5.636   5.608  10.329 -0.2082  0.7860  0.2959
   34POPC    HS 4531   5.534   5.590  10.369 -0.2966  1.1435  0.2394
   34POPC   O21 4532   5.677   5.507  10.237  0.6043 -0.0533 -0.3082
   34POPC   C21 4533   5.575   5.444  10.185 -0.8076 -0.3461  0.2756
   34POPC   O22 4534   5.458   5.468  10.202 -0.2330 -0.2701  0.3860
   34POPC   C22 4535   5.625   5.336  10.094 -0.1254 -0.1659 -0.4237
   34POPC   H2R 4536   5.672   5.251  10.148 -4.6418 -3.1368 -0.6338
   34POPC   H2S 4537   5.706   5.376  10.030  0.0330  0.9099  0.4292
   34POPC    C3 4538   5.645   5.747  10.264  0.0811  0.1741 -0.0828
   34POPC    HX 4539   5.754   5.765  10.259 -0.1028  1.5535  0.5927
   34POPC    HY 4540   5.589   5.818  10.328 -0.9904 -1.2974  0.6824
   34POPC   O31 4541   5.591   5.744  10.131  0.0325 -0.1777  0.8960
   34POPC   C31 4542   5.464   5.756  10.117  0.4790  0.1563  0.2528
   34POPC   O32 4543   5.388   5.803  10.198  0.3012  0.1975  0.2418
   34POPC   C32 4544   5.421   5.725   9.971 -0.2943 -0.0473  0.1655
   34POPC   H2X 4545   5.316   5.760   9.961  0.5333  2.4933 -0.5834
   34POPC   H2Y 4546   5.435   5.617   9.951  0.3518 -0.2770  1.7299
   34POPC   C23 4547   5.523   5.269  10.009  0.3114 -0.1487 -0.0347
   34POPC   H3R 4548   5.463   5.353   9.968 -0.9940 -1.4098 -0.8557
   34POPC   H3S 4549   5.448   5.216  10.073 -1.6885  0.9015 -1.3912
   34POPC   C24 4550   5.572   5.177   9.888 -0.0954  0.0656  0.0378
   34POPC   H4R 4551   5.481   5.126   9.850 -0.4142  0.0747  0.7860
   34POPC   H4S 4552   5.623   5.087   9.927 -1.1258  0.1686  1.7169
   34POPC   C25 4553   5.637   5.256   9.768 -1.0506  0.7565 -0.2045
   34POPC   H5R 4554   5.655   5.183   9.686  0.5512  1.3427 -0.4085
   34POPC   H5S 4555   5.742   5.280   9.798 -0.5024  0.0276 -1.4706
   34POPC   C26 4556   5.564   5.367   9.703 -0.3795  0.0533  0.0177
   34POPC   H6R 4557   5.630   5.384   9.616  1.5000 -0.4779  1.2792
   34POPC   H6S 4558   5.568   5.448   9.779  1.4880  0.3597 -0.3711
   34POPC   C27 4559   5.419   5.331   9.679 -0.1183 -0.1884  0.4434
   34POPC   H7R 4560   5.356   5.420   9.661  1.0337  0.8590  1.4250
   34POPC   H7S 4561   5.365   5.285   9.765 -0.7155  0.0918  0.2274
   34POPC   C28 4562   5.390   5.244   9.556  0.3627  0.1424  0.2086
   34POPC   H8R 4563   5.280   5.224   9.557  0.1830  1.0850  0.1446
   34POPC   H8S 4564   5.438   5.144   9.563  0.4088  0.1145 -0.4424
   34POPC   C29 4565   5.406   5.313   9.419 -0.5341  0.8015 -0.1640
   34POPC   H91 4566   5.313   5.360   9.383 -2.8294 -3.0607  0.0529
   34POPC  C210 4567   5.512   5.316   9.340 -0.0610  0.9708  0.0242
   34POPC  H101 4568   5.499   5.370   9.245 -1.1255  0.1434 -0.3205
   34POPC  C211 4569   5.646   5.248   9.363  0.5095  0.1818  0.5589
   34POPC  H11R 4570   5.650   5.188   9.456 -1.3158 -2.1333 -0.7511
   34POPC  H11S 4571   5.719   5.330   9.381 -0.1321  0.5744  1.3967
   34POPC  C212 4572   5.683   5.169   9.229  0.8434  0.6314 -1.1071
   34POPC  H12R 4573   5.614   5.083   9.225  1.9152 -0.2121 -2.4165
   34POPC  H12S 4574   5.787   5.135   9.248  0.1166 -1.4172 -0.6015
   34POPC  C213 4575   5.695   5.238   9.093  0.1384  0.3875  0.0703
   34POPC  H13R 4576   5.761   5.328   9.096  1.7889 -0.7767 -0.0863
   34POPC  H13S 4577   5.593   5.260   9.057  1.0910  0.0625 -3.1685
   34POPC  C214 4578   5.759   5.141   8.986 -0.1730  0.0484  0.1303
   34POPC  H14R 4579   5.705   5.044   8.995  0.9093 -0.6536 -0.6366
   34POPC  H14S 4580   5.864   5.122   9.016 -0.1355 -0.3868 -0.2658
   34POPC  C215 4581   5.750   5.188   8.843 -0.4216  0.5870  0.1981
   34POPC  H15R 4582   5.820   5.125   8.784 -2.5169 -1.6207 -0.0757
   34POPC  H15S 4583   5.788   5.291   8.828  2.9562 -0.7246 -1.1753
   34POPC  C216 4584   5.612   5.170   8.779  1.1105 -0.6183  0.4990
   34POPC  H16R 4585   5.552   5.253   8.821  2.6019  1.1542 -0.7107
   34POPC  H16S 4586   5.571   5.073   8.816  3.2464 -0.9502  2.1902
   34POPC  C217 4587   5.610   5.189   8.623  0.2378 -0.2734  0.1155
   34POPC  H17R 4588   5.673   5.104   8.592  1.0290  0.4630 -0.3231
   34POPC  H17S 4589   5.661   5.283   8.592 -0.8522 -0.1962 -1.5637
   34POPC  C218 4590   5.469   5.188   8.559  0.9522 -0.5151 -0.2873
   34POPC  H18R 4591   5.393   5.255   8.605 -0.3409 -0.6739 -2.0790
   34POPC  H18S 4592   5.420   5.094   8.589 -2.8114  0.9575 -1.2891
   34POPC  H18T 4593   5.476   5.205   8.449  1.2445  0.1451 -0.1715
   34POPC   C33 4594   5.499   5.800   9.863 -0.5766  0.0220 -0.3330
   34POPC   H3X 4595   5.607   5.775   9.873  0.2515  2.9271 -1.0021
   34POPC   H3Y 4596   5.480   5.910   9.867 -1.0573 -0.0883  0.6318
   34POPC   C34 4597   5.458   5.754   9.719  0.9990  0.1086 -0.5970
   34POPC   H4X 4598   5.349   5.768   9.701  1.0304  2.3255  0.5684
   34POPC   H4Y 4599   5.474   5.644   9.715 -0.6958 -0.1320 -2.6748
   34POPC   C35 4600   5.541   5.824   9.618  0.4539  0.4214  0.0302
   34POPC   H5X 4601   5.646   5.818   9.652  0.1801 -1.5192  0.6989
   34POPC   H5Y 4602   5.515   5.932   9.608  1.4417  0.4764 -3.3328
   34POPC   C36 4603   5.540   5.765   9.476 -0.1912  0.2835  0.1069
   34POPC   H6X 4604   5.441   5.784   9.428  0.2266  0.8794 -0.5427
   34POPC   H6Y 4605   5.542   5.654   9.488 -1.6556  0.1549 -0.5572
   34POPC   C37 4606   5.644   5.816   9.378 -0.7030  0.5681  0.2942
   34POPC   H7X 4607   5.748   5.808   9.416 -1.0582  0.9034  1.3845
   34POPC   H7Y 4608   5.619   5.923   9.361  1.2509  1.0705  0.2917
   34POPC   C38 4609   5.625   5.760   9.234  0.1448 -0.4095 -0.0339
   34POPC   H8X 4610   5.523   5.797   9.210  1.0502  1.4758 -1.1761
   34POPC   H8Y 4611   5.639   5.650   9.228  4.5218  0.0225 -0.8282
   34POPC   C39 4612   5.715   5.832   9.132 -0.0012 -0.0571 -0.1442
   34POPC   H9X 4613   5.821   5.800   9.142 -0.4700 -1.3221  1.0795
   34POPC   H9Y 4614   5.717   5.942   9.147  0.4926  0.2717 -2.2412
   34POPC  C310 4615   5.662   5.810   8.985  0.0789 -0.1155 -0.0373
   34POPC  H10X 4616   5.573   5.872   8.961 -1.7168 -2.8076 -0.7295
   34POPC  H10Y 4617   5.640   5.701   8.980 -1.1543  0.0541  1.1234
   34POPC  C311 4618   5.780   5.837   8.888 -0.3819 -0.2866 -0.0958
   34POPC  H11X 4619   5.858   5.763   8.912  0.9202  0.2670 -2.3022
   34POPC  H11Y 4620   5.839   5.931   8.901 -0.1221 -0.5255  0.4531
   34POPC  C312 4621   5.738   5.822   8.738 -0.2937  0.2693 -0.1796
   34POPC  H12X 4622   5.650   5.887   8.719  1.7254  2.7003 -1.8836
   34POPC  H12Y 4623   5.707   5.717   8.717  1.0389  0.1066 -1.5418
   34POPC  C313 4624   5.862   5.857   8.644 -0.2746  0.3391  0.2518
   34POPC  H13X 4625   5.946   5.791   8.676 -1.0059 -0.4088  0.6637
   34POPC  H13Y 4626   5.893   5.963   8.653  1.2545  0.1215 -1.5915
   34POPC  C314 4627   5.836   5.831   8.495 -0.1839 -0.2815 -0.6796
   34POPC  H14X 4628   5.748   5.895   8.474 -1.5153 -1.8701 -0.1237
   34POPC  H14Y 4629   5.809   5.725   8.477 -2.6202 -0.1157  1.3508
   34POPC  C315 4630   5.957   5.853   8.405 -0.4915  0.7961  0.1734
   34POPC  H15X 4631   6.022   5.778   8.454 -2.7252 -0.6146  1.1485
   34POPC  H15Y 4632   5.995   5.956   8.421  0.8455  0.3468  0.0546
   34POPC  C316 4633   5.941   5.824   8.261  0.5955  0.2267  0.0219
   34POPC  H16X 4634   5.890   5.727   8.239  0.6556  0.9437 -4.0066
   34POPC  H16Y 4635   6.040   5.816   8.212  2.2082  1.2494  2.8861
   34POPC  H16Z 4636   5.866   5.895   8.221 -1.8246 -1.2263  1.6467
   35POPC     N 4637   4.998   2.180  10.891  0.1851  1.1268  0.5950
   35POPC   C12 4638   5.000   2.308  10.806 -0.0417  0.2004 -0.1920
   35POPC  H12A 4639   4.976   2.278  10.705 -1.1326  1.2206 -0.2566
   35POPC  H12B 4640   5.099   2.345  10.780  0.0645 -0.3813 -0.6562
   35POPC   C13 4641   5.110   2.084  10.837 -0.2819  0.4584  0.1587
   35POPC  H13A 4642   5.093   1.987  10.881  0.8158  0.8131  1.4061
   35POPC  H13B 4643   5.105   2.069  10.730  1.0412 -0.3152  0.1860
   35POPC  H13C 4644   5.208   2.127  10.854  0.8954 -1.5873 -1.0947
   35POPC   C14 4645   5.014   2.207  11.034  0.9877 -0.2688 -0.1464
   35POPC  H14A 4646   5.102   2.261  11.065  0.0297  1.3708 -0.1741
   35POPC  H14B 4647   4.924   2.258  11.065  0.6763  0.3702 -2.0161
   35POPC  H14C 4648   5.023   2.111  11.084  0.4424 -0.9390 -1.2987
   35POPC   C15 4649   4.872   2.102  10.864  0.1795 -0.7293  0.0130
   35POPC  H15A 4650   4.782   2.160  10.880  0.6484  0.0583 -0.1345
   35POPC  H15B 4651   4.869   2.009  10.918  0.5898 -1.7716 -1.6899
   35POPC  H15C 4652   4.869   2.058  10.765 -1.4742 -2.9193  0.9483
   35POPC   C11 4653   4.912   2.421  10.853 -0.3840  0.4438 -0.2813
   35POPC  H11A 4654   4.949   2.510  10.797  1.6499 -1.1090 -1.5632
   35POPC  H11B 4655   4.927   2.436  10.962  1.9088  1.7145 -0.7023
   35POPC     P 4656   4.656   2.447  10.914 -0.0641  0.2348 -0.3441
   35POPC   O13 4657   4.687   2.560  11.002 -0.1067 -0.1156  0.1165
   35POPC   O14 4658   4.618   2.321  10.978 -0.7564  0.0271 -0.2383
   35POPC   O12 4659   4.774   2.403  10.819  0.1702 -0.0553 -0.1818
   35POPC   O11 4660   4.542   2.475  10.817  0.4065 -0.1639 -0.2174
   35POPC    C1 4661   4.435   2.384  10.785 -0.2879 -0.0242 -0.0192
   35POPC    HA 4662   4.341   2.437  10.757 -0.1579 -1.5421 -3.8907
   35POPC    HB 4663   4.410   2.326  10.876  1.0940  1.7517  1.5780
   35POPC    C2 4664   4.465   2.300  10.662 -0.1948  0.0219 -0.4492
   35POPC    HS 4665   4.561   2.248  10.682 -0.9159 -1.5308 -0.8780
   35POPC   O21 4666   4.473   2.392  10.548  0.0581  0.2778  0.1589
   35POPC   C21 4667   4.557   2.362  10.443 -0.9064  0.2834 -0.5635
   35POPC   O22 4668   4.633   2.266  10.441 -0.2836 -0.3810 -0.3910
   35POPC   C22 4669   4.538   2.462  10.332 -0.0957 -1.3092 -0.4676
   35POPC   H2R 4670   4.626   2.530  10.333 -0.2720 -1.0565 -1.2304
   35POPC   H2S 4671   4.447   2.522  10.351 -0.5785 -1.9087 -0.8596
   35POPC    C3 4672   4.355   2.187  10.641 -0.6813  0.2181 -0.0789
   35POPC    HX 4673   4.264   2.239  10.678 -0.4171  0.3192  0.4378
   35POPC    HY 4674   4.380   2.109  10.715  1.8884 -0.4344 -1.5031
   35POPC   O31 4675   4.350   2.140  10.498  0.9224 -0.0406 -0.4046
   35POPC   C31 4676   4.367   2.014  10.479  0.1785  0.7755 -0.4600
   35POPC   O32 4677   4.378   1.931  10.568  0.0184  0.1473  0.5276
   35POPC   C32 4678   4.407   1.983  10.333  0.1820 -0.2318 -0.0698
   35POPC   H2X 4679   4.476   2.062  10.295 -2.2757  0.5544 -3.2946
   35POPC   H2Y 4680   4.310   1.994  10.280  1.0099 -2.3017 -2.2061
   35POPC   C23 4681   4.509   2.410  10.189 -0.4953  0.7379 -0.3033
   35POPC   H3R 4682   4.589   2.337  10.165  0.7244  1.8376  0.2915
   35POPC   H3S 4683   4.504   2.491  10.114  0.2496 -0.3474 -1.5727
   35POPC   C24 4684   4.379   2.331  10.188  0.2809 -0.6705 -0.3163
   35POPC   H4R 4685   4.290   2.397  10.199 -1.5203 -2.9346 -0.6494
   35POPC   H4S 4686   4.375   2.267  10.278 -0.2696  1.4368  1.2408
   35POPC   C25 4687   4.368   2.251  10.055 -0.8052 -0.3781 -0.0835
   35POPC   H5R 4688   4.274   2.193  10.048 -0.9789  0.0870 -2.0827
   35POPC   H5S 4689   4.445   2.170  10.057 -0.9761 -0.5283  1.0222
   35POPC   C26 4690   4.404   2.333   9.926 -0.1508 -0.3803  0.7887
   35POPC   H6R 4691   4.511   2.365   9.925 -0.4142  0.5193  0.8959
   35POPC   H6S 4692   4.341   2.424   9.923 -0.9793 -0.9596  0.3465
   35POPC   C27 4693   4.389   2.236   9.808 -0.0918  0.2171 -0.4167
   35POPC   H7R 4694   4.290   2.186   9.814 -1.2069  2.3968  0.2358
   35POPC   H7S 4695   4.453   2.149   9.837  0.4754  0.9156  0.4727
   35POPC   C28 4696   4.431   2.304   9.678  0.2891  0.1952 -0.0860
   35POPC   H8R 4697   4.538   2.333   9.677 -0.4031  3.2254  1.0698
   35POPC   H8S 4698   4.385   2.405   9.668  0.7578  0.8937  3.5538
   35POPC   C29 4699   4.400   2.221   9.553 -0.0996 -0.0459  0.1033
   35POPC   H91 4700   4.295   2.226   9.519  0.0374 -2.3882 -0.8557
   35POPC  C210 4701   4.480   2.137   9.486 -0.2093 -0.5277 -0.2256
   35POPC  H101 4702   4.442   2.087   9.396  1.0702  0.1898 -1.1924
   35POPC  C211 4703   4.628   2.110   9.506 -0.6057 -0.0400 -0.3303
   35POPC  H11R 4704   4.674   2.154   9.597  0.8853 -0.6851 -0.7394
   35POPC  H11S 4705   4.674   2.163   9.420  0.9050 -2.2169 -0.9466
   35POPC  C212 4706   4.663   1.961   9.508 -0.0212 -0.2084  0.5698
   35POPC  H12R 4707   4.608   1.913   9.425 -2.2569  0.4578  1.5800
   35POPC  H12S 4708   4.620   1.913   9.599 -1.6473 -1.5640 -0.8464
   35POPC  C213 4709   4.814   1.943   9.513  0.0677  0.0244  0.4265
   35POPC  H13R 4710   4.856   1.958   9.614  2.1860  0.5540 -0.4799
   35POPC  H13S 4711   4.856   2.023   9.448 -0.4506  0.8594  1.0946
   35POPC  C214 4712   4.857   1.810   9.449 -0.2051  0.4811 -0.1074
   35POPC  H14R 4713   4.967   1.792   9.456 -0.4772 -0.5949  2.6533
   35POPC  H14S 4714   4.839   1.818   9.340  1.3571 -0.1149 -0.4422
   35POPC  C215 4715   4.801   1.675   9.503 -0.0702 -0.0857 -0.2241
   35POPC  H15R 4716   4.845   1.590   9.447 -1.3899 -1.2122  0.3839
   35POPC  H15S 4717   4.694   1.672   9.472  0.4098 -0.2432 -1.9901
   35POPC  C216 4718   4.808   1.654   9.655  0.6472  0.4128  0.5432
   35POPC  H16R 4719   4.760   1.741   9.704 -1.6225 -0.4664  0.0268
   35POPC  H16S 4720   4.917   1.655   9.678  0.9961  0.6627 -1.0234
   35POPC  C217 4721   4.747   1.514   9.706 -0.5732  0.0934 -0.6094
   35POPC  H17R 4722   4.809   1.434   9.658  0.8874 -0.2973  1.7746
   35POPC  H17S 4723   4.640   1.516   9.677 -0.6976  2.7119 -0.1944
   35POPC  C218 4724   4.757   1.499   9.860 -0.4573 -0.3447  0.4394
   35POPC  H18R 4725   4.729   1.601   9.894 -2.6515 -0.9038  0.4894
   35POPC  H18S 4726   4.864   1.492   9.888  1.2974  1.7228 -4.6286
   35POPC  H18T 4727   4.693   1.424   9.912 -1.5397 -0.7615 -1.4116
   35POPC   C33 4728   4.476   1.843  10.314 -0.0157 -0.2204 -0.2347
   35POPC   H3X 4729   4.399   1.767  10.339  0.8848 -1.5043 -1.2750
   35POPC   H3Y 4730   4.566   1.831  10.378  0.9388 -2.9030 -1.9084
   35POPC   C34 4731   4.521   1.811  10.163  0.2675  0.3177 -0.0126
   35POPC   H4X 4732   4.541   1.701  10.158  2.0396  0.6501 -1.1156
   35POPC   H4Y 4733   4.605   1.873  10.124  0.2044  0.0866 -0.5359
   35POPC   C35 4734   4.412   1.848  10.064  0.2820  0.0496  0.1864
   35POPC   H5X 4735   4.381   1.954  10.078 -2.2292 -0.4963 -0.6697
   35POPC   H5Y 4736   4.321   1.793  10.097 -1.1917  2.4226  0.3090
   35POPC   C36 4737   4.434   1.816   9.919  0.9563  0.0611 -0.2840
   35POPC   H6X 4738   4.492   1.722   9.916  1.7980  0.5860 -2.2311
   35POPC   H6Y 4739   4.495   1.896   9.872 -1.0222  0.9916 -1.4403
   35POPC   C37 4740   4.303   1.805   9.840 -0.6868 -0.4442  0.6148
   35POPC   H7X 4741   4.244   1.897   9.860 -0.2861  0.4575 -1.9629
   35POPC   H7Y 4742   4.237   1.716   9.856  1.0694 -2.1582 -1.0309
   35POPC   C38 4743   4.328   1.812   9.684  0.2573 -0.2250  0.6418
   35POPC   H8X 4744   4.419   1.750   9.667 -0.6033 -1.0930 -1.0208
   35POPC   H8Y 4745   4.351   1.913   9.646 -0.7563  0.1917  1.0995
   35POPC   C39 4746   4.209   1.765   9.597  0.6101 -0.1537  0.1121
   35POPC   H9X 4747   4.124   1.831   9.622  0.3978 -0.8163  1.2263
   35POPC   H9Y 4748   4.184   1.657   9.609 -0.4143 -0.1837 -1.8910
   35POPC  C310 4749   4.227   1.782   9.439 -0.5427  0.2940 -1.3909
   35POPC  H10X 4750   4.293   1.695   9.416  0.2295  1.2676 -3.0700
   35POPC  H10Y 4751   4.275   1.877   9.406 -0.8237  2.2225  2.9484
   35POPC  C311 4752   4.102   1.754   9.357  0.0752 -0.4441 -0.2019
   35POPC  H11X 4753   4.014   1.812   9.392  0.8062  0.2625  0.4936
   35POPC  H11Y 4754   4.080   1.646   9.373  0.6507 -0.6307 -0.6511
   35POPC  C312 4755   4.123   1.791   9.210 -0.1653  0.1510  0.3784
   35POPC  H12X 4756   4.168   1.892   9.200  1.5032 -0.7019 -1.5372
   35POPC  H12Y 4757   4.032   1.780   9.147 -0.0321 -1.7635  0.4405
   35POPC  C313 4758   4.216   1.697   9.134 -0.7791  0.5043  0.2230
   35POPC  H13X 4759   4.152   1.613   9.101 -0.5923 -0.2672  1.7618
   35POPC  H13Y 4760   4.303   1.661   9.193  0.5272 -1.8297 -2.8501
   35POPC  C314 4761   4.269   1.763   9.013 -0.3362  0.2662  0.0705
   35POPC  H14X 4762   4.361   1.818   9.040  0.0094 -0.8037  1.1935
   35POPC  H14Y 4763   4.198   1.838   8.973  2.0796  2.2511 -0.7487
   35POPC  C315 4764   4.303   1.675   8.895 -0.1282 -0.1902 -0.2673
   35POPC  H15X 4765   4.316   1.747   8.812 -0.4338  0.0028 -0.1481
   35POPC  H15Y 4766   4.215   1.613   8.868 -1.7301  1.7905  0.1864
   35POPC  C316 4767   4.425   1.587   8.898 -0.8095 -0.5282 -0.0041
   35POPC  H16X 4768   4.521   1.643   8.893  0.0092 -1.7994  0.8534
   35POPC  H16Y 4769   4.431   1.514   8.814  0.6926 -0.0109 -0.3806
   35POPC  H16Z 4770   4.443   1.540   8.998  0.3732 -1.4619 -0.6251
   36POPC     N 4771   4.228   1.534  11.446 -0.0016  0.4412  0.6635
   36POPC   C12 4772   4.181   1.417  11.356 -0.1458  0.9262 -0.6474
   36POPC  H12A 4773   4.073   1.423  11.362 -0.2362 -0.2720 -0.9557
   36POPC  H12B 4774   4.205   1.325  11.408  3.4336  1.8722 -0.3200
   36POPC   C13 4775   4.231   1.665  11.380  0.5296 -0.3906 -0.7325
   36POPC  H13A 4776   4.309   1.679  11.307  0.3159  1.8418 -0.5866
   36POPC  H13B 4777   4.137   1.688  11.331  0.4805  0.6954 -0.1642
   36POPC  H13C 4778   4.249   1.733  11.462  0.7289  0.9122 -1.8207
   36POPC   C14 4779   4.136   1.548  11.562 -0.8852  0.2335  0.2996
   36POPC  H14A 4780   4.041   1.584  11.526 -0.7471 -1.0333 -1.4917
   36POPC  H14B 4781   4.130   1.452  11.610 -0.4924 -0.3146 -0.7111
   36POPC  H14C 4782   4.181   1.622  11.626  2.9637 -1.2316 -0.4048
   36POPC   C15 4783   4.362   1.514  11.505 -0.1872 -0.3003 -0.3486
   36POPC  H15A 4784   4.394   1.610  11.543 -4.7166  0.8420  1.2655
   36POPC  H15B 4785   4.436   1.482  11.433  0.4667 -1.5948  0.8558
   36POPC  H15C 4786   4.371   1.448  11.590  0.0670  0.2335  0.0498
   36POPC   C11 4787   4.250   1.407  11.217 -0.0152  0.2680 -0.4637
   36POPC  H11A 4788   4.254   1.504  11.164 -0.3325 -0.2978 -1.5573
   36POPC  H11B 4789   4.196   1.349  11.140  0.2749 -0.0174 -0.4561
   36POPC     P 4790   4.418   1.214  11.234 -0.4238  0.1158 -0.3014
   36POPC   O13 4791   4.350   1.151  11.350 -0.0673 -0.6838  0.0718
   36POPC   O14 4792   4.567   1.191  11.223 -0.0840 -0.8629 -0.0124
   36POPC   O12 4793   4.389   1.367  11.232 -0.0675  0.3482  0.2322
   36POPC   O11 4794   4.354   1.160  11.110 -0.2937  0.2135 -0.5016
   36POPC    C1 4795   4.424   1.089  11.012 -0.2151 -0.1164  0.2354
   36POPC    HA 4796   4.478   1.002  11.055  1.2175  0.1046 -1.0405
   36POPC    HB 4797   4.509   1.147  10.971  0.5904 -0.6513  1.0986
   36POPC    C2 4798   4.321   1.056  10.897 -0.2450 -0.8321  0.1735
   36POPC    HS 4799   4.372   0.984  10.830 -1.2945 -1.5187  0.1030
   36POPC   O21 4800   4.275   1.174  10.826 -0.3260 -0.4064  0.1221
   36POPC   C21 4801   4.366   1.243  10.758 -0.6322 -0.1941 -0.8634
   36POPC   O22 4802   4.478   1.202  10.732  0.0802 -0.1345 -0.3412
   36POPC   C22 4803   4.305   1.365  10.706  0.5369  0.4517 -0.2143
   36POPC   H2R 4804   4.285   1.436  10.789  3.1698  1.8652 -0.6806
   36POPC   H2S 4805   4.216   1.338  10.645 -0.5564  2.8400  0.2359
   36POPC    C3 4806   4.198   0.980  10.946  0.2243  0.4374 -0.8980
   36POPC    HX 4807   4.137   1.050  11.006  0.5826  2.6345 -2.9296
   36POPC    HY 4808   4.226   0.901  11.019 -0.2679  1.4673  0.4407
   36POPC   O31 4809   4.122   0.926  10.837 -0.4176 -0.3577  0.4295
   36POPC   C31 4810   4.013   0.867  10.880  0.4119 -0.0374 -0.1977
   36POPC   O32 4811   3.962   0.854  10.989 -0.3990 -0.1045 -0.1142
   36POPC   C32 4812   3.937   0.826  10.749 -0.4405  0.5903  0.1667
   36POPC   H2X 4813   3.871   0.739  10.771 -1.1537  0.5877 -1.7956
   36POPC   H2Y 4814   4.010   0.788  10.674  0.2979 -0.2021  1.2664
   36POPC   C23 4815   4.394   1.446  10.602  0.4025 -0.1684 -1.0205
   36POPC   H3R 4816   4.491   1.470  10.650 -1.0199  1.4173  1.2581
   36POPC   H3S 4817   4.352   1.549  10.594 -0.3617 -0.3187  0.5812
   36POPC   C24 4818   4.376   1.383  10.465 -0.6910 -0.4044 -0.1393
   36POPC   H4R 4819   4.278   1.412  10.421  0.4913  0.2985 -2.4249
   36POPC   H4S 4820   4.371   1.272  10.465  0.4278 -0.4773  1.1141
   36POPC   C25 4821   4.497   1.430  10.373 -0.1359  0.6351  0.6544
   36POPC   H5R 4822   4.580   1.423  10.447 -0.2582 -0.1269  0.7295
   36POPC   H5S 4823   4.494   1.536  10.340 -0.1042  0.6511  0.7039
   36POPC   C26 4824   4.514   1.341  10.243  0.4610 -0.3350 -0.1681
   36POPC   H6R 4825   4.548   1.241  10.278  2.4667  0.5701  0.6327
   36POPC   H6S 4826   4.600   1.385  10.189 -0.0460  0.2084 -0.5455
   36POPC   C27 4827   4.404   1.324  10.149  0.1522  0.0194  0.1359
   36POPC   H7R 4828   4.307   1.289  10.191 -1.4639  2.2227 -1.5587
   36POPC   H7S 4829   4.428   1.265  10.058 -2.3929  1.4298 -1.5723
   36POPC   C28 4830   4.372   1.463  10.091 -1.1445 -0.5475  0.6984
   36POPC   H8R 4831   4.454   1.499  10.024 -0.6793  1.2829  2.1767
   36POPC   H8S 4832   4.377   1.540  10.171  1.0158  1.8905 -1.5623
   36POPC   C29 4833   4.233   1.455  10.026 -0.0888 -0.4239 -0.4551
   36POPC   H91 4834   4.142   1.448  10.088  0.0485 -2.3042 -0.4191
   36POPC  C210 4835   4.219   1.425   9.895 -0.2753 -0.2634  0.3768
   36POPC  H101 4836   4.117   1.420   9.855  0.1394 -3.2299 -0.5502
   36POPC  C211 4837   4.330   1.405   9.798 -0.7184  0.0105  0.2104
   36POPC  H11R 4838   4.407   1.331   9.826  2.1545  2.3780 -0.8534
   36POPC  H11S 4839   4.381   1.499   9.768 -0.6709  0.0859  0.5248
   36POPC  C212 4840   4.268   1.345   9.672 -0.5329  0.4841 -0.0587
   36POPC  H12R 4841   4.203   1.420   9.622 -0.4378  0.4402 -0.2473
   36POPC  H12S 4842   4.199   1.260   9.692  0.5715 -0.0479  1.6614
   36POPC  C213 4843   4.379   1.305   9.574 -0.0017  0.1141  0.1498
   36POPC  H13R 4844   4.442   1.225   9.618  2.1562  0.6392 -1.8025
   36POPC  H13S 4845   4.449   1.391   9.565  0.6243 -0.5623 -1.8715
   36POPC  C214 4846   4.334   1.275   9.427 -0.0867  1.1007 -0.1333
   36POPC  H14R 4847   4.284   1.362   9.379 -0.0687 -0.2341 -2.7423
   36POPC  H14S 4848   4.261   1.191   9.432  1.2388 -0.0007  2.4626
   36POPC  C215 4849   4.436   1.231   9.323  0.2923  0.3645 -0.1620
   36POPC  H15R 4850   4.473   1.128   9.344 -1.0925  0.0478  0.7870
   36POPC  H15S 4851   4.522   1.301   9.333 -0.3264  1.3005 -1.2607
   36POPC  C216 4852   4.384   1.240   9.174  0.2341  0.6318  0.1653
   36POPC  H16R 4853   4.353   1.346   9.162  1.0911  0.7307 -1.3194
   36POPC  H16S 4854   4.301   1.169   9.154  0.0744  1.1294 -0.9973
   36POPC  C217 4855   4.492   1.199   9.070  0.1337 -0.1092  0.4577
   36POPC  H17R 4856   4.558   1.119   9.111  3.9153  2.0011 -0.9994
   36POPC  H17S 4857   4.559   1.287   9.060 -0.9434  0.7620  0.7685
   36POPC  C218 4858   4.428   1.151   8.936  0.7256 -0.3328 -0.2923
   36POPC  H18R 4859   4.364   1.232   8.895  2.6723  1.2837 -0.3141
   36POPC  H18S 4860   4.371   1.056   8.947  0.0857 -0.1394 -1.7381
   36POPC  H18T 4861   4.506   1.126   8.861  0.7880 -1.0489  0.0010
   36POPC   C33 4862   3.863   0.954  10.703  0.8255 -0.6531  0.1452
   36POPC   H3X 4863   3.793   0.994  10.780  1.0262  0.2687 -0.1464
   36POPC   H3Y 4864   3.791   0.920  10.625  0.3605 -2.3440  1.2377
   36POPC   C34 4865   3.929   1.070  10.635 -0.0949 -0.5950  0.1116
   36POPC   H4X 4866   4.026   1.105  10.677  0.0352 -0.3399 -0.3814
   36POPC   H4Y 4867   3.870   1.164  10.647  0.8747 -0.2370  2.5891
   36POPC   C35 4868   3.942   1.049  10.485 -0.6061  1.0812  0.2650
   36POPC   H5X 4869   3.840   1.026  10.448 -0.3414  2.0914 -1.1528
   36POPC   H5Y 4870   4.008   0.960  10.476 -1.4769  0.5988 -1.7711
   36POPC   C36 4871   4.026   1.164  10.425  0.2306 -0.1300  0.5857
   36POPC   H6X 4872   4.123   1.149  10.477  0.3204 -1.2894  0.1262
   36POPC   H6Y 4873   3.991   1.262  10.464  1.9775  0.8536 -0.2065
   36POPC   C37 4874   4.039   1.165  10.273 -0.2499 -0.4360 -0.0046
   36POPC   H7X 4875   4.073   1.064  10.242  2.5236 -0.1118  1.6572
   36POPC   H7Y 4876   4.114   1.236  10.233 -0.7876 -0.6595 -1.4967
   36POPC   C38 4877   3.900   1.205  10.211  0.2579 -0.1334  0.2084
   36POPC   H8X 4878   3.877   1.302  10.260  2.1695  0.1571  0.6017
   36POPC   H8Y 4879   3.822   1.129  10.235  1.2866 -1.1530  0.3935
   36POPC   C39 4880   3.920   1.206  10.055 -0.2062  0.1985 -0.4085
   36POPC   H9X 4881   3.923   1.103  10.015  0.2798 -0.1152  0.4066
   36POPC   H9Y 4882   4.012   1.259  10.022 -0.7502 -0.2961 -2.8960
   36POPC  C310 4883   3.790   1.261   9.987 -0.1601 -0.5894  0.1218
   36POPC  H10X 4884   3.823   1.293   9.886  0.0509 -2.3640 -0.3921
   36POPC  H10Y 4885   3.746   1.343  10.049  2.5835  1.0669  0.0173
   36POPC  C311 4886   3.683   1.152   9.956 -0.4382 -1.2635  0.2850
   36POPC  H11X 4887   3.643   1.105  10.048 -3.4454 -1.7281 -1.1468
   36POPC  H11Y 4888   3.741   1.077   9.899  0.8403  1.3051 -2.0557
   36POPC  C312 4889   3.562   1.214   9.868 -0.4421 -0.5741  0.4053
   36POPC  H12X 4890   3.565   1.148   9.779 -3.4650 -2.6329  1.6964
   36POPC  H12Y 4891   3.600   1.315   9.840 -0.6384  0.0182  2.1014
   36POPC  C313 4892   3.422   1.220   9.923  0.5395  0.1996  0.4469
   36POPC  H13X 4893   3.427   1.264  10.025  0.7916 -1.3475  1.1407
   36POPC  H13Y 4894   3.387   1.115   9.939  0.6041  0.1246  0.1084
   36POPC  C314 4895   3.322   1.282   9.819 -1.2636 -0.8890 -0.3862
   36POPC  H14X 4896   3.359   1.368   9.759 -1.9465  1.7573  2.6917
   36POPC  H14Y 4897   3.232   1.322   9.871 -0.8498 -2.2333  1.4739
   36POPC  C315 4898   3.270   1.182   9.713 -0.5815 -0.2285 -0.5621
   36POPC  H15X 4899   3.219   1.106   9.777 -0.4439  1.9892  2.4260
   36POPC  H15Y 4900   3.355   1.124   9.670  1.3249  0.2134  2.2828
   36POPC  C316 4901   3.177   1.249   9.610 -0.2879 -0.0965 -0.7660
   36POPC  H16X 4902   3.238   1.322   9.551 -0.7514  2.0672  1.2784
   36POPC  H16Y 4903   3.094   1.296   9.667 -0.5928 -0.1760 -1.1400
   36POPC  H16Z 4904   3.115   1.190   9.540 -2.2434  0.4496  0.4355
   37POPC     N 4905   2.679   3.186   6.467  0.2532  0.0590 -0.3635
   37POPC   C12 4906   2.729   3.082   6.557 -0.6426  0.6105 -0.8200
   37POPC  H12A 4907   2.808   3.020   6.520  2.9267  2.6289  2.6372
   37POPC  H12B 4908   2.643   3.016   6.559  0.4399 -0.8286  0.8973
   37POPC   C13 4909   2.780   3.287   6.440 -0.2988  0.0886 -0.2558
   37POPC  H13A 4910   2.855   3.250   6.371 -0.7699 -1.9172  0.2333
   37POPC  H13B 4911   2.739   3.375   6.394  1.8737  1.4888  0.3021
   37POPC  H13C 4912   2.829   3.325   6.529  1.5263 -2.1301 -0.2083
   37POPC   C14 4913   2.644   3.119   6.336 -0.1340 -0.2803  0.1781
   37POPC  H14A 4914   2.716   3.043   6.310  0.7347  0.6922 -0.3397
   37POPC  H14B 4915   2.546   3.075   6.344 -0.5862  0.7671  0.6199
   37POPC  H14C 4916   2.638   3.182   6.249 -0.3355 -0.1271  0.3020
   37POPC   C15 4917   2.552   3.245   6.511  0.0491 -0.3499 -0.6833
   37POPC  H15A 4918   2.479   3.170   6.539  0.5617 -0.9472 -0.9025
   37POPC  H15B 4919   2.514   3.322   6.446 -4.9027 -1.0258  0.9999
   37POPC  H15C 4920   2.565   3.306   6.599 -3.7793  1.0710 -0.9328
   37POPC   C11 4921   2.768   3.131   6.700 -0.7302  0.1314  0.1490
   37POPC  H11A 4922   2.768   3.046   6.772 -0.6773  0.0136  0.0107
   37POPC  H11B 4923   2.698   3.211   6.732  0.6809  0.9374  1.3431
   37POPC     P 4924   3.028   3.102   6.701  0.1012  0.0329 -0.0575
   37POPC   O13 4925   3.121   3.165   6.603  0.4615  0.1856  0.1806
   37POPC   O14 4926   2.987   2.962   6.672 -0.2352  0.1018 -0.1337
   37POPC   O12 4927   2.897   3.190   6.708  0.8380  0.2249 -0.1271
   37POPC   O11 4928   3.087   3.115   6.848  0.0531  0.2559 -0.0670
   37POPC    C1 4929   3.100   3.239   6.920 -0.0306 -0.2338 -0.4411
   37POPC    HA 4930   3.014   3.310   6.914  0.8633  1.1215  1.6225
   37POPC    HB 4931   3.180   3.287   6.860 -0.6327 -0.8573 -1.7743
   37POPC    C2 4932   3.160   3.221   7.063 -0.3275 -0.7243  0.1862
   37POPC    HS 4933   3.246   3.151   7.072 -0.0261 -0.3027  0.6268
   37POPC   O21 4934   3.053   3.180   7.152  0.2540  0.1065 -0.0899
   37POPC   C21 4935   3.019   3.057   7.150  0.0832  0.0775 -0.1650
   37POPC   O22 4936   3.075   2.967   7.089 -0.3531  0.4873 -0.2771
   37POPC   C22 4937   2.883   3.057   7.218  0.0296  0.5495  0.1951
   37POPC   H2R 4938   2.811   3.030   7.138  0.7310  0.1141 -0.3070
   37POPC   H2S 4939   2.853   3.157   7.257 -1.8663  0.1625 -0.1769
   37POPC    C3 4940   3.213   3.355   7.114  0.0108  0.5654 -0.3885
   37POPC    HX 4941   3.124   3.420   7.119  1.0168  2.3088 -2.8317
   37POPC    HY 4942   3.288   3.399   7.044 -1.9552  4.0859 -0.5085
   37POPC   O31 4943   3.285   3.344   7.245  0.0490  0.0055  0.4028
   37POPC   C31 4944   3.230   3.402   7.351  0.3532 -0.4772  1.0026
   37POPC   O32 4945   3.127   3.473   7.347  0.1451  0.1020 -0.1564
   37POPC   C32 4946   3.323   3.386   7.470  0.4561 -0.1869 -0.5006
   37POPC   H2X 4947   3.380   3.475   7.503 -0.0233 -0.2202  0.4502
   37POPC   H2Y 4948   3.399   3.307   7.450  0.6514 -0.2177  0.3533
   37POPC   C23 4949   2.880   2.959   7.330  0.0142 -0.0127 -0.1652
   37POPC   H3R 4950   2.902   2.858   7.289 -1.1768 -0.6385  0.6711
   37POPC   H3S 4951   2.773   2.963   7.359  0.4749 -0.1373  1.7252
   37POPC   C24 4952   2.962   2.981   7.463  0.0843 -0.8378  0.3062
   37POPC   H4R 4953   2.901   2.921   7.534 -1.5079 -0.0267 -0.3295
   37POPC   H4S 4954   2.961   3.089   7.485 -1.9079 -0.4265 -1.4283
   37POPC   C25 4955   3.100   2.928   7.445 -0.2631  0.6849 -0.0842
   37POPC   H5R 4956   3.167   2.982   7.375  0.0093 -1.8572 -1.9112
   37POPC   H5S 4957   3.094   2.831   7.391 -0.1808  0.9913 -0.6512
   37POPC   C26 4958   3.167   2.912   7.586  0.6762  0.5659  0.6980
   37POPC   H6R 4959   3.213   3.002   7.631  1.4449 -0.3499  1.7745
   37POPC   H6S 4960   3.257   2.847   7.581  0.4785  0.2789  0.9056
   37POPC   C27 4961   3.081   2.850   7.701  0.0913 -0.5019  0.5811
   37POPC   H7R 4962   3.040   2.754   7.662 -1.6590  1.0484 -1.6334
   37POPC   H7S 4963   3.000   2.922   7.724  0.8651  0.4485  0.3569
   37POPC   C28 4964   3.164   2.820   7.835  0.3909 -0.8097  0.5414
   37POPC   H8R 4965   3.252   2.757   7.808  0.1843 -1.3080  1.0274
   37POPC   H8S 4966   3.094   2.756   7.892  0.6830 -0.9212  0.7794
   37POPC   C29 4967   3.203   2.950   7.908 -0.0974  0.4674  0.3695
   37POPC   H91 4968   3.200   3.043   7.849  0.0807  0.7450  0.7900
   37POPC  C210 4969   3.272   2.944   8.023  0.1736  0.6456 -0.2648
   37POPC  H101 4970   3.303   3.039   8.068  1.6647 -0.8296  2.0634
   37POPC  C211 4971   3.310   2.824   8.105 -0.2361  0.3929  0.7289
   37POPC  H11R 4972   3.415   2.789   8.095 -0.4276  0.3305 -1.6786
   37POPC  H11S 4973   3.252   2.737   8.069 -0.3276  0.8691 -0.3157
   37POPC  C212 4974   3.284   2.837   8.260  1.4123  0.2763  0.9857
   37POPC  H12R 4975   3.325   2.933   8.297 -1.4903  1.7248  0.7718
   37POPC  H12S 4976   3.337   2.753   8.308  0.9477 -0.1099  0.8369
   37POPC  C213 4977   3.134   2.833   8.300 -0.2997  0.8838  0.2445
   37POPC  H13R 4978   3.084   2.745   8.255 -0.4571  1.3401 -0.4965
   37POPC  H13S 4979   3.077   2.915   8.253  1.5628  1.0387 -1.9385
   37POPC  C214 4980   3.105   2.831   8.451 -0.1593 -0.2141 -0.0264
   37POPC  H14R 4981   3.188   2.774   8.498  0.4878 -0.2350 -1.1749
   37POPC  H14S 4982   3.008   2.780   8.464  0.0776 -0.5728  0.3503
   37POPC  C215 4983   3.105   2.969   8.520  0.2977  0.1272  0.6321
   37POPC  H15R 4984   3.068   3.047   8.450  0.9643  0.5986  0.7985
   37POPC  H15S 4985   3.209   3.002   8.541 -0.1129  1.4572  0.6367
   37POPC  C216 4986   3.043   2.976   8.662  0.4061  0.1454  0.0442
   37POPC  H16R 4987   3.069   2.880   8.710 -0.8268 -0.9761 -1.4285
   37POPC  H16S 4988   2.934   2.996   8.659  0.8680  3.0181 -1.7752
   37POPC  C217 4989   3.100   3.079   8.753  0.1469 -0.8459 -0.0592
   37POPC  H17R 4990   3.057   3.177   8.722  2.9179 -0.0799 -1.8631
   37POPC  H17S 4991   3.211   3.086   8.743  0.0931  0.2544 -0.0063
   37POPC  C218 4992   3.061   3.049   8.900  0.0999  0.3649 -0.1904
   37POPC  H18R 4993   3.086   3.137   8.963  1.6921  1.8485 -2.6957
   37POPC  H18S 4994   3.119   2.960   8.930  1.5864  0.3561 -2.8127
   37POPC  H18T 4995   2.952   3.025   8.901  0.4572 -1.6860 -2.2111
   37POPC   C33 4996   3.235   3.352   7.592 -0.5478  0.0939 -0.0140
   37POPC   H3X 4997   3.155   3.281   7.562 -0.6714  0.6936 -1.1395
   37POPC   H3Y 4998   3.185   3.446   7.625  0.4271  0.4960  0.3332
   37POPC   C34 4999   3.313   3.292   7.711  0.3412 -0.6269 -0.3165
   37POPC   H4X 5000   3.379   3.212   7.670  1.1764 -0.2091  0.1775
   37POPC   H4Y 5001   3.240   3.245   7.780  1.5297 -4.3744 -1.4053
   37POPC   C35 5002   3.409   3.397   7.776  0.0909  0.1086 -0.6524
   37POPC   H5X 5003   3.368   3.500   7.786 -0.3918 -0.2461  1.3523
   37POPC   H5Y 5004   3.489   3.395   7.699  0.5056  0.0606 -0.2243
   37POPC   C36 5005   3.470   3.336   7.903  0.1043  0.0146 -0.2566
   37POPC   H6X 5006   3.575   3.373   7.907 -0.7624  2.5273  0.9523
   37POPC   H6Y 5007   3.473   3.225   7.897  2.5748  0.0739 -1.8005
   37POPC   C37 5008   3.416   3.401   8.031 -0.2253 -0.3839  0.0026
   37POPC   H7X 5009   3.441   3.509   8.022 -1.9621  0.1019  0.6584
   37POPC   H7Y 5010   3.469   3.354   8.116 -0.9418 -1.2907 -0.0408
   37POPC   C38 5011   3.258   3.385   8.053  0.2095  0.0825 -0.3509
   37POPC   H8X 5012   3.223   3.285   8.019 -0.2702  0.8057 -2.1127
   37POPC   H8Y 5013   3.197   3.451   7.988 -1.8753 -2.0938 -0.7710
   37POPC   C39 5014   3.220   3.411   8.197 -0.4715  0.1579 -0.3127
   37POPC   H9X 5015   3.268   3.506   8.227 -1.1535  0.1475  0.8766
   37POPC   H9Y 5016   3.248   3.337   8.274  1.9492  3.1017  1.8354
   37POPC  C310 5017   3.068   3.444   8.206 -0.4781 -0.5922 -0.7824
   37POPC  H10X 5018   3.021   3.343   8.201  1.4503 -1.4812 -2.1315
   37POPC  H10Y 5019   3.041   3.494   8.111 -2.2300  1.0378  0.5083
   37POPC  C311 5020   3.018   3.532   8.323 -0.3311 -0.4811 -0.3578
   37POPC  H11X 5021   2.918   3.578   8.307  0.1214  0.0755 -1.6987
   37POPC  H11Y 5022   3.092   3.609   8.354  1.5577 -1.5299 -2.0744
   37POPC  C312 5023   2.995   3.447   8.448 -0.0810  0.2430  0.1314
   37POPC  H12X 5024   3.093   3.397   8.464  1.0821  1.1875 -3.1863
   37POPC  H12Y 5025   2.918   3.371   8.422  0.0101 -0.1279  0.9196
   37POPC  C313 5026   2.959   3.528   8.574 -0.3790  0.2392 -0.2106
   37POPC  H13X 5027   2.853   3.560   8.560 -0.7564 -1.1405 -0.6710
   37POPC  H13Y 5028   3.015   3.623   8.586 -2.2360  1.1948  1.5415
   37POPC  C314 5029   2.970   3.439   8.699 -0.0204 -0.0483  0.3431
   37POPC  H14X 5030   3.072   3.395   8.710 -0.9098 -1.6464  3.1893
   37POPC  H14Y 5031   2.897   3.358   8.677 -0.2577  0.9131 -2.9398
   37POPC  C315 5032   2.936   3.510   8.832 -0.3188 -0.5812 -0.4368
   37POPC  H15X 5033   2.887   3.437   8.901 -0.9248 -1.6639 -1.9345
   37POPC  H15Y 5034   2.860   3.588   8.810 -2.9196 -2.7047  0.3795
   37POPC  C316 5035   3.068   3.566   8.894 -0.0534  0.3013  0.4120
   37POPC  H16X 5036   3.123   3.639   8.831 -0.3564 -0.3930 -0.6882
   37POPC  H16Y 5037   3.132   3.476   8.898 -0.1534  0.1234 -1.1098
   37POPC  H16Z 5038   3.064   3.589   9.002  2.4502  1.0345  0.4121
   38POPC     N 5039   3.373   5.672   6.047 -0.0854  0.1051 -0.3069
   38POPC   C12 5040   3.464   5.711   6.167  0.6781 -0.4574  0.2976
   38POPC  H12A 5041   3.563   5.693   6.126 -0.0567 -1.4163 -1.1303
   38POPC  H12B 5042   3.449   5.647   6.253  1.4052  1.6599  2.0756
   38POPC   C13 5043   3.410   5.746   5.929  0.1903 -0.0524  0.0263
   38POPC  H13A 5044   3.390   5.851   5.942 -0.2741 -0.3367  1.8632
   38POPC  H13B 5045   3.515   5.735   5.907  0.3035  1.6364 -0.4172
   38POPC  H13C 5046   3.359   5.715   5.839  0.4435 -0.0954 -0.1043
   38POPC   C14 5047   3.386   5.524   6.027  0.6482  0.6204  0.2012
   38POPC  H14A 5048   3.489   5.490   6.024  0.2413 -0.6650 -2.9198
   38POPC  H14B 5049   3.328   5.475   6.104 -0.4853 -1.2358 -1.7316
   38POPC  H14C 5050   3.350   5.490   5.931  0.3035 -2.1134  1.2058
   38POPC   C15 5051   3.236   5.713   6.089 -0.5334 -0.5261  0.7896
   38POPC  H15A 5052   3.240   5.816   6.120  1.3384 -1.3579  3.6641
   38POPC  H15B 5053   3.198   5.658   6.174  1.1684 -0.4453  1.6381
   38POPC  H15C 5054   3.171   5.712   6.003 -1.8378  0.6923  1.7013
   38POPC   C11 5055   3.454   5.846   6.224 -0.3651  0.3694 -0.2407
   38POPC  H11A 5056   3.450   5.915   6.137  1.5312  1.4398  0.4580
   38POPC  H11B 5057   3.545   5.882   6.277  1.1590  0.7704 -2.9788
   38POPC     P 5058   3.320   5.796   6.448 -0.4072  0.3606  0.2563
   38POPC   O13 5059   3.246   5.670   6.431 -0.7975 -0.4400 -0.0917
   38POPC   O14 5060   3.248   5.900   6.530  0.5026 -0.5383 -0.7501
   38POPC   O12 5061   3.336   5.864   6.308 -0.0254  0.2004  0.0713
   38POPC   O11 5062   3.467   5.787   6.494  0.1438  0.0542  0.7552
   38POPC    C1 5063   3.549   5.897   6.527 -0.0735 -0.4261  0.1918
   38POPC    HA 5064   3.496   5.988   6.494  0.2731 -1.2954 -3.0906
   38POPC    HB 5065   3.643   5.891   6.468  1.1232  0.3353  1.9357
   38POPC    C2 5066   3.584   5.902   6.681 -0.1308  0.2948  0.4476
   38POPC    HS 5067   3.630   6.003   6.693 -0.4163  0.4419  0.3218
   38POPC   O21 5068   3.677   5.793   6.705  0.1471 -0.1530 -0.1726
   38POPC   C21 5069   3.769   5.818   6.783 -0.7040 -0.0139  0.6463
   38POPC   O22 5070   3.785   5.919   6.846  0.3994 -0.1025 -0.1642
   38POPC   C22 5071   3.864   5.696   6.794  0.5988  0.0648  0.0193
   38POPC   H2R 5072   3.967   5.715   6.758  0.5223  2.0860  0.7332
   38POPC   H2S 5073   3.820   5.619   6.727  0.9630 -0.4447  0.3554
   38POPC    C3 5074   3.461   5.905   6.771  0.3060 -0.0268  0.7209
   38POPC    HX 5075   3.405   5.812   6.749  0.5015 -0.4308  1.8680
   38POPC    HY 5076   3.392   5.988   6.742  0.6852 -0.0670 -0.3591
   38POPC   O31 5077   3.496   5.914   6.908 -0.2036 -0.0960 -0.7663
   38POPC   C31 5078   3.524   6.037   6.952  0.0408 -0.1991  0.1316
   38POPC   O32 5079   3.508   6.142   6.889  0.4300 -0.0504 -0.8722
   38POPC   C32 5080   3.580   6.025   7.091  0.6933 -0.6161 -0.2055
   38POPC   H2X 5081   3.608   6.119   7.143 -0.8490  0.4314 -1.1667
   38POPC   H2Y 5082   3.675   5.968   7.085  3.7319  3.9672 -0.7042
   38POPC   C23 5083   3.874   5.642   6.942 -0.5623  0.0531  1.0996
   38POPC   H3R 5084   3.897   5.534   6.937 -0.8335  0.0109  0.7633
   38POPC   H3S 5085   3.788   5.652   7.011  0.7486  1.2724  2.6484
   38POPC   C24 5086   3.979   5.723   7.033  1.0614  0.7462  0.4925
   38POPC   H4R 5087   3.974   5.834   7.021 -0.2276  0.5649 -0.9282
   38POPC   H4S 5088   4.083   5.708   6.996  1.2007  2.9673 -0.2056
   38POPC   C25 5089   3.977   5.690   7.185 -0.1935 -0.2668 -0.6157
   38POPC   H5R 5090   4.059   5.746   7.235 -0.9227 -0.7952  1.2465
   38POPC   H5S 5091   3.990   5.581   7.194 -2.5590 -0.5282  0.2273
   38POPC   C26 5092   3.853   5.731   7.266 -0.4809 -0.4606 -0.3080
   38POPC   H6R 5093   3.759   5.706   7.212 -1.2624  2.2893 -0.3752
   38POPC   H6S 5094   3.854   5.842   7.272 -0.9023 -0.5006  0.7083
   38POPC   C27 5095   3.848   5.669   7.403 -0.3937 -0.1512 -0.0784
   38POPC   H7R 5096   3.857   5.560   7.388  3.5474 -0.0668  0.5727
   38POPC   H7S 5097   3.749   5.689   7.449 -0.3932  2.0531 -0.8676
   38POPC   C28 5098   3.973   5.721   7.490  0.3096 -0.2478  0.2564
   38POPC   H8R 5099   3.980   5.831   7.474  0.1354 -0.5273 -2.1557
   38POPC   H8S 5100   4.074   5.689   7.457  1.0413  1.5561  0.6371
   38POPC   C29 5101   3.937   5.677   7.637  0.3063 -0.9775 -0.1003
   38POPC   H91 5102   3.836   5.641   7.662  0.4376  0.3451  2.6890
   38POPC  C210 5103   4.016   5.690   7.742 -0.4675  0.2662 -0.7278
   38POPC  H101 5104   3.984   5.645   7.838  0.8792 -0.7223 -0.6977
   38POPC  C211 5105   4.158   5.743   7.738  0.5535 -0.4348 -0.1250
   38POPC  H11R 5106   4.149   5.830   7.669 -1.3348 -1.5520 -1.3827
   38POPC  H11S 5107   4.239   5.673   7.706  1.0592  0.5182 -1.0219
   38POPC  C212 5108   4.202   5.809   7.872  0.4523 -0.2123  0.3876
   38POPC  H12R 5109   4.119   5.877   7.901 -0.9070 -2.2044  1.4150
   38POPC  H12S 5110   4.283   5.882   7.849  0.1559 -0.0200 -0.0557
   38POPC  C213 5111   4.249   5.718   7.989 -0.4093  0.9471 -0.3518
   38POPC  H13R 5112   4.304   5.630   7.952  2.4112  1.6569  1.8216
   38POPC  H13S 5113   4.161   5.682   8.046 -1.0301  1.1913 -1.1225
   38POPC  C214 5114   4.349   5.794   8.071  0.4076  0.0767  0.2192
   38POPC  H14R 5115   4.430   5.838   8.009  1.0365 -0.5865  0.5710
   38POPC  H14S 5116   4.398   5.714   8.130 -2.3742 -1.7590  0.2098
   38POPC  C215 5117   4.293   5.905   8.159  0.1363 -0.6558  0.3716
   38POPC  H15R 5118   4.248   5.979   8.090 -1.2979 -2.3951 -0.6636
   38POPC  H15S 5119   4.379   5.957   8.206 -0.7209  2.9207 -1.6225
   38POPC  C216 5120   4.191   5.862   8.275  0.0647  0.4247  0.5726
   38POPC  H16R 5121   4.224   5.766   8.320  0.0550 -0.0419 -0.3891
   38POPC  H16S 5122   4.093   5.845   8.225  1.0350 -1.1958 -0.8703
   38POPC  C217 5123   4.163   5.970   8.378 -0.0998 -0.1929  1.0571
   38POPC  H17R 5124   4.115   6.052   8.320  1.4353 -0.3935 -0.5677
   38POPC  H17S 5125   4.262   6.012   8.405 -0.3615  1.3636 -0.2937
   38POPC  C218 5126   4.088   5.921   8.503 -0.8970 -0.4753  0.3817
   38POPC  H18R 5127   4.066   6.013   8.560 -1.8538 -0.1371 -0.4953
   38POPC  H18S 5128   4.142   5.848   8.566 -2.2088 -1.0498  0.8753
   38POPC  H18T 5129   3.999   5.862   8.471 -0.6561 -2.2368  2.7092
   38POPC   C33 5130   3.479   5.949   7.180 -0.1406  0.2314  0.4064
   38POPC   H3X 5131   3.459   5.850   7.132  1.2366  0.5280 -0.8649
   38POPC   H3Y 5132   3.388   6.012   7.184 -0.4784 -0.2570  0.4469
   38POPC   C34 5133   3.537   5.919   7.321  0.2974  0.0711 -0.2874
   38POPC   H4X 5134   3.619   5.844   7.319  1.5368  1.3632  0.6459
   38POPC   H4Y 5135   3.452   5.881   7.381 -1.0608  1.5062 -1.2174
   38POPC   C35 5136   3.594   6.031   7.405 -0.3817 -0.6437  0.1131
   38POPC   H5X 5137   3.520   6.114   7.401  1.1941  0.7740 -1.9720
   38POPC   H5Y 5138   3.680   6.070   7.346 -0.9096 -2.6178 -2.1266
   38POPC   C36 5139   3.638   5.983   7.538 -0.5330 -0.3790  0.0935
   38POPC   H6X 5140   3.747   5.962   7.537 -0.5830 -1.1574  2.9208
   38POPC   H6Y 5141   3.584   5.888   7.558  0.0632 -0.3518  2.0610
   38POPC   C37 5142   3.622   6.075   7.659 -0.1083  0.3183  0.4425
   38POPC   H7X 5143   3.515   6.096   7.678 -0.2197 -1.6171  2.4211
   38POPC   H7Y 5144   3.672   6.174   7.659  1.8802 -0.5869  2.8050
   38POPC   C38 5145   3.683   6.001   7.778 -0.0566  0.4822  0.0216
   38POPC   H8X 5146   3.793   5.990   7.773  0.0209  1.3629 -0.3194
   38POPC   H8Y 5147   3.646   5.896   7.781 -0.0490  0.4868  0.2521
   38POPC   C39 5148   3.652   6.067   7.912  0.4253 -0.2273  0.8031
   38POPC   H9X 5149   3.690   6.009   7.998 -1.9948 -0.7739  1.5732
   38POPC   H9Y 5150   3.543   6.078   7.927  0.2822  0.8201 -0.7330
   38POPC  C310 5151   3.726   6.206   7.930 -0.2646 -0.4141 -0.2754
   38POPC  H10X 5152   3.679   6.270   7.851 -3.5020 -1.0451  0.9804
   38POPC  H10Y 5153   3.834   6.189   7.914  0.1929 -0.5647  2.5702
   38POPC  C311 5154   3.718   6.267   8.071  0.0236  0.1007 -0.9686
   38POPC  H11X 5155   3.611   6.273   8.099 -0.6569 -0.1151 -3.3443
   38POPC  H11Y 5156   3.761   6.369   8.080 -1.1002  0.5638 -0.6491
   38POPC  C312 5157   3.806   6.186   8.170 -0.2035  0.5535  0.6385
   38POPC  H12X 5158   3.904   6.181   8.119 -1.0004  0.0307 -0.9100
   38POPC  H12Y 5159   3.763   6.084   8.183  1.2550  0.2356  4.0877
   38POPC  C313 5160   3.806   6.241   8.319  0.0718 -0.3596  1.0085
   38POPC  H13X 5161   3.842   6.346   8.318 -1.7425  0.3208 -1.3228
   38POPC  H13Y 5162   3.871   6.173   8.379  2.3156 -0.8867 -1.7954
   38POPC  C314 5163   3.664   6.244   8.375 -0.3662  0.2505  0.3710
   38POPC  H14X 5164   3.625   6.141   8.389  2.0102 -0.9580 -1.1815
   38POPC  H14Y 5165   3.592   6.287   8.301  0.0175  1.2380  0.5492
   38POPC  C315 5166   3.639   6.341   8.493  0.0886 -0.3933 -0.9172
   38POPC  H15X 5167   3.530   6.341   8.512 -0.0054 -0.0447 -1.4591
   38POPC  H15Y 5168   3.671   6.441   8.459 -1.0863  0.4030  0.2503
   38POPC  C316 5169   3.718   6.312   8.620 -0.1109  0.0514  0.2779
   38POPC  H16X 5170   3.823   6.347   8.606  0.2089 -1.0655 -0.2777
   38POPC  H16Y 5171   3.713   6.205   8.648  0.4235 -0.0047  0.1712
   38POPC  H16Z 5172   3.671   6.366   8.705 -0.0866  1.1106 -0.3652
   39POPC     N 5173   1.353   2.805   6.189 -0.2469 -0.5590 -0.2635
   39POPC   C12 5174   1.287   2.765   6.057 -0.3109 -0.7657  0.6034
   39POPC  H12A 5175   1.364   2.705   6.010  0.5833 -0.1715  1.2938
   39POPC  H12B 5176   1.269   2.848   5.989  0.7663  0.7769  2.1241
   39POPC   C13 5177   1.504   2.818   6.167  0.3807  0.4019 -0.3450
   39POPC  H13A 5178   1.550   2.721   6.166 -0.1778  0.1339 -1.3816
   39POPC  H13B 5179   1.528   2.867   6.074  0.2176  0.4492 -0.3633
   39POPC  H13C 5180   1.545   2.865   6.255 -0.9088 -1.4082  1.3119
   39POPC   C14 5181   1.312   2.941   6.233 -0.1486 -0.1263  0.1583
   39POPC  H14A 5182   1.328   3.011   6.153 -2.2996  1.0018  0.6270
   39POPC  H14B 5183   1.207   2.944   6.259 -0.1927  0.7346 -0.0896
   39POPC  H14C 5184   1.376   2.970   6.315 -2.0544 -0.4396  1.8326
   39POPC   C15 5185   1.328   2.706   6.296 -0.0725  0.1975 -0.1572
   39POPC  H15A 5186   1.363   2.733   6.394  0.8359 -2.2915  0.2738
   39POPC  H15B 5187   1.355   2.607   6.261 -1.0490  0.1834 -0.9248
   39POPC  H15C 5188   1.222   2.685   6.306  0.1535 -0.7820  0.2617
   39POPC   C11 5189   1.161   2.685   6.067 -0.1777 -0.4363  0.2380
   39POPC  H11A 5190   1.191   2.586   6.108  1.0457  0.4887  1.6612
   39POPC  H11B 5191   1.120   2.685   5.963  1.6356 -0.6616 -0.5043
   39POPC     P 5192   0.930   2.668   6.187 -0.6935 -0.3039 -0.0437
   39POPC   O13 5193   0.943   2.523   6.181 -0.2493  0.3995 -0.3569
   39POPC   O14 5194   0.808   2.721   6.118 -0.1754 -0.0257 -0.0523
   39POPC   O12 5195   1.060   2.742   6.154  0.0033  0.2222 -0.1881
   39POPC   O11 5196   0.933   2.707   6.335 -0.3095  0.2729  0.2442
   39POPC    C1 5197   0.997   2.808   6.413  0.0124 -0.0276  0.3051
   39POPC    HA 5198   0.931   2.897   6.423  0.9146  1.0539 -2.4218
   39POPC    HB 5199   1.091   2.839   6.362  0.4712  1.2082  1.8231
   39POPC    C2 5200   1.050   2.752   6.549 -0.0947 -0.0635 -0.1087
   39POPC    HS 5201   1.094   2.651   6.535 -1.3087 -0.5056 -0.8938
   39POPC   O21 5202   0.936   2.756   6.640 -0.2646 -0.3874 -0.6603
   39POPC   C21 5203   0.873   2.642   6.656 -0.7051  1.0856 -0.2657
   39POPC   O22 5204   0.914   2.536   6.613 -0.2979  0.1065 -0.4248
   39POPC   C22 5205   0.750   2.655   6.752 -0.1765  0.2992 -0.1250
   39POPC   H2R 5206   0.679   2.727   6.706 -0.6928 -0.2497 -0.1950
   39POPC   H2S 5207   0.800   2.715   6.831  1.5968  1.8721 -2.2961
   39POPC    C3 5208   1.159   2.851   6.605  0.2201  0.6156 -0.1536
   39POPC    HX 5209   1.124   2.956   6.601 -1.0703  0.3555  2.0831
   39POPC    HY 5210   1.244   2.848   6.533  0.0191  0.2357 -0.3809
   39POPC   O31 5211   1.205   2.819   6.743 -0.3683 -0.2750  0.2341
   39POPC   C31 5212   1.286   2.715   6.749  0.7319  0.1866  0.2823
   39POPC   O32 5213   1.319   2.643   6.657 -0.2850  0.0364  0.3826
   39POPC   C32 5214   1.302   2.675   6.899  0.6160  0.1196  0.2412
   39POPC   H2X 5215   1.356   2.758   6.951  2.1066  0.4752 -1.7292
   39POPC   H2Y 5216   1.201   2.660   6.942  0.3378  0.2168 -0.3654
   39POPC   C23 5217   0.676   2.528   6.796  0.5991  0.5876 -0.7387
   39POPC   H3R 5218   0.745   2.441   6.801  2.5529  1.9744 -2.0869
   39POPC   H3S 5219   0.606   2.506   6.713 -1.3928  0.9640  0.7534
   39POPC   C24 5220   0.602   2.546   6.929  0.5699 -0.5812 -0.4485
   39POPC   H4R 5221   0.527   2.467   6.953 -1.9257  1.5830 -0.6225
   39POPC   H4S 5222   0.534   2.631   6.909  2.3885  0.9174 -0.4774
   39POPC   C25 5223   0.672   2.586   7.051 -0.8877  0.2160 -0.1181
   39POPC   H5R 5224   0.602   2.598   7.137  1.1872 -1.2515  1.8761
   39POPC   H5S 5225   0.722   2.684   7.040 -2.3703  0.9361 -0.7940
   39POPC   C26 5226   0.774   2.481   7.111 -0.9436  0.4494 -0.1854
   39POPC   H6R 5227   0.849   2.462   7.031 -1.6862  1.0897 -1.0470
   39POPC   H6S 5228   0.722   2.385   7.130  0.5346 -0.3644 -0.0344
   39POPC   C27 5229   0.842   2.528   7.239 -0.1554  0.2350  0.0289
   39POPC   H7R 5230   0.859   2.635   7.214 -0.2217  0.0641 -0.8023
   39POPC   H7S 5231   0.945   2.489   7.250  0.1985  0.8716 -0.9243
   39POPC   C28 5232   0.760   2.514   7.362  0.7960  0.0154 -0.4169
   39POPC   H8R 5233   0.731   2.409   7.384  1.8328 -0.7218 -2.2924
   39POPC   H8S 5234   0.664   2.565   7.341  0.5617  1.6625  3.8132
   39POPC   C29 5235   0.821   2.581   7.484 -0.0795  0.3367  0.8641
   39POPC   H91 5236   0.836   2.687   7.462 -2.0986  0.3238 -0.9316
   39POPC  C210 5237   0.854   2.540   7.606  0.2514  0.7724 -0.6760
   39POPC  H101 5238   0.905   2.612   7.672  2.4974 -1.5677  0.3624
   39POPC  C211 5239   0.836   2.395   7.647 -0.3347  0.3101 -0.1759
   39POPC  H11R 5240   0.935   2.347   7.631  0.0685  1.8305 -2.8552
   39POPC  H11S 5241   0.768   2.335   7.583  2.8036 -1.1264 -2.4447
   39POPC  C212 5242   0.801   2.375   7.793  0.5346  0.0117  1.2516
   39POPC  H12R 5243   0.786   2.265   7.793  0.9835 -0.0681 -0.0557
   39POPC  H12S 5244   0.705   2.423   7.819 -0.4577 -1.7641  1.0568
   39POPC  C213 5245   0.903   2.418   7.884 -0.1587  0.0842  0.1899
   39POPC  H13R 5246   0.905   2.529   7.879 -0.5704  0.1529  1.2373
   39POPC  H13S 5247   1.006   2.400   7.847  0.2233  4.3510 -1.3972
   39POPC  C214 5248   0.886   2.380   8.026  0.4335  0.4355  0.0522
   39POPC  H14R 5249   0.882   2.271   8.046 -0.9005  0.4992  0.2577
   39POPC  H14S 5250   0.780   2.409   8.046 -0.0313 -0.9451 -0.3171
   39POPC  C215 5251   0.984   2.446   8.137 -0.1030  0.4313  0.2176
   39POPC  H15R 5252   1.087   2.455   8.098 -0.1392  1.5790  0.3484
   39POPC  H15S 5253   0.981   2.389   8.233  1.2201 -2.3670 -1.2767
   39POPC  C216 5254   0.949   2.592   8.163  0.6900 -0.2710 -0.0627
   39POPC  H16R 5255   0.840   2.604   8.182  0.8948  0.2166  0.9242
   39POPC  H16S 5256   0.974   2.655   8.075  1.2287  1.3976  1.2157
   39POPC  C217 5257   1.028   2.651   8.274 -1.0213 -0.5164 -1.0455
   39POPC  H17R 5258   1.134   2.624   8.254 -0.2851 -2.5571  4.1013
   39POPC  H17S 5259   1.000   2.599   8.368 -0.7432  0.1327 -0.6035
   39POPC  C218 5260   1.019   2.804   8.287  0.3814  0.3748 -0.2435
   39POPC  H18R 5261   1.066   2.845   8.379 -0.2254  0.6261 -0.0404
   39POPC  H18S 5262   0.913   2.837   8.283  1.2176  3.2028 -1.5946
   39POPC  H18T 5263   1.073   2.849   8.201  0.1164 -1.6466 -1.5415
   39POPC   C33 5264   1.379   2.544   6.919 -0.1483  0.3780  0.1726
   39POPC   H3X 5265   1.479   2.550   6.872  0.0686 -0.3988  0.5189
   39POPC   H3Y 5266   1.331   2.452   6.879  2.0882 -0.5050 -0.5966
   39POPC   C34 5267   1.409   2.515   7.065  0.2897  0.6677 -0.3978
   39POPC   H4X 5268   1.443   2.603   7.123  1.1190  1.4047 -1.9341
   39POPC   H4Y 5269   1.482   2.432   7.080 -2.3498 -1.7788 -0.3139
   39POPC   C35 5270   1.283   2.470   7.141  0.3068 -0.1283  0.1150
   39POPC   H5X 5271   1.242   2.379   7.091  2.8827  0.2064 -2.8394
   39POPC   H5Y 5272   1.205   2.550   7.145 -0.0477 -0.4540 -0.1584
   39POPC   C36 5273   1.326   2.434   7.284 -0.4887  0.4190  0.6073
   39POPC   H6X 5274   1.328   2.535   7.330 -1.3468  1.2482 -1.0754
   39POPC   H6Y 5275   1.428   2.393   7.290 -0.3417  0.7422  0.3261
   39POPC   C37 5276   1.231   2.343   7.367  0.2097  0.0595  0.2438
   39POPC   H7X 5277   1.258   2.236   7.359  2.1474  0.5983 -1.1786
   39POPC   H7Y 5278   1.128   2.344   7.326 -0.0798  1.5562  0.9200
   39POPC   C38 5279   1.223   2.390   7.514 -0.5166 -0.0831  0.8171
   39POPC   H8X 5280   1.141   2.338   7.570 -1.9639  2.7769  1.5816
   39POPC   H8Y 5281   1.179   2.492   7.525 -1.9094 -0.4364 -1.1165
   39POPC   C39 5282   1.355   2.377   7.596  0.3894  0.0966  0.9700
   39POPC   H9X 5283   1.435   2.447   7.562  2.2140 -2.8712 -1.4884
   39POPC   H9Y 5284   1.390   2.274   7.575 -2.7526 -0.4878 -2.4477
   39POPC  C310 5285   1.349   2.418   7.747 -0.1402  0.9099 -0.5999
   39POPC  H10X 5286   1.429   2.363   7.801  0.9477  2.7088 -0.2589
   39POPC  H10Y 5287   1.249   2.396   7.790  0.7261  0.1823  1.1473
   39POPC  C311 5288   1.368   2.566   7.777  0.4534 -0.0644 -0.1628
   39POPC  H11X 5289   1.311   2.630   7.706 -0.5379 -0.1643  0.5163
   39POPC  H11Y 5290   1.472   2.594   7.752 -0.6529  2.7669 -2.1803
   39POPC  C312 5291   1.321   2.615   7.911 -0.1773  0.3133  0.2244
   39POPC  H12X 5292   1.347   2.531   7.979 -3.5997 -0.8629  0.2603
   39POPC  H12Y 5293   1.212   2.634   7.916 -0.0421  1.4394 -0.6550
   39POPC  C313 5294   1.390   2.742   7.953  0.6089  0.3322 -0.3165
   39POPC  H13X 5295   1.348   2.823   7.889  2.5373  1.9494  0.3547
   39POPC  H13Y 5296   1.499   2.738   7.934  0.0505 -0.0727 -4.1639
   39POPC  C314 5297   1.370   2.766   8.106 -0.5770  0.4605  0.3229
   39POPC  H14X 5298   1.413   2.681   8.163  1.8311  0.3913 -1.3978
   39POPC  H14Y 5299   1.261   2.769   8.128 -0.3442 -0.4700  1.6874
   39POPC  C315 5300   1.401   2.909   8.151  0.2253 -0.1572 -0.2130
   39POPC  H15X 5301   1.508   2.928   8.127  0.1052  0.7869 -0.0491
   39POPC  H15Y 5302   1.390   2.900   8.261  1.4945 -0.5613 -0.1062
   39POPC  C316 5303   1.323   3.020   8.104  0.1571 -0.2464 -0.0628
   39POPC  H16X 5304   1.352   3.125   8.127 -2.7756  0.4009  1.1951
   39POPC  H16Y 5305   1.222   3.020   8.151  1.6543  0.6225  3.4934
   39POPC  H16Z 5306   1.299   3.025   7.996 -1.9026 -0.2947  0.3554
   40POPC     N 5307   5.798   1.846   6.232 -0.1303 -0.2894  0.0660
   40POPC   C12 5308   5.776   1.787   6.364 -0.7235  0.0183 -0.0895
   40POPC  H12A 5309   5.870   1.788   6.418 -0.6238  0.0576 -0.2643
   40POPC  H12B 5310   5.748   1.682   6.364  2.1142 -0.8364 -0.7149
   40POPC   C13 5311   5.678   1.850   6.152  0.6393  0.3943 -0.1185
   40POPC  H13A 5312   5.642   1.752   6.126  1.0345  0.5109 -1.1414
   40POPC  H13B 5313   5.604   1.912   6.199  0.4806  0.2252 -0.1475
   40POPC  H13C 5314   5.703   1.886   6.053  3.5353 -0.9534  0.0062
   40POPC   C14 5315   5.839   1.990   6.258 -0.4762  0.2072  0.1437
   40POPC  H14A 5316   5.833   2.047   6.166 -0.7500 -0.4491 -0.2531
   40POPC  H14B 5317   5.779   2.040   6.333 -1.1089  2.1512 -1.5691
   40POPC  H14C 5318   5.940   1.991   6.296 -0.0768  2.3799 -0.8501
   40POPC   C15 5319   5.906   1.769   6.159  0.2709 -0.6569 -0.2571
   40POPC  H15A 5320   5.994   1.776   6.222 -1.1998  0.1977  1.7961
   40POPC  H15B 5321   5.926   1.807   6.060  1.9313  2.1063  1.0227
   40POPC  H15C 5322   5.881   1.664   6.149  3.7237 -1.7794  1.2529
   40POPC   C11 5323   5.664   1.852   6.447 -0.3190  0.0259 -0.7812
   40POPC  H11A 5324   5.689   1.960   6.452  0.0475 -0.0683 -0.5631
   40POPC  H11B 5325   5.675   1.813   6.550 -0.7098  1.4789 -0.1643
   40POPC     P 5326   5.393   1.901   6.438 -0.1326 -0.2526 -0.1904
   40POPC   O13 5327   5.282   1.832   6.371 -0.0800  0.8364 -0.3430
   40POPC   O14 5328   5.418   2.043   6.406  0.1380 -0.2056 -0.3354
   40POPC   O12 5329   5.528   1.819   6.400  0.2341  0.8471  0.2978
   40POPC   O11 5330   5.374   1.892   6.592 -0.5884 -0.0196 -0.1888
   40POPC    C1 5331   5.308   1.777   6.654  0.0534  0.5449  0.6468
   40POPC    HA 5332   5.291   1.693   6.583 -1.7881 -0.1704  1.8702
   40POPC    HB 5333   5.205   1.809   6.678 -0.0880 -0.4028  1.3680
   40POPC    C2 5334   5.371   1.723   6.783 -0.0416 -0.7022  0.1253
   40POPC    HS 5335   5.304   1.649   6.831  0.0331  0.4715  2.1493
   40POPC   O21 5336   5.402   1.834   6.870 -0.3742 -0.2127  0.4958
   40POPC   C21 5337   5.290   1.888   6.921 -0.4340  0.1745 -0.1165
   40POPC   O22 5338   5.180   1.833   6.922 -0.2417 -0.2608  0.0334
   40POPC   C22 5339   5.313   2.017   6.988  0.0568  0.1337 -0.4934
   40POPC   H2R 5340   5.241   2.096   6.957 -0.2695  0.7495  1.6516
   40POPC   H2S 5341   5.411   2.059   6.955 -1.3112  1.8837 -2.5595
   40POPC    C3 5342   5.498   1.642   6.763  0.1401  0.4495 -0.1698
   40POPC    HX 5343   5.570   1.695   6.697  0.9807  1.6068  1.6086
   40POPC    HY 5344   5.449   1.557   6.711  0.0133  0.3176  0.1614
   40POPC   O31 5345   5.550   1.610   6.890 -0.0121  0.3666 -0.0154
   40POPC   C31 5346   5.672   1.558   6.879  0.2886  0.3879 -0.0426
   40POPC   O32 5347   5.734   1.533   6.778 -0.7514  0.4866 -0.1035
   40POPC   C32 5348   5.732   1.538   7.015 -0.5257 -0.6884 -0.5152
   40POPC   H2X 5349   5.729   1.641   7.056  0.5536 -0.5519 -0.7392
   40POPC   H2Y 5350   5.838   1.506   7.012 -0.7978 -1.7973  0.8685
   40POPC   C23 5351   5.306   2.005   7.142 -0.3797 -0.1493 -0.0459
   40POPC   H3R 5352   5.205   1.964   7.159 -0.5672 -0.5742 -1.9201
   40POPC   H3S 5353   5.306   2.112   7.174  1.7916  0.4849 -1.8785
   40POPC   C24 5354   5.425   1.922   7.195  0.4225  0.9521 -0.0171
   40POPC   H4R 5355   5.518   1.964   7.153  0.0447  0.7272 -1.1093
   40POPC   H4S 5356   5.414   1.812   7.180  1.0911  0.8109  0.4794
   40POPC   C25 5357   5.431   1.939   7.349 -0.4475  0.2258 -0.5737
   40POPC   H5R 5358   5.509   1.876   7.397 -0.5043  0.8546  0.3715
   40POPC   H5S 5359   5.328   1.916   7.385 -0.3650  2.7737  1.5781
   40POPC   C26 5360   5.461   2.086   7.392  0.4464  0.9615  0.4432
   40POPC   H6R 5361   5.375   2.150   7.366 -1.2631 -0.8917  1.2886
   40POPC   H6S 5362   5.560   2.118   7.353  1.3967 -1.1866  0.9250
   40POPC   C27 5363   5.479   2.072   7.543  0.5350 -0.7021 -0.6422
   40POPC   H7R 5364   5.569   2.011   7.565  0.1639 -1.2136 -0.5308
   40POPC   H7S 5365   5.403   2.011   7.596  1.7241 -1.5592  0.1364
   40POPC   C28 5366   5.496   2.206   7.619 -0.4200 -0.0006 -0.4556
   40POPC   H8R 5367   5.445   2.187   7.715 -1.6257  0.0181 -1.0720
   40POPC   H8S 5368   5.425   2.276   7.571  0.3904  1.0618 -0.1340
   40POPC   C29 5369   5.630   2.270   7.631  0.1245  0.4037  0.3181
   40POPC   H91 5370   5.687   2.276   7.537 -1.8472 -0.8682 -1.0386
   40POPC  C210 5371   5.677   2.335   7.732 -0.6569 -0.3326  0.5857
   40POPC  H101 5372   5.772   2.389   7.721 -1.3285  0.4935 -2.1696
   40POPC  C211 5373   5.613   2.356   7.868 -0.0207  0.3452 -0.0494
   40POPC  H11R 5374   5.643   2.276   7.939 -2.3793  0.0134  0.6605
   40POPC  H11S 5375   5.502   2.360   7.859 -0.0496  1.4034  0.6131
   40POPC  C212 5376   5.650   2.491   7.927 -0.2653  0.4577 -0.0847
   40POPC  H12R 5377   5.628   2.570   7.853  2.3980  0.9092 -0.4886
   40POPC  H12S 5378   5.761   2.488   7.939 -0.4280 -1.7942  1.5857
   40POPC  C213 5379   5.600   2.523   8.067  0.1891 -0.0574 -0.4357
   40POPC  H13R 5380   5.637   2.441   8.133  1.5282  0.5233 -0.4362
   40POPC  H13S 5381   5.489   2.527   8.068  0.2362  2.3403  0.1986
   40POPC  C214 5382   5.643   2.658   8.127 -0.1884  0.3950 -0.2635
   40POPC  H14R 5383   5.603   2.656   8.231  1.8115  0.6619  0.5504
   40POPC  H14S 5384   5.594   2.741   8.072  0.5969  1.0930  0.0787
   40POPC  C215 5385   5.795   2.678   8.134  1.0866 -0.1655  0.5943
   40POPC  H15R 5386   5.800   2.768   8.199  0.0131 -0.9026  1.7308
   40POPC  H15S 5387   5.836   2.696   8.032 -0.4229 -1.5095 -0.2907
   40POPC  C216 5388   5.865   2.569   8.213  0.1526  0.0963 -0.5382
   40POPC  H16R 5389   5.886   2.487   8.142  0.8582 -2.5070  2.4307
   40POPC  H16S 5390   5.809   2.526   8.299  0.2489  1.5309  0.2821
   40POPC  C217 5391   6.003   2.632   8.253 -0.2191 -0.3840  0.4492
   40POPC  H17R 5392   5.975   2.707   8.330  0.5535 -0.7927  1.1528
   40POPC  H17S 5393   6.049   2.681   8.165 -0.6325 -1.1187 -0.1902
   40POPC  C218 5394   6.096   2.529   8.308  0.0962  0.0846  0.0504
   40POPC  H18R 5395   6.196   2.574   8.322 -1.1117  2.5794  1.2264
   40POPC  H18S 5396   6.106   2.442   8.239 -0.1041 -1.0794  1.4389
   40POPC  H18T 5397   6.053   2.490   8.403  0.5691  0.8991  0.6058
   40POPC   C33 5398   5.650   1.446   7.107  0.3290 -0.6385 -0.4216
   40POPC   H3X 5399   5.674   1.340   7.087  0.7604 -0.3246 -1.6313
   40POPC   H3Y 5400   5.542   1.446   7.082 -0.1075 -0.1735  1.3032
   40POPC   C34 5401   5.647   1.491   7.252 -0.2671 -0.4963  0.7402
   40POPC   H4X 5402   5.606   1.594   7.248 -1.6639 -1.0330  0.4762
   40POPC   H4Y 5403   5.750   1.505   7.289  0.3369 -0.7796 -0.7544
   40POPC   C35 5404   5.547   1.404   7.337 -0.4585 -0.9366 -0.4996
   40POPC   H5X 5405   5.577   1.298   7.345 -0.6802 -0.8589  2.1273
   40POPC   H5Y 5406   5.446   1.409   7.289 -0.6183  0.8443 -0.0496
   40POPC   C36 5407   5.523   1.469   7.472 -0.2682 -0.7664  0.1549
   40POPC   H6X 5408   5.624   1.475   7.517 -1.0156 -0.6609  1.8820
   40POPC   H6Y 5409   5.465   1.387   7.520  0.9715 -0.9768  1.3175
   40POPC   C37 5410   5.443   1.600   7.472  0.2719  0.3574  0.4353
   40POPC   H7X 5411   5.349   1.569   7.422  0.8758  1.6911 -1.6712
   40POPC   H7Y 5412   5.500   1.670   7.406 -0.5766  0.9304  0.2954
   40POPC   C38 5413   5.417   1.669   7.603 -0.6191  0.3500  0.1923
   40POPC   H8X 5414   5.349   1.605   7.663  1.0996 -2.7124 -0.9028
   40POPC   H8Y 5415   5.389   1.773   7.573  1.4270  0.3085 -2.1851
   40POPC   C39 5416   5.546   1.699   7.686 -0.5240 -0.2194 -0.1494
   40POPC   H9X 5417   5.631   1.749   7.635  1.1117 -2.0052  0.6734
   40POPC   H9Y 5418   5.585   1.598   7.713  0.2114  0.3178  0.8791
   40POPC  C310 5419   5.516   1.762   7.819 -0.1566 -0.0261  0.3588
   40POPC  H10X 5420   5.416   1.732   7.856 -1.8289  2.5049 -1.7891
   40POPC  H10Y 5421   5.508   1.872   7.812  1.0026  0.0349 -0.3913
   40POPC  C311 5422   5.627   1.732   7.916 -0.3483 -0.8183  0.3434
   40POPC  H11X 5423   5.721   1.779   7.880 -1.7254  0.7835 -1.3796
   40POPC  H11Y 5424   5.630   1.622   7.930  1.4866 -0.4314  4.3750
   40POPC  C312 5425   5.608   1.781   8.066 -0.8462 -0.0141  1.2243
   40POPC  H12X 5426   5.597   1.892   8.060 -0.5955 -0.0432 -0.6067
   40POPC  H12Y 5427   5.694   1.759   8.132 -0.3907 -1.7466  0.1003
   40POPC  C313 5428   5.482   1.718   8.124 -0.0539  0.3115 -1.4137
   40POPC  H13X 5429   5.477   1.612   8.093  1.5681 -0.9100  2.0550
   40POPC  H13Y 5430   5.400   1.774   8.074 -0.7626  1.3545  0.7708
   40POPC  C314 5431   5.471   1.718   8.277 -0.5765 -0.1342 -0.3921
   40POPC  H14X 5432   5.549   1.653   8.323 -2.4088 -2.5257 -0.4573
   40POPC  H14Y 5433   5.376   1.669   8.307 -0.1880 -0.0690  1.0449
   40POPC  C315 5434   5.482   1.855   8.340 -0.2484  0.6823  1.2765
   40POPC  H15X 5435   5.399   1.925   8.319 -0.6692  0.3354  1.7629
   40POPC  H15Y 5436   5.576   1.907   8.313  0.3688  0.0735  2.1615
   40POPC  C316 5437   5.495   1.849   8.489  0.2036 -0.7014  0.1928
   40POPC  H16X 5438   5.399   1.821   8.538 -0.0300 -2.2377 -1.0439
   40POPC  H16Y 5439   5.520   1.947   8.535  2.4674 -0.7798 -0.7557
   40POPC  H16Z 5440   5.575   1.781   8.527  0.0680 -0.5030  0.8438
   41CHL1    C3 5441   0.016   6.007  10.058 -0.0753  0.1859 -0.8280
   41CHL1    H3 5442   0.046   6.113  10.044 -2.7784  1.0098 -0.8983
   41CHL1    O3 5443  -0.000   5.968  10.194  0.2531  0.1312  0.2995
   41CHL1   H3' 5444  -0.001   5.872  10.202 -0.8521  0.1379  0.5088
   41CHL1    C4 5445  -0.115   5.987   9.976 -0.1660  0.5455 -0.6481
   41CHL1   H4A 5446  -0.165   5.889   9.990 -3.3603  2.0546 -0.5694
   41CHL1   H4B 5447  -0.190   6.056  10.020 -1.1725 -1.4886  0.9676
   41CHL1    C5 5448  -0.106   6.007   9.827  0.3883  0.5699 -0.0119
   41CHL1    C6 5449  -0.177   6.097   9.770 -0.5715 -0.1350  0.6964
   41CHL1    H6 5450  -0.258   6.152   9.820 -1.8921  1.1095 -2.5296
   41CHL1    C7 5451  -0.185   6.130   9.625 -0.0765  0.7449 -0.0259
   41CHL1   H7A 5452  -0.282   6.139   9.571 -0.1214  3.4694  0.3708
   41CHL1   H7B 5453  -0.138   6.230   9.617  0.5531  0.5366  0.9256
   41CHL1    C8 5454  -0.102   6.021   9.547 -1.1760 -0.3637  0.1801
   41CHL1    H8 5455  -0.166   5.931   9.542 -2.3622  0.4884 -0.3097
   41CHL1   C14 5456  -0.083   6.075   9.403  0.6687 -0.1770  0.3277
   41CHL1   H14 5457  -0.026   6.170   9.407 -0.5623  0.5978 -0.1492
   41CHL1   C15 5458  -0.215   6.109   9.326  0.2155  0.2126 -0.7366
   41CHL1  H15A 5459  -0.282   6.023   9.343  0.9651 -0.3646 -0.6239
   41CHL1  H15B 5460  -0.266   6.201   9.359  1.4462  1.0896 -1.1950
   41CHL1   C16 5461  -0.173   6.133   9.179 -0.5131 -0.4511  0.2592
   41CHL1  H16A 5462  -0.239   6.088   9.102 -2.4166  1.9700  0.3606
   41CHL1  H16B 5463  -0.174   6.239   9.146 -0.8546 -0.8367 -1.0259
   41CHL1   C17 5464  -0.019   6.080   9.177  0.6954  0.1585 -0.8621
   41CHL1   H17 5465   0.037   6.175   9.183 -1.3257  1.5560 -2.5835
   41CHL1   C13 5466  -0.006   5.991   9.307 -0.3358 -0.4787  0.0386
   41CHL1   C18 5467  -0.081   5.848   9.303 -0.5051 -0.1490  0.1478
   41CHL1  H18A 5468  -0.181   5.848   9.255  0.5187 -0.9024 -2.1855
   41CHL1  H18B 5469  -0.017   5.784   9.238  0.3197  3.2361 -2.7059
   41CHL1  H18C 5470  -0.087   5.794   9.400  0.2561  1.8315  1.3528
   41CHL1   C12 5471   0.129   5.967   9.367  0.6096  0.0229 -0.5127
   41CHL1  H12A 5472   0.189   5.899   9.302  0.7353  0.3520 -0.7423
   41CHL1  H12B 5473   0.177   6.067   9.364 -0.4937  0.5598 -0.5673
   41CHL1   C11 5474   0.123   5.902   9.513  0.5337  0.6919 -0.5367
   41CHL1  H11A 5475   0.091   5.796   9.514  1.2321  0.4619  1.5355
   41CHL1  H11B 5476   0.227   5.897   9.552 -0.4931 -2.0245  2.1860
   41CHL1    C9 5477   0.037   5.986   9.610  0.2433 -0.4347 -0.8191
   41CHL1    H9 5478   0.078   6.088   9.625 -2.3976  0.8514 -1.6257
   41CHL1   C10 5479   0.007   5.928   9.756 -0.4157  0.5227  0.8570
   41CHL1   C19 5480  -0.029   5.780   9.755 -0.1870 -0.4400 -0.0441
   41CHL1  H19A 5481  -0.050   5.744   9.859  0.1713 -1.3081 -0.2593
   41CHL1  H19B 5482  -0.115   5.760   9.688  1.0223 -0.2431 -1.7027
   41CHL1  H19C 5483   0.055   5.732   9.700 -0.3426 -0.4064 -0.3090
   41CHL1    C1 5484   0.133   5.942   9.840 -0.0724  0.9734  0.4230
   41CHL1   H1A 5485   0.202   5.866   9.799  0.2397  0.8480  1.1612
   41CHL1   H1B 5486   0.170   6.044   9.813  0.3186  1.1772  1.6549
   41CHL1    C2 5487   0.125   5.917   9.991  0.1335 -0.1151 -0.4062
   41CHL1   H2A 5488   0.213   5.934  10.057 -2.3742 -1.5520  3.5999
   41CHL1   H2B 5489   0.096   5.812  10.012 -1.9831  0.8891  2.2165
   41CHL1   C20 5490   0.027   6.003   9.052  0.0720 -0.5882 -0.2399
   41CHL1   H20 5491   0.049   5.900   9.085 -1.1046 -0.2117  1.9614
   41CHL1   C21 5492   0.153   6.074   9.005  0.0337  0.2324  0.0245
   41CHL1  H21A 5493   0.204   6.027   8.918 -0.0170  3.1555 -1.7156
   41CHL1  H21B 5494   0.229   6.090   9.084 -0.2873  0.8958  0.1993
   41CHL1  H21C 5495   0.146   6.180   8.974  2.8553  0.2734 -0.7476
   41CHL1   C22 5496  -0.074   5.997   8.922 -0.5744 -0.2252 -0.5059
   41CHL1  H22A 5497  -0.026   5.929   8.850 -0.8703 -1.9448  0.8517
   41CHL1  H22B 5498  -0.162   5.943   8.965  0.2805 -0.0605  1.5745
   41CHL1   C23 5499  -0.103   6.129   8.856 -0.3312 -0.6543  1.1279
   41CHL1  H23A 5500  -0.127   6.217   8.918  2.1630  1.7500 -1.0505
   41CHL1  H23B 5501  -0.008   6.157   8.807  0.6680  0.0172  3.3355
   41CHL1   C24 5502  -0.219   6.112   8.759 -0.2576  0.7419 -0.8291
   41CHL1  H24A 5503  -0.175   6.048   8.679 -0.6224  1.7678 -1.8717
   41CHL1  H24B 5504  -0.315   6.074   8.800 -0.4732  2.4913  0.4101
   41CHL1   C25 5505  -0.277   6.247   8.692 -0.6064 -0.3111  0.1605
   41CHL1   H25 5506  -0.347   6.208   8.615  0.4653 -0.2246 -0.8858
   41CHL1   C26 5507  -0.348   6.330   8.800  0.3218  0.1191 -0.1110
   41CHL1  H26A 5508  -0.370   6.433   8.765 -0.9979  0.6317  2.0070
   41CHL1  H26B 5509  -0.448   6.285   8.816  0.4670  0.3940  1.8858
   41CHL1  H26C 5510  -0.294   6.338   8.897  1.1441 -0.6284 -0.4974
   41CHL1   C27 5511  -0.156   6.325   8.619 -0.7598  0.0558  0.1440
   41CHL1  H27A 5512  -0.089   6.255   8.565 -1.0485  0.2080 -0.4253
   41CHL1  H27B 5513  -0.200   6.394   8.544  1.2290  1.4495  0.1990
   41CHL1  H27C 5514  -0.099   6.381   8.695 -1.3184  1.1110 -0.1936
   42CHL1    C3 5515   4.689   5.146  10.071  0.7669  0.2383  0.7601
   42CHL1    H3 5516   4.602   5.079  10.083  0.0555  1.2452  1.3472
   42CHL1    O3 5517   4.725   5.213  10.191  0.1148 -0.4262 -0.5497
   42CHL1   H3' 5518   4.795   5.269  10.156  0.6366  0.0893  1.2361
   42CHL1    C4 5519   4.815   5.078  10.017 -0.7748 -0.3302 -0.8890
   42CHL1   H4A 5520   4.901   5.147  10.009  0.4688 -1.6428  0.5653
   42CHL1   H4B 5521   4.841   5.009  10.100 -2.3409 -1.2559 -1.1312
   42CHL1    C5 5522   4.783   5.007   9.890 -1.0564  0.4432  0.3633
   42CHL1    C6 5523   4.795   4.878   9.886 -0.2627 -0.2742 -0.5256
   42CHL1    H6 5524   4.837   4.826   9.974 -1.3068 -0.3843 -0.0778
   42CHL1    C7 5525   4.755   4.798   9.771  0.0507  0.1622  0.5160
   42CHL1   H7A 5526   4.841   4.730   9.750  1.1688  2.2347 -2.2288
   42CHL1   H7B 5527   4.663   4.742   9.799 -0.8449  1.7106  0.7401
   42CHL1    C8 5528   4.742   4.873   9.634  0.2414  0.1419 -0.0577
   42CHL1    H8 5529   4.846   4.893   9.600  0.4993 -0.6677  0.2424
   42CHL1   C14 5530   4.671   4.790   9.523  0.2866  0.7797 -0.0148
   42CHL1   H14 5531   4.571   4.766   9.564  0.7643 -0.2645  0.5745
   42CHL1   C15 5532   4.729   4.654   9.493 -0.3213  0.0908 -0.4822
   42CHL1  H15A 5533   4.838   4.665   9.475 -0.0099  2.5418  2.1889
   42CHL1  H15B 5534   4.710   4.578   9.573 -1.4966  0.2194 -0.6156
   42CHL1   C16 5535   4.664   4.617   9.360  0.2468  0.9720  0.0625
   42CHL1  H16A 5536   4.747   4.591   9.291 -0.0132  0.1927  0.0318
   42CHL1  H16B 5537   4.602   4.526   9.377 -0.9561  1.8722  0.6879
   42CHL1   C17 5538   4.584   4.743   9.313 -0.2044  0.3602 -0.0255
   42CHL1   H17 5539   4.483   4.726   9.354 -0.4190  0.4577 -0.5078
   42CHL1   C13 5540   4.645   4.859   9.390 -0.1233  0.3379  0.2276
   42CHL1   C18 5541   4.773   4.891   9.315  0.5042 -0.4294  0.0223
   42CHL1  H18A 5542   4.831   4.802   9.282 -0.1207 -0.9164  0.2209
   42CHL1  H18B 5543   4.752   4.946   9.221 -1.7735  0.0430  0.7422
   42CHL1  H18C 5544   4.832   4.968   9.370 -0.1747  0.9959 -1.1713
   42CHL1   C12 5545   4.560   4.987   9.420  0.0409  0.5720  0.2067
   42CHL1  H12A 5546   4.546   5.042   9.324  1.6770  2.2645  0.8886
   42CHL1  H12B 5547   4.457   4.965   9.456 -0.4590  0.1188 -1.4070
   42CHL1   C11 5548   4.632   5.075   9.522  0.6575  0.3073 -0.3344
   42CHL1  H11A 5549   4.726   5.122   9.487  0.2633  0.1038 -1.7215
   42CHL1  H11B 5550   4.562   5.157   9.549  0.1317 -0.3095  0.2220
   42CHL1    C9 5551   4.662   5.001   9.654 -0.1252  0.7133  0.3352
   42CHL1    H9 5552   4.561   4.971   9.689  0.1854 -3.3606 -1.7708
   42CHL1   C10 5553   4.726   5.088   9.775  0.2541 -0.3884 -1.1039
   42CHL1   C19 5554   4.848   5.177   9.724  0.5069 -0.3129 -0.0965
   42CHL1  H19A 5555   4.906   5.219   9.809  0.5655 -1.5982  0.5231
   42CHL1  H19B 5556   4.914   5.128   9.649  0.0611  1.2670 -1.5876
   42CHL1  H19C 5557   4.814   5.263   9.663  0.1629  0.1754  0.7766
   42CHL1    C1 5558   4.616   5.189   9.835 -0.4804 -0.4989 -0.2066
   42CHL1   H1A 5559   4.609   5.264   9.753  0.0354 -0.0107  0.1914
   42CHL1   H1B 5560   4.514   5.145   9.842  0.2170 -2.2476 -0.5472
   42CHL1    C2 5561   4.648   5.254   9.972 -0.0571  0.3438  0.3476
   42CHL1   H2A 5562   4.567   5.308  10.025  1.7256  1.0964  2.4746
   42CHL1   H2B 5563   4.729   5.327   9.949 -0.6663  0.3121 -2.1704
   42CHL1   C20 5564   4.566   4.752   9.165 -0.0484 -0.0971  0.0383
   42CHL1   H20 5565   4.664   4.764   9.113 -1.1526  2.0083 -1.6831
   42CHL1   C21 5566   4.470   4.871   9.136  0.2390  1.0171 -0.5136
   42CHL1  H21A 5567   4.440   4.864   9.029  0.9864 -0.4214 -0.6467
   42CHL1  H21B 5568   4.502   4.975   9.158 -0.7671  1.1757  0.2733
   42CHL1  H21C 5569   4.374   4.854   9.189  0.3873 -0.5251 -0.6791
   42CHL1   C22 5570   4.506   4.617   9.112  0.6543  0.2975 -0.0875
   42CHL1  H22A 5571   4.566   4.528   9.138 -1.8272 -1.4725 -0.0202
   42CHL1  H22B 5572   4.406   4.602   9.158 -1.1059 -0.7839 -3.8882
   42CHL1   C23 5573   4.474   4.619   8.960  0.2387 -0.7675 -0.4187
   42CHL1  H23A 5574   4.401   4.699   8.935  0.1338 -0.9864 -0.8289
   42CHL1  H23B 5575   4.573   4.640   8.913  0.2715  2.2844  0.7761
   42CHL1   C24 5576   4.408   4.500   8.902  0.4420  0.8459 -0.9261
   42CHL1  H24A 5577   4.466   4.406   8.912 -0.3532  0.2304 -1.9120
   42CHL1  H24B 5578   4.318   4.478   8.965  2.0357  0.5411  1.3857
   42CHL1   C25 5579   4.379   4.505   8.751  0.0674  0.1935  0.2256
   42CHL1   H25 5580   4.305   4.587   8.743  2.6534  2.8465  1.8152
   42CHL1   C26 5581   4.497   4.542   8.667 -1.0277 -0.1408 -0.2897
   42CHL1  H26A 5582   4.487   4.494   8.567 -1.6516  0.1282 -0.3578
   42CHL1  H26B 5583   4.505   4.653   8.667  0.5247 -0.2190 -1.6347
   42CHL1  H26C 5584   4.588   4.497   8.714 -1.9260  0.0304  1.6927
   42CHL1   C27 5585   4.320   4.370   8.704 -0.4039 -0.2276 -0.1592
   42CHL1  H27A 5586   4.262   4.326   8.788 -1.6326 -0.5561 -1.1650
   42CHL1  H27B 5587   4.260   4.387   8.613  0.8249  2.2727 -0.6241
   42CHL1  H27C 5588   4.400   4.301   8.670  0.3473  0.0982  0.8765
   43CHL1    C3 5589   6.396   5.422   9.863 -0.6271 -0.0795 -0.9554
   43CHL1    H3 5590   6.452   5.326   9.860  2.9930  1.7269  1.3864
   43CHL1    O3 5591   6.344   5.460   9.988 -0.4287  0.6378 -0.5403
   43CHL1   H3' 5592   6.319   5.552   9.983 -0.9881  0.4882 -0.5451
   43CHL1    C4 5593   6.509   5.528   9.833 -0.6324  0.3335 -0.4929
   43CHL1   H4A 5594   6.453   5.624   9.825 -1.3982 -0.0921 -0.3933
   43CHL1   H4B 5595   6.583   5.522   9.915 -1.8260 -0.6428  0.5517
   43CHL1    C5 5596   6.565   5.497   9.693  0.0077 -0.0205  0.0345
   43CHL1    C6 5597   6.698   5.479   9.673  0.0160 -0.3577 -0.1216
   43CHL1    H6 5598   6.763   5.496   9.760 -1.2009 -1.6206  1.0849
   43CHL1    C7 5599   6.768   5.461   9.535 -0.3198 -0.3861 -0.4625
   43CHL1   H7A 5600   6.855   5.530   9.530 -1.4741  1.1267 -0.3213
   43CHL1   H7B 5601   6.809   5.358   9.541  0.2618 -0.0952  0.6760
   43CHL1    C8 5602   6.669   5.478   9.418  0.7635  0.5392  0.4229
   43CHL1    H8 5603   6.656   5.586   9.394 -1.5377 -0.4044 -3.3143
   43CHL1   C14 5604   6.725   5.403   9.296 -0.0666  0.3857 -0.3479
   43CHL1   H14 5605   6.734   5.294   9.310 -0.6804  0.0125 -2.4278
   43CHL1   C15 5606   6.874   5.434   9.268  0.2613  0.0471  0.2400
   43CHL1  H15A 5607   6.901   5.540   9.286  0.0457  0.2142 -0.3819
   43CHL1  H15B 5608   6.950   5.370   9.318 -0.7516 -1.7851 -0.4700
   43CHL1   C16 5609   6.880   5.407   9.109  0.0219  0.4057 -0.1797
   43CHL1  H16A 5610   6.898   5.499   9.050  2.5798 -1.8659 -3.3545
   43CHL1  H16B 5611   6.967   5.344   9.081  0.0756  0.9324 -1.2116
   43CHL1   C17 5612   6.743   5.339   9.076 -0.2989 -0.6587 -0.3889
   43CHL1   H17 5613   6.756   5.232   9.102 -0.2225 -0.4981  0.2586
   43CHL1   C13 5614   6.644   5.411   9.171 -0.4007  0.6723  0.2009
   43CHL1   C18 5615   6.633   5.560   9.125  0.1827 -0.3583  0.2683
   43CHL1  H18A 5616   6.580   5.623   9.199 -2.9255  0.0626 -2.1210
   43CHL1  H18B 5617   6.730   5.608   9.098  0.0045  1.9423  3.1215
   43CHL1  H18C 5618   6.569   5.561   9.034  1.3424  1.9166 -0.5998
   43CHL1   C12 5619   6.515   5.345   9.212  0.2952 -0.4457  0.0234
   43CHL1  H12A 5620   6.448   5.353   9.124  0.9535  1.4403 -0.3477
   43CHL1  H12B 5621   6.504   5.238   9.241 -0.1099 -0.4959 -0.3095
   43CHL1   C11 5622   6.440   5.425   9.320 -0.1205  0.2414 -0.0266
   43CHL1  H11A 5623   6.427   5.528   9.280  1.8406  0.3156 -0.5812
   43CHL1  H11B 5624   6.337   5.385   9.334  0.3092 -0.5270  1.0347
   43CHL1    C9 5625   6.524   5.423   9.452 -0.3712  0.6441 -0.2182
   43CHL1    H9 5626   6.546   5.316   9.469  2.3051  1.3985  1.7085
   43CHL1   C10 5627   6.466   5.478   9.584 -0.2012 -0.3289  0.7059
   43CHL1   C19 5628   6.407   5.621   9.543 -0.7673 -0.2726 -0.3254
   43CHL1  H19A 5629   6.370   5.685   9.626 -0.4152  0.0255 -0.3946
   43CHL1  H19B 5630   6.476   5.683   9.482 -2.9820  0.5070 -2.1622
   43CHL1  H19C 5631   6.316   5.600   9.483 -1.5724  0.0326  0.7703
   43CHL1    C1 5632   6.361   5.375   9.629 -0.1361 -0.7620  0.1825
   43CHL1   H1A 5633   6.287   5.369   9.546 -0.7771  1.8893  0.4602
   43CHL1   H1B 5634   6.409   5.277   9.645  2.8584  0.9185  2.4023
   43CHL1    C2 5635   6.288   5.426   9.758  0.1844  0.1044  0.2991
   43CHL1   H2A 5636   6.202   5.359   9.778  0.4232 -0.7364 -1.3754
   43CHL1   H2B 5637   6.258   5.533   9.756  0.3556  0.1463 -0.0965
   43CHL1   C20 5638   6.716   5.332   8.921 -1.2328  0.5855  0.0119
   43CHL1   H20 5639   6.727   5.437   8.886  1.4809  1.2686  2.4311
   43CHL1   C21 5640   6.578   5.270   8.905  0.8436 -0.3302 -0.5107
   43CHL1  H21A 5641   6.550   5.195   8.982  1.3279  0.3303  0.3270
   43CHL1  H21B 5642   6.546   5.239   8.803 -0.4437  1.7259 -0.7995
   43CHL1  H21C 5643   6.504   5.349   8.930  2.0261  0.2168  1.5291
   43CHL1   C22 5644   6.816   5.250   8.845 -1.0903 -0.1456 -0.2783
   43CHL1  H22A 5645   6.923   5.266   8.869 -0.4681 -1.3076 -2.0333
   43CHL1  H22B 5646   6.810   5.144   8.878  0.8460 -0.1769  0.0529
   43CHL1   C23 5647   6.798   5.258   8.698  0.9099  0.0435  0.1530
   43CHL1  H23A 5648   6.702   5.243   8.644  0.2842  3.0789  0.2649
   43CHL1  H23B 5649   6.821   5.365   8.683  3.4069 -0.3992  0.4978
   43CHL1   C24 5650   6.887   5.166   8.625  0.1454 -0.4069 -0.1196
   43CHL1  H24A 5651   6.987   5.166   8.674 -0.3577 -0.4562  0.9217
   43CHL1  H24B 5652   6.844   5.064   8.631  0.5682 -0.5025  2.8322
   43CHL1   C25 5653   6.923   5.201   8.482 -0.5571  0.4675 -0.4473
   43CHL1   H25 5654   6.975   5.299   8.483  1.9216 -0.7629  0.0209
   43CHL1   C26 5655   7.023   5.097   8.427  0.5206 -0.4270 -0.3048
   43CHL1  H26A 5656   7.048   5.123   8.322 -1.3069  0.3589 -0.5790
   43CHL1  H26B 5657   7.116   5.101   8.488 -0.1678  2.9153  0.7095
   43CHL1  H26C 5658   6.984   4.993   8.431 -0.9527  0.1305  0.4949
   43CHL1   C27 5659   6.801   5.196   8.395 -0.1146 -0.4960  0.9489
   43CHL1  H27A 5660   6.715   5.262   8.419 -2.3934 -2.5344 -1.0394
   43CHL1  H27B 5661   6.819   5.206   8.286 -2.6527  1.7216  0.6316
   43CHL1  H27C 5662   6.751   5.098   8.412 -2.4295 -0.3391 -3.4966
   44CHL1    C3 5663   6.299   4.475  10.250  0.0075  0.4077 -0.1251
   44CHL1    H3 5664   6.245   4.382  10.222 -2.5050  1.7787 -0.1943
   44CHL1    O3 5665   6.298   4.497  10.395  0.3134  0.0533  0.5092
   44CHL1   H3' 5666   6.206   4.513  10.417  0.5009 -0.0260  1.3577
   44CHL1    C4 5667   6.447   4.483  10.191  0.3717  0.0324  0.1476
   44CHL1   H4A 5668   6.492   4.580  10.220  0.3776 -0.5800  2.3868
   44CHL1   H4B 5669   6.506   4.402  10.239  1.3171  1.2054  0.9966
   44CHL1    C5 5670   6.433   4.467  10.039 -0.5003 -0.1627  0.0594
   44CHL1    C6 5671   6.493   4.364   9.988  0.1230  0.1848  0.0228
   44CHL1    H6 5672   6.557   4.300  10.050 -0.3180  1.6124  2.0518
   44CHL1    C7 5673   6.487   4.335   9.837  0.0387  0.1835 -0.0947
   44CHL1   H7A 5674   6.571   4.280   9.790  0.4393 -0.1038  0.9293
   44CHL1   H7B 5675   6.404   4.263   9.823  1.1298 -1.0023 -0.6759
   44CHL1    C8 5676   6.445   4.463   9.756 -0.3390 -0.0078 -0.8719
   44CHL1    H8 5677   6.531   4.532   9.768 -1.0543  0.9835 -1.3005
   44CHL1   C14 5678   6.408   4.423   9.617 -0.2567  0.1063 -0.1806
   44CHL1   H14 5679   6.311   4.368   9.609  0.5508 -1.2356 -1.2189
   44CHL1   C15 5680   6.494   4.314   9.543 -0.0453 -0.3816  0.5430
   44CHL1  H15A 5681   6.599   4.342   9.563  0.6982 -2.5057 -0.0737
   44CHL1  H15B 5682   6.468   4.209   9.569  0.6452 -0.7617 -0.2310
   44CHL1   C16 5683   6.475   4.341   9.390  0.4273  0.1260 -0.2812
   44CHL1  H16A 5684   6.572   4.383   9.354 -0.4808  2.0493 -0.6244
   44CHL1  H16B 5685   6.435   4.253   9.335  4.2059 -1.8101 -0.2966
   44CHL1   C17 5686   6.365   4.452   9.385 -0.1901 -0.4914 -0.2439
   44CHL1   H17 5687   6.262   4.411   9.383 -0.8189  1.0287 -1.0771
   44CHL1   C13 5688   6.380   4.534   9.519 -0.1610  0.4159  0.2332
   44CHL1   C18 5689   6.498   4.634   9.504  0.3218 -0.8719 -0.1770
   44CHL1  H18A 5690   6.472   4.720   9.439 -0.9976 -3.2202 -2.9285
   44CHL1  H18B 5691   6.516   4.686   9.601 -1.0825 -0.0185 -0.3501
   44CHL1  H18C 5692   6.597   4.597   9.470  0.3808 -0.1765 -0.7944
   44CHL1   C12 5693   6.257   4.602   9.573  0.2248 -0.8542 -0.7713
   44CHL1  H12A 5694   6.225   4.694   9.520  2.1546  0.1443 -0.3174
   44CHL1  H12B 5695   6.181   4.522   9.582 -0.1315 -0.3911  0.5179
   44CHL1   C11 5696   6.281   4.655   9.722  0.2618  0.6539 -0.0254
   44CHL1  H11A 5697   6.365   4.728   9.724  0.6325  0.2268  1.4213
   44CHL1  H11B 5698   6.186   4.702   9.758 -0.9821 -0.1597 -2.0534
   44CHL1    C9 5699   6.325   4.534   9.820  0.5660 -1.0390 -0.1879
   44CHL1    H9 5700   6.240   4.462   9.825 -0.2283 -0.0450  1.1768
   44CHL1   C10 5701   6.348   4.574   9.969  0.5014  0.3984 -0.4868
   44CHL1   C19 5702   6.415   4.713   9.985 -0.5623 -0.2418 -0.4343
   44CHL1  H19A 5703   6.433   4.751  10.088 -2.0336 -0.4275 -0.0768
   44CHL1  H19B 5704   6.518   4.718   9.943 -0.4903 -0.3108 -0.2706
   44CHL1  H19C 5705   6.350   4.781   9.926 -0.6131 -1.0374 -1.3299
   44CHL1    C1 5706   6.205   4.593  10.040  0.4559  0.6167  0.2698
   44CHL1   H1A 5707   6.169   4.690   9.999 -0.3248  0.7542  1.2524
   44CHL1   H1B 5708   6.145   4.507  10.004  0.7385 -0.0854  1.4498
   44CHL1    C2 5709   6.213   4.593  10.194 -0.1954 -0.2474  0.5869
   44CHL1   H2A 5710   6.109   4.590  10.234 -0.4106  2.3799  0.4153
   44CHL1   H2B 5711   6.265   4.684  10.230 -0.9064  0.0553  0.8653
   44CHL1   C20 5712   6.379   4.538   9.259 -0.1476  0.4523 -0.2539
   44CHL1   H20 5713   6.478   4.588   9.255  0.5494 -0.7981  0.8690
   44CHL1   C21 5714   6.267   4.648   9.245 -0.1052  0.4918  0.2423
   44CHL1  H21A 5715   6.296   4.728   9.316  0.6157  0.6876 -0.2630
   44CHL1  H21B 5716   6.169   4.598   9.263  1.1370 -2.5712 -0.9854
   44CHL1  H21C 5717   6.261   4.696   9.145 -0.3642 -1.2247 -0.5881
   44CHL1   C22 5718   6.389   4.445   9.136  0.1483  0.5329 -0.0009
   44CHL1  H22A 5719   6.481   4.383   9.146 -0.3165 -0.2069 -0.2084
   44CHL1  H22B 5720   6.303   4.375   9.144  0.0335  0.7428  0.6626
   44CHL1   C23 5721   6.389   4.497   8.994 -0.9855  0.1326 -0.1593
   44CHL1  H23A 5722   6.283   4.527   8.984 -0.8680  0.6886  0.2671
   44CHL1  H23B 5723   6.463   4.574   8.962 -2.4116  1.7100  0.2266
   44CHL1   C24 5724   6.395   4.377   8.899  0.2359 -0.4522  0.3416
   44CHL1  H24A 5725   6.500   4.344   8.886  0.1119 -0.8497  0.3404
   44CHL1  H24B 5726   6.324   4.301   8.937 -0.6633 -0.8119 -1.9025
   44CHL1   C25 5727   6.341   4.415   8.763 -0.3657 -0.2525  0.2907
   44CHL1   H25 5728   6.245   4.470   8.775 -0.7621 -0.8810  0.0690
   44CHL1   C26 5729   6.445   4.497   8.687  0.0458  0.3317 -0.4083
   44CHL1  H26A 5730   6.501   4.563   8.757  2.6554 -3.2078  1.1683
   44CHL1  H26B 5731   6.523   4.433   8.641 -0.0957 -0.2743  0.1733
   44CHL1  H26C 5732   6.400   4.549   8.600  0.8729  2.7149  0.5083
   44CHL1   C27 5733   6.303   4.283   8.693 -0.3825  0.0534 -0.4278
   44CHL1  H27A 5734   6.385   4.210   8.683 -0.1384  0.3052 -0.2892
   44CHL1  H27B 5735   6.223   4.232   8.752 -0.6210 -0.7949 -1.4630
   44CHL1  H27C 5736   6.276   4.306   8.588  0.4766  0.4586 -0.5656
   45CHL1    C3 5737   3.450   4.167  10.113 -0.5548  0.2895 -1.8115
   45CHL1    H3 5738   3.432   4.066  10.156 -1.0192  0.9400 -0.3927
   45CHL1    O3 5739   3.523   4.243  10.209 -0.1296  0.6936 -0.5395
   45CHL1   H3' 5740   3.462   4.288  10.268 -0.3225  0.5983 -0.6669
   45CHL1    C4 5741   3.526   4.153   9.986 -0.6192  0.5771  0.1294
   45CHL1   H4A 5742   3.546   4.250   9.934  0.3515  0.6751  0.6645
   45CHL1   H4B 5743   3.621   4.100  10.009  0.0823  1.2897 -1.0229
   45CHL1    C5 5744   3.448   4.061   9.893  0.3751 -0.2631  0.5993
   45CHL1    C6 5745   3.507   3.950   9.851  0.0186  0.5986  0.0154
   45CHL1    H6 5746   3.612   3.935   9.879 -0.7763 -0.8078  2.5602
   45CHL1    C7 5747   3.441   3.851   9.763 -0.3481  1.5006 -0.3726
   45CHL1   H7A 5748   3.521   3.807   9.698  2.1492  1.0162  2.7616
   45CHL1   H7B 5749   3.409   3.764   9.825  0.0977  1.4401 -0.2185
   45CHL1    C8 5750   3.315   3.891   9.693  0.1536  0.3998  0.0810
   45CHL1    H8 5751   3.252   3.801   9.679  0.0140  0.6462 -1.0081
   45CHL1   C14 5752   3.329   3.935   9.547 -0.3559  0.5691 -0.2690
   45CHL1   H14 5753   3.401   4.019   9.550  2.0795 -1.3892 -0.3055
   45CHL1   C15 5754   3.386   3.823   9.453 -0.2804 -0.1092  0.4898
   45CHL1  H15A 5755   3.459   3.864   9.379 -0.2066  0.6340  0.9624
   45CHL1  H15B 5756   3.423   3.736   9.511  1.1521  0.9338  1.2014
   45CHL1   C16 5757   3.266   3.756   9.376  0.3408  0.6048  0.1322
   45CHL1  H16A 5758   3.278   3.761   9.266  1.3161 -1.9754  0.0626
   45CHL1  H16B 5759   3.257   3.647   9.396 -1.2182  0.9478  1.4660
   45CHL1   C17 5760   3.137   3.833   9.420 -0.2327 -0.0892  0.3872
   45CHL1   H17 5761   3.092   3.781   9.507  0.8150  0.8477  1.5235
   45CHL1   C13 5762   3.194   3.967   9.478  0.6755 -0.2388 -0.1908
   45CHL1   C18 5763   3.227   4.057   9.360  0.2699  0.3201 -0.7613
   45CHL1  H18A 5764   3.291   4.138   9.403 -1.1091 -0.4017  3.0272
   45CHL1  H18B 5765   3.289   4.013   9.278  0.8042 -0.5953  0.1062
   45CHL1  H18C 5766   3.139   4.098   9.306 -0.3964 -1.0471 -0.7438
   45CHL1   C12 5767   3.109   4.062   9.568  0.1328  0.0294  0.2025
   45CHL1  H12A 5768   3.144   4.166   9.552  1.8829 -0.4407  0.7168
   45CHL1  H12B 5769   3.007   4.060   9.525 -0.3981  0.3756  1.3940
   45CHL1   C11 5770   3.099   4.023   9.715 -0.1845  0.2021 -0.1568
   45CHL1  H11A 5771   3.048   4.107   9.767 -0.3054 -0.6089  1.0807
   45CHL1  H11B 5772   3.038   3.933   9.697 -1.9776  1.8811 -3.2964
   45CHL1    C9 5773   3.224   3.979   9.785 -0.1298  0.5725  0.0973
   45CHL1    H9 5774   3.202   3.916   9.874  1.5260 -2.0451 -1.2244
   45CHL1   C10 5775   3.301   4.099   9.851 -0.1292  0.1771 -0.1695
   45CHL1   C19 5776   3.304   4.215   9.751 -0.8492  0.1511 -0.0937
   45CHL1  H19A 5777   3.202   4.256   9.739 -1.5706 -1.1572  1.2757
   45CHL1  H19B 5778   3.363   4.301   9.789 -0.1491 -0.4936  0.3197
   45CHL1  H19C 5779   3.346   4.180   9.654  0.7443 -1.6051  1.1478
   45CHL1    C1 5780   3.221   4.152   9.980 -0.0392  0.1294 -0.4664
   45CHL1   H1A 5781   3.138   4.217   9.947  0.4400 -0.0888 -2.2143
   45CHL1   H1B 5782   3.178   4.065  10.035  0.1597 -0.4520 -1.2119
   45CHL1    C2 5783   3.315   4.230  10.089  0.0211  0.1704  0.0894
   45CHL1   H2A 5784   3.245   4.256  10.170 -0.4144 -1.8332  0.3968
   45CHL1   H2B 5785   3.345   4.323  10.035 -0.1900 -0.2850 -0.8347
   45CHL1   C20 5786   3.033   3.840   9.303  0.0100 -0.1176 -0.0812
   45CHL1   H20 5787   3.072   3.900   9.218  4.3171  0.7110  2.2038
   45CHL1   C21 5788   2.898   3.909   9.346  0.0580 -0.1609  0.3425
   45CHL1  H21A 5789   2.845   3.872   9.436 -1.4588  0.3243 -0.3238
   45CHL1  H21B 5790   2.820   3.899   9.268 -0.2475  1.5531  0.3805
   45CHL1  H21C 5791   2.900   4.018   9.366 -3.4441 -0.0497  0.5620
   45CHL1   C22 5792   3.007   3.701   9.229 -0.4122 -0.0834 -0.5956
   45CHL1  H22A 5793   2.972   3.740   9.131 -0.7141  1.9480  0.2537
   45CHL1  H22B 5794   3.101   3.645   9.210 -1.5376 -1.2006 -3.4533
   45CHL1   C23 5795   2.915   3.600   9.299 -0.2432  0.3832  0.4186
   45CHL1  H23A 5796   2.974   3.583   9.391  3.3522  0.0145 -1.7763
   45CHL1  H23B 5797   2.819   3.646   9.334  0.6393  1.4809  1.4911
   45CHL1   C24 5798   2.893   3.473   9.219 -0.1771  0.3031  0.2865
   45CHL1  H24A 5799   2.842   3.512   9.129 -1.0870  2.1906  1.5547
   45CHL1  H24B 5800   2.990   3.434   9.179  0.2257  1.2367  0.3184
   45CHL1   C25 5801   2.814   3.359   9.289  0.8756 -0.3781 -0.2165
   45CHL1   H25 5802   2.720   3.411   9.318  2.4803  2.6948 -0.0628
   45CHL1   C26 5803   2.783   3.239   9.207  0.3368  0.2969  0.3056
   45CHL1  H26A 5804   2.882   3.211   9.165  0.2973  1.7199 -0.8319
   45CHL1  H26B 5805   2.744   3.154   9.266 -1.4611  0.8902  0.0554
   45CHL1  H26C 5806   2.715   3.274   9.126  2.4872  1.6257 -1.0113
   45CHL1   C27 5807   2.877   3.304   9.422  0.2876 -0.3596  0.6419
   45CHL1  H27A 5808   2.910   3.380   9.497 -0.9305  1.7511 -0.8547
   45CHL1  H27B 5809   2.799   3.244   9.474 -0.6825 -0.5292 -0.9581
   45CHL1  H27C 5810   2.955   3.231   9.391  1.9844  1.8534 -0.6660
   46CHL1    C3 5811   0.385   2.724  10.078  0.3982  0.2028  0.2882
   46CHL1    H3 5812   0.290   2.752  10.028  1.0244  0.3078 -0.8774
   46CHL1    O3 5813   0.348   2.731  10.221 -0.1928  0.4379 -0.0617
   46CHL1   H3' 5814   0.365   2.823  10.243  0.5117 -0.3298  2.9805
   46CHL1    C4 5815   0.428   2.581  10.041  0.3187 -0.1137 -0.7923
   46CHL1   H4A 5816   0.514   2.558  10.107 -1.5333 -1.2675  1.3860
   46CHL1   H4B 5817   0.347   2.514  10.077  0.8317 -0.2936  0.0492
   46CHL1    C5 5818   0.454   2.582   9.894 -0.2179  0.4989 -0.4595
   46CHL1    C6 5819   0.391   2.492   9.816 -0.6050  0.1899 -0.4030
   46CHL1    H6 5820   0.320   2.425   9.868 -0.3087  1.4086  1.7027
   46CHL1    C7 5821   0.396   2.488   9.669 -0.4144 -0.1442  0.0431
   46CHL1   H7A 5822   0.379   2.381   9.644  0.2384 -0.1111 -0.5358
   46CHL1   H7B 5823   0.314   2.549   9.625  2.5994  2.3923 -2.4990
   46CHL1    C8 5824   0.533   2.550   9.621  0.3757  0.3544  0.5191
   46CHL1    H8 5825   0.615   2.479   9.643 -1.3737 -1.9637 -0.1424
   46CHL1   C14 5826   0.514   2.572   9.469 -0.8098  0.0787 -0.4717
   46CHL1   H14 5827   0.445   2.658   9.455 -0.9864  0.2517  1.2591
   46CHL1   C15 5828   0.465   2.455   9.383 -0.5459 -0.2976  1.2062
   46CHL1  H15A 5829   0.513   2.362   9.419 -2.7646 -0.8717  2.8969
   46CHL1  H15B 5830   0.356   2.434   9.381 -0.5593 -0.2188 -0.6806
   46CHL1   C16 5831   0.511   2.497   9.237  0.1434 -0.1768 -0.6686
   46CHL1  H16A 5832   0.554   2.408   9.186  1.9867  1.1320 -1.4945
   46CHL1  H16B 5833   0.420   2.528   9.181  0.3140 -0.0142 -0.8558
   46CHL1   C17 5834   0.605   2.617   9.259 -0.2275  0.2929  0.3332
   46CHL1   H17 5835   0.549   2.713   9.271  0.2853  0.4697  1.3936
   46CHL1   C13 5836   0.644   2.607   9.410 -0.3496 -0.2907 -0.3782
   46CHL1   C18 5837   0.757   2.503   9.424 -0.0880 -0.6361 -0.0279
   46CHL1  H18A 5838   0.853   2.538   9.379  0.0370  1.6013  1.8152
   46CHL1  H18B 5839   0.778   2.489   9.532 -0.0525  1.2494  0.2442
   46CHL1  H18C 5840   0.725   2.410   9.372 -0.3431 -0.9557  0.6886
   46CHL1   C12 5841   0.682   2.747   9.470 -1.3679 -0.1627  0.4261
   46CHL1  H12A 5842   0.784   2.767   9.431 -0.8011 -1.6345  1.0757
   46CHL1  H12B 5843   0.613   2.826   9.433 -0.0580  0.4904 -0.7335
   46CHL1   C11 5844   0.668   2.754   9.623 -0.1076  0.3914  0.0392
   46CHL1  H11A 5845   0.764   2.707   9.654 -0.4259  0.4321  1.1124
   46CHL1  H11B 5846   0.669   2.863   9.647 -0.7020  1.2616 -3.3537
   46CHL1    C9 5847   0.555   2.683   9.682  1.0419 -0.0032 -1.0802
   46CHL1    H9 5848   0.466   2.743   9.656  1.7248  0.7644 -1.7145
   46CHL1   C10 5849   0.552   2.681   9.840  0.4311  0.0722  0.7433
   46CHL1   C19 5850   0.697   2.656   9.895  0.4121  0.3041  0.3110
   46CHL1  H19A 5851   0.767   2.740   9.877 -0.1401  0.9688  1.2192
   46CHL1  H19B 5852   0.688   2.623  10.001  0.4737 -4.4227 -0.9008
   46CHL1  H19C 5853   0.738   2.569   9.839  1.1728  1.3044 -0.7266
   46CHL1    C1 5854   0.510   2.818   9.886  0.3073  0.0536  0.1806
   46CHL1   H1A 5855   0.585   2.898   9.869 -1.4764  2.1899  1.7268
   46CHL1   H1B 5856   0.417   2.847   9.833  1.1793  1.1702 -0.8093
   46CHL1    C2 5857   0.489   2.825  10.035  0.2297 -0.2492  0.7146
   46CHL1   H2A 5858   0.442   2.923  10.055 -2.0513 -0.5226 -2.4230
   46CHL1   H2B 5859   0.582   2.813  10.094 -0.1867 -0.3847  1.3425
   46CHL1   C20 5860   0.709   2.656   9.149 -0.4911  0.3294 -0.5094
   46CHL1   H20 5861   0.802   2.702   9.189 -1.2657  2.5669 -1.1310
   46CHL1   C21 5862   0.647   2.764   9.062 -0.6166 -0.6766  0.1527
   46CHL1  H21A 5863   0.551   2.716   9.032 -0.8292 -2.0540  2.7711
   46CHL1  H21B 5864   0.708   2.793   8.973 -0.2027 -0.1162  0.6119
   46CHL1  H21C 5865   0.613   2.855   9.115 -2.2365  0.3129 -2.3967
   46CHL1   C22 5866   0.747   2.527   9.066  0.4901  0.1063  0.2502
   46CHL1  H22A 5867   0.793   2.449   9.130 -0.2310  0.2809  1.0046
   46CHL1  H22B 5868   0.661   2.471   9.024  0.5220  1.4622 -1.7787
   46CHL1   C23 5869   0.839   2.559   8.942 -0.0055  0.1104  0.5781
   46CHL1  H23A 5870   0.804   2.639   8.873  1.2335 -1.4880 -2.0387
   46CHL1  H23B 5871   0.932   2.599   8.988 -0.7534 -0.0469  2.3306
   46CHL1   C24 5872   0.882   2.435   8.858  0.3175 -0.7193  0.6350
   46CHL1  H24A 5873   0.792   2.397   8.806  1.0270 -1.6615  0.0708
   46CHL1  H24B 5874   0.943   2.480   8.777  0.1688 -0.7190  0.5215
   46CHL1   C25 5875   0.974   2.330   8.918  0.1699  0.5777 -0.4252
   46CHL1   H25 5876   1.050   2.382   8.980  1.2493  1.4923 -2.4219
   46CHL1   C26 5877   0.895   2.217   8.992  0.3093 -0.3432  0.1822
   46CHL1  H26A 5878   0.811   2.261   9.051  0.2640  1.8057 -1.3658
   46CHL1  H26B 5879   0.867   2.140   8.917 -0.7922 -0.8416  1.0684
   46CHL1  H26C 5880   0.944   2.151   9.067  2.6056  0.1348 -0.8427
   46CHL1   C27 5881   1.071   2.262   8.815  1.0350 -1.1772  0.0797
   46CHL1  H27A 5882   1.121   2.338   8.751  0.2696 -0.5712  0.1917
   46CHL1  H27B 5883   1.145   2.212   8.881 -0.0879 -1.6467  1.0061
   46CHL1  H27C 5884   1.016   2.189   8.752  0.6508 -0.8378  0.0155
   47CHL1    C3 5885   5.380   4.167  10.217 -0.3382 -0.0875  0.0688
   47CHL1    H3 5886   5.425   4.078  10.169 -0.2737  0.2307 -0.4728
   47CHL1    O3 5887   5.310   4.112  10.326  0.0006 -0.2226 -0.1633
   47CHL1   H3' 5888   5.225   4.083  10.293  0.2988 -0.5913 -0.6313
   47CHL1    C4 5889   5.497   4.253  10.255  0.2983 -0.5858 -0.3103
   47CHL1   H4A 5890   5.466   4.328  10.331 -0.5154 -1.3451  0.1313
   47CHL1   H4B 5891   5.570   4.189  10.309 -0.7905 -0.4705  1.3956
   47CHL1    C5 5892   5.557   4.327  10.130 -0.3655  0.5050 -0.0079
   47CHL1    C6 5893   5.688   4.316  10.098 -0.0458  0.4706 -0.4781
   47CHL1    H6 5894   5.761   4.255  10.153 -1.4080 -1.2829 -0.5100
   47CHL1    C7 5895   5.751   4.369   9.974  0.4191  0.0250  0.3852
   47CHL1   H7A 5896   5.855   4.405   9.988  0.6824 -1.3106  2.2188
   47CHL1   H7B 5897   5.755   4.286   9.900  2.2103  0.6046 -0.2286
   47CHL1    C8 5898   5.676   4.497   9.923 -0.3552  0.6834 -0.2656
   47CHL1    H8 5899   5.684   4.582   9.994  1.9540  1.4693 -1.3572
   47CHL1   C14 5900   5.728   4.540   9.785  0.2385 -0.0380 -0.4753
   47CHL1   H14 5901   5.709   4.455   9.716 -0.2712 -0.7314  0.4888
   47CHL1   C15 5902   5.874   4.573   9.772 -0.0168 -0.9031  0.0579
   47CHL1  H15A 5903   5.902   4.621   9.868 -1.2651 -0.9129  0.4402
   47CHL1  H15B 5904   5.946   4.489   9.762 -0.2158 -1.0052 -0.6229
   47CHL1   C16 5905   5.884   4.666   9.647  0.0272  0.8950 -0.1036
   47CHL1  H16A 5906   5.948   4.755   9.668  1.7916 -0.6779  1.6430
   47CHL1  H16B 5907   5.938   4.604   9.573  0.4961  0.3145  0.7031
   47CHL1   C17 5908   5.739   4.691   9.597 -0.4462 -0.2396 -0.2387
   47CHL1   H17 5909   5.719   4.607   9.528  0.2193 -0.1619 -0.5327
   47CHL1   C13 5910   5.656   4.659   9.717  0.0311  0.2153  0.0648
   47CHL1   C18 5911   5.665   4.790   9.802  0.1379  1.0127 -0.7831
   47CHL1  H18A 5912   5.589   4.865   9.770  0.9478  1.9543 -0.5670
   47CHL1  H18B 5913   5.635   4.756   9.904  0.7860 -0.2520 -0.9983
   47CHL1  H18C 5914   5.765   4.838   9.805  0.3185  0.6136  1.8014
   47CHL1   C12 5915   5.509   4.606   9.697  0.4810  0.0485  0.5595
   47CHL1  H12A 5916   5.446   4.686   9.652 -0.1213 -0.3596  0.6606
   47CHL1  H12B 5917   5.498   4.510   9.641  1.8448 -0.1019  0.5208
   47CHL1   C11 5918   5.442   4.559   9.826  0.3309 -0.2172 -0.3572
   47CHL1  H11A 5919   5.425   4.652   9.885  4.6117  1.8076 -1.9156
   47CHL1  H11B 5920   5.344   4.508   9.809 -0.2179  0.3369  0.9877
   47CHL1    C9 5921   5.529   4.460   9.909 -0.0700 -0.3131 -0.6217
   47CHL1    H9 5922   5.527   4.370   9.844  0.9467 -0.8979  0.1351
   47CHL1   C10 5923   5.464   4.404  10.031 -0.3121  0.5938  0.0376
   47CHL1   C19 5924   5.413   4.523  10.120  0.4068 -0.4102 -0.0313
   47CHL1  H19A 5925   5.316   4.555  10.076 -0.0157 -1.4900  0.0897
   47CHL1  H19B 5926   5.403   4.501  10.228  1.2223 -0.9933 -0.0625
   47CHL1  H19C 5927   5.483   4.609  10.113  1.2932 -0.9459  1.6538
   47CHL1    C1 5928   5.352   4.303   9.997  0.0928 -0.2126  0.0239
   47CHL1   H1A 5929   5.274   4.351   9.934 -0.3058  0.5387  1.0693
   47CHL1   H1B 5930   5.386   4.213   9.942  0.2068  0.6066 -1.3010
   47CHL1    C2 5931   5.278   4.234  10.115 -0.7739 -0.1494  0.1089
   47CHL1   H2A 5932   5.204   4.156  10.089 -1.6656  0.6573  0.2039
   47CHL1   H2B 5933   5.221   4.312  10.169  0.1738 -0.1050  1.0668
   47CHL1   C20 5934   5.723   4.819   9.511 -0.4965  0.2772  0.2144
   47CHL1   H20 5935   5.749   4.908   9.571  0.4590 -0.2834  0.6447
   47CHL1   C21 5936   5.574   4.827   9.473  0.3599  0.6639  0.2379
   47CHL1  H21A 5937   5.566   4.898   9.388 -0.5634  2.2620  1.6026
   47CHL1  H21B 5938   5.512   4.864   9.558  0.3977 -0.7553  0.9124
   47CHL1  H21C 5939   5.542   4.728   9.434  1.7406  0.3378 -0.1388
   47CHL1   C22 5940   5.817   4.818   9.379  0.1268  0.1187 -0.5803
   47CHL1  H22A 5941   5.804   4.925   9.349 -2.1099 -0.3227 -1.3097
   47CHL1  H22B 5942   5.924   4.797   9.402  0.0176 -1.8242 -1.6656
   47CHL1   C23 5943   5.773   4.726   9.260  0.0372 -0.0475  0.3693
   47CHL1  H23A 5944   5.756   4.623   9.298 -1.1464  1.0950  3.2393
   47CHL1  H23B 5945   5.681   4.769   9.215  0.9170  1.2089 -0.2804
   47CHL1   C24 5946   5.887   4.719   9.152 -0.1715  0.0863  0.3048
   47CHL1  H24A 5947   5.914   4.824   9.124  0.1686 -0.1620 -0.3396
   47CHL1  H24B 5948   5.976   4.675   9.203  0.4166  0.4361 -0.3861
   47CHL1   C25 5949   5.865   4.637   9.020 -0.3001 -0.6242 -0.3248
   47CHL1   H25 5950   5.841   4.532   9.048 -1.2304 -0.3620 -0.1203
   47CHL1   C26 5951   5.739   4.675   8.945  0.4200 -0.3442 -0.2226
   47CHL1  H26A 5952   5.648   4.686   9.008  0.5290 -0.4757 -0.0387
   47CHL1  H26B 5953   5.708   4.590   8.881 -1.4100 -0.5408  0.8570
   47CHL1  H26C 5954   5.756   4.765   8.882 -0.9258  0.1160  0.0246
   47CHL1   C27 5955   5.980   4.643   8.921  0.2716  0.4751  1.1687
   47CHL1  H27A 5956   5.938   4.588   8.834  1.4838  1.2887  0.0265
   47CHL1  H27B 5957   5.998   4.749   8.892 -1.5174  0.1912 -1.2827
   47CHL1  H27C 5958   6.073   4.597   8.960  0.8781  2.4279  2.1302
   48CHL1    C3 5959   6.608   5.172  10.108  0.5321  0.2462 -0.4402
   48CHL1    H3 5960   6.556   5.268  10.086 -2.7194 -1.0270  1.0593
   48CHL1    O3 5961   6.578   5.154  10.247 -0.3927 -0.3660 -0.0696
   48CHL1   H3' 5962   6.557   5.061  10.254 -1.9425 -0.1768 -1.6042
   48CHL1    C4 5963   6.546   5.057  10.026 -0.5055  0.4276  0.6258
   48CHL1   H4A 5964   6.578   4.960  10.069  1.1586 -0.0893 -1.5901
   48CHL1   H4B 5965   6.436   5.072  10.029 -0.7043  0.2313 -2.1753
   48CHL1    C5 5966   6.596   5.057   9.883 -0.7399 -0.7976 -0.5329
   48CHL1    C6 5967   6.516   5.034   9.779  0.8036 -0.2197  0.3441
   48CHL1    H6 5968   6.411   5.006   9.792  0.4427 -0.6460 -2.6789
   48CHL1    C7 5969   6.576   5.021   9.638 -0.3339 -0.8020 -0.6616
   48CHL1   H7A 5970   6.533   4.932   9.587 -0.2739 -0.8312 -0.6629
   48CHL1   H7B 5971   6.551   5.109   9.576 -2.6910  0.4786  1.8925
   48CHL1    C8 5972   6.730   5.006   9.627 -0.2825 -0.2281  0.4405
   48CHL1    H8 5973   6.753   4.900   9.656 -0.2588 -0.7485 -1.3810
   48CHL1   C14 5974   6.778   5.037   9.483 -0.2237 -0.2180 -0.0909
   48CHL1   H14 5975   6.775   5.147   9.472  3.0641 -0.0355 -0.0396
   48CHL1   C15 5976   6.698   4.985   9.361 -0.1920 -0.7575  0.7779
   48CHL1  H15A 5977   6.668   4.878   9.363  1.1166 -1.2470 -1.5447
   48CHL1  H15B 5978   6.616   5.058   9.351 -0.3243 -0.8377  1.2786
   48CHL1   C16 5979   6.805   4.994   9.244 -0.2567  1.0866 -0.1407
   48CHL1  H16A 5980   6.829   4.889   9.214  3.0491  1.5426  0.4891
   48CHL1  H16B 5981   6.771   5.045   9.151  1.0590 -1.5568 -2.2470
   48CHL1   C17 5982   6.931   5.060   9.310  0.5647  0.0025 -0.2989
   48CHL1   H17 5983   6.916   5.170   9.303  0.0052  0.0905  1.5622
   48CHL1   C13 5984   6.922   5.017   9.463  0.0422  0.7659 -0.6247
   48CHL1   C18 5985   6.958   4.870   9.482  0.0678  0.3588  0.1087
   48CHL1  H18A 5986   7.062   4.856   9.447 -0.0942 -1.9779  0.4411
   48CHL1  H18B 5987   6.944   4.814   9.576  3.7979  0.0302  0.6152
   48CHL1  H18C 5988   6.910   4.806   9.404  2.0718 -2.1196  0.7830
   48CHL1   C12 5989   6.996   5.111   9.568 -0.3029  0.5069 -0.7450
   48CHL1  H12A 5990   7.105   5.094   9.551 -0.0744  1.4406 -0.3084
   48CHL1  H12B 5991   6.975   5.219   9.550  0.0602  0.3837 -2.0114
   48CHL1   C11 5992   6.961   5.075   9.712  0.5456  0.4769 -0.2136
   48CHL1  H11A 5993   6.983   4.967   9.729 -2.6443  0.0674  2.3301
   48CHL1  H11B 5994   7.002   5.146   9.788 -2.3039  1.7001  0.2910
   48CHL1    C9 5995   6.807   5.091   9.730  0.2385  0.3078 -0.3380
   48CHL1    H9 5996   6.792   5.199   9.705  0.7906  0.6341  0.6622
   48CHL1   C10 5997   6.745   5.086   9.872  0.1364  0.4566 -0.4293
   48CHL1   C19 5998   6.814   4.954   9.932 -0.5834 -0.3679 -0.4392
   48CHL1  H19A 5999   6.801   4.867   9.864  0.3774 -1.6550  0.9499
   48CHL1  H19B 6000   6.920   4.972   9.958  0.0066 -2.0928 -1.4625
   48CHL1  H19C 6001   6.766   4.931  10.029 -0.0590 -2.2033 -0.5796
   48CHL1    C1 6002   6.804   5.215   9.947  0.6720  0.2472  0.5318
   48CHL1   H1A 6003   6.915   5.208   9.943  0.6267 -0.7870  0.7389
   48CHL1   H1B 6004   6.765   5.305   9.895  0.1947  0.4435  1.2120
   48CHL1    C2 6005   6.762   5.205  10.096  0.7548  0.6915 -0.6462
   48CHL1   H2A 6006   6.763   5.306  10.142 -1.2863  0.8983 -0.9387
   48CHL1   H2B 6007   6.816   5.130  10.158 -0.5731 -0.1068 -0.4135
   48CHL1   C20 6008   7.058   5.021   9.237 -0.1561 -0.2403  0.4040
   48CHL1   H20 6009   7.079   4.915   9.266  2.0720  0.3516  1.2389
   48CHL1   C21 6010   7.180   5.100   9.287 -0.4331 -0.1488 -0.4714
   48CHL1  H21A 6011   7.214   5.066   9.387 -1.0236  0.8074  0.0739
   48CHL1  H21B 6012   7.173   5.211   9.291  0.6532 -0.0968  1.3944
   48CHL1  H21C 6013   7.268   5.087   9.221  0.4120  0.2305  0.5441
   48CHL1   C22 6014   7.050   5.018   9.081 -0.5469 -0.1434 -0.0390
   48CHL1  H22A 6015   6.973   4.948   9.044 -2.2683  2.0439 -0.8160
   48CHL1  H22B 6016   7.022   5.118   9.043  2.7659  1.1231  0.4761
   48CHL1   C23 6017   7.182   4.978   9.011 -0.4663  0.0268 -0.1616
   48CHL1  H23A 6018   7.258   5.058   9.025 -1.9967  1.4917 -0.0143
   48CHL1  H23B 6019   7.225   4.897   9.074  1.5407  2.3402  1.6283
   48CHL1   C24 6020   7.167   4.933   8.865 -0.0399 -0.0229  0.7182
   48CHL1  H24A 6021   7.094   4.849   8.869 -1.0654  0.8290  0.3648
   48CHL1  H24B 6022   7.121   5.008   8.797  1.1874 -0.7640 -0.9863
   48CHL1   C25 6023   7.299   4.870   8.814  1.1567 -1.1166  0.7651
   48CHL1   H25 6024   7.328   4.793   8.889 -0.7874 -1.5634  1.0985
   48CHL1   C26 6025   7.277   4.781   8.690  0.2694 -0.0386  0.2629
   48CHL1  H26A 6026   7.188   4.715   8.698 -0.3467  0.7991  0.4163
   48CHL1  H26B 6027   7.264   4.853   8.607 -1.2294  0.4810  0.9000
   48CHL1  H26C 6028   7.368   4.721   8.670 -0.1994 -0.4913 -0.5739
   48CHL1   C27 6029   7.413   4.963   8.796 -1.3387 -1.5726 -0.0127
   48CHL1  H27A 6030   7.406   5.035   8.713  1.0561 -1.9068 -0.5911
   48CHL1  H27B 6031   7.439   5.020   8.888 -4.5078 -0.1185  0.0954
   48CHL1  H27C 6032   7.503   4.899   8.781 -0.3244 -0.2432  0.2461
   49CHL1    C3 6033   5.114   3.061  10.128 -0.4263 -0.6283 -0.1683
   49CHL1    H3 6034   5.189   3.142  10.141 -0.6578 -0.4112 -0.1859
   49CHL1    O3 6035   5.093   3.005  10.255 -0.2314  0.2103  0.5166
   49CHL1   H3' 6036   5.062   3.069  10.320  3.6626  1.0330  1.8279
   49CHL1    C4 6037   4.989   3.127  10.082 -0.6709  0.5595  0.8722
   49CHL1   H4A 6038   4.911   3.048  10.087 -1.0602  0.9895  2.1317
   49CHL1   H4B 6039   4.971   3.212  10.152  1.9597  0.8708  1.2493
   49CHL1    C5 6040   4.997   3.183   9.944 -0.3139  0.6957 -0.3943
   49CHL1    C6 6041   4.966   3.313   9.909  0.0217 -0.6375 -0.1409
   49CHL1    H6 6042   4.938   3.383   9.989  0.5445 -1.6629  0.9625
   49CHL1    C7 6043   4.983   3.376   9.776 -0.0173  0.4127  0.1425
   49CHL1   H7A 6044   4.897   3.444   9.756  0.1954  1.5967  2.7459
   49CHL1   H7B 6045   5.079   3.433   9.773  1.5225 -2.0862 -1.9104
   49CHL1    C8 6046   4.997   3.276   9.660 -0.5621  1.3850  0.3135
   49CHL1    H8 6047   4.892   3.247   9.637 -1.2287  3.8641 -0.0469
   49CHL1   C14 6048   5.069   3.339   9.542  0.3588 -0.0751 -0.3231
   49CHL1   H14 6049   5.174   3.366   9.568 -0.0922 -0.0807  1.7347
   49CHL1   C15 6050   5.009   3.464   9.481  0.0370 -0.5229 -0.1612
   49CHL1  H15A 6051   4.902   3.437   9.466  0.1807 -0.0462 -2.3875
   49CHL1  H15B 6052   5.027   3.558   9.536  2.1742 -0.5909 -0.6756
   49CHL1   C16 6053   5.074   3.475   9.342 -0.0600  0.1442 -0.6688
   49CHL1  H16A 6054   4.987   3.477   9.273 -1.0907 -0.1416  0.5844
   49CHL1  H16B 6055   5.120   3.576   9.329 -1.4321  0.7487 -1.0207
   49CHL1   C17 6056   5.149   3.340   9.318  0.0293  0.3870 -0.4750
   49CHL1   H17 6057   5.251   3.344   9.361  0.5209 -3.9111 -0.7784
   49CHL1   C13 6058   5.089   3.242   9.423 -0.1259 -0.6612  0.5522
   49CHL1   C18 6059   4.953   3.190   9.380  0.2703 -0.4210  0.7896
   49CHL1  H18A 6060   4.891   3.269   9.333  2.7466  1.9475  1.2201
   49CHL1  H18B 6061   4.963   3.097   9.319 -0.5234 -2.9737  4.2491
   49CHL1  H18C 6062   4.892   3.148   9.463  0.5561  1.4188  1.9912
   49CHL1   C12 6063   5.179   3.127   9.464  0.0222  1.1815 -0.8558
   49CHL1  H12A 6064   5.188   3.060   9.376  0.0155 -0.2691  0.2147
   49CHL1  H12B 6065   5.281   3.171   9.474 -0.0016  0.9623  0.4068
   49CHL1   C11 6066   5.119   3.051   9.587 -0.2445  0.0314 -0.7160
   49CHL1  H11A 6067   5.024   3.004   9.554 -0.7400  1.8260 -2.0532
   49CHL1  H11B 6068   5.179   2.965   9.621  0.5800  1.9629  3.2379
   49CHL1    C9 6069   5.082   3.151   9.707 -0.2541  0.3592  0.4950
   49CHL1    H9 6070   5.179   3.200   9.729 -0.1552 -0.0962  1.1012
   49CHL1   C10 6071   5.048   3.085   9.841  0.7664  0.3613  0.2732
   49CHL1   C19 6072   4.946   2.970   9.805  0.7126  0.3464 -0.0150
   49CHL1  H19A 6073   4.869   3.009   9.735  1.5397 -0.4513 -1.4192
   49CHL1  H19B 6074   4.991   2.882   9.755 -1.5807  0.2628 -2.1608
   49CHL1  H19C 6075   4.887   2.936   9.892  0.8539 -1.1597 -0.4712
   49CHL1    C1 6076   5.175   3.020   9.901 -0.3304  0.5365 -0.2759
   49CHL1   H1A 6077   5.213   2.939   9.835 -0.7768  0.3697 -0.3335
   49CHL1   H1B 6078   5.260   3.090   9.916 -1.2374  1.5315  0.3546
   49CHL1    C2 6079   5.158   2.952  10.034  0.0941 -0.5416 -0.3912
   49CHL1   H2A 6080   5.253   2.910  10.073  0.8390  1.0588 -0.3844
   49CHL1   H2B 6081   5.072   2.882  10.029 -0.4980 -0.0035  1.4380
   49CHL1   C20 6082   5.164   3.288   9.170 -0.0987 -0.4252 -0.6075
   49CHL1   H20 6083   5.198   3.183   9.177  2.4793  0.3822  0.1571
   49CHL1   C21 6084   5.283   3.366   9.105 -0.0453 -1.0823 -0.4928
   49CHL1  H21A 6085   5.370   3.347   9.170 -1.1381 -2.1961  0.7061
   49CHL1  H21B 6086   5.262   3.475   9.106  2.6788 -0.4892  0.7907
   49CHL1  H21C 6087   5.307   3.329   9.003  1.6764  2.0199 -1.3304
   49CHL1   C22 6088   5.041   3.303   9.075 -0.1992 -0.2759 -0.7345
   49CHL1  H22A 6089   4.956   3.251   9.124 -1.9760  1.4145 -1.8668
   49CHL1  H22B 6090   5.020   3.412   9.079 -1.2825 -0.5015  2.0885
   49CHL1   C23 6091   5.053   3.250   8.928  0.2343  0.1430 -0.0261
   49CHL1  H23A 6092   5.132   3.304   8.872 -0.5048  0.2714 -0.9735
   49CHL1  H23B 6093   5.087   3.145   8.942 -2.7060 -1.0849 -1.1716
   49CHL1   C24 6094   4.913   3.259   8.864 -0.1475 -0.0403  1.0453
   49CHL1  H24A 6095   4.833   3.236   8.937 -0.8554 -1.3339 -0.0999
   49CHL1  H24B 6096   4.896   3.365   8.835 -1.7525 -0.4593  0.3422
   49CHL1   C25 6097   4.897   3.174   8.742 -0.5549  0.2971 -0.3326
   49CHL1   H25 6098   4.938   3.075   8.772  0.2288  0.8267  0.3646
   49CHL1   C26 6099   4.754   3.154   8.694  0.1586  1.2338 -0.4559
   49CHL1  H26A 6100   4.698   3.242   8.656 -0.3667  1.7986  1.5057
   49CHL1  H26B 6101   4.748   3.073   8.618  0.8746  1.3015 -0.5938
   49CHL1  H26C 6102   4.684   3.123   8.774 -0.7562 -0.1881 -1.7683
   49CHL1   C27 6103   4.969   3.226   8.617 -0.5129 -0.5777 -0.2634
   49CHL1  H27A 6104   4.929   3.322   8.580 -0.0785 -0.6383 -0.9112
   49CHL1  H27B 6105   5.076   3.246   8.640 -0.6808  0.0776 -0.0488
   49CHL1  H27C 6106   4.967   3.149   8.537  1.9092 -2.1186  1.0345
   50CHL1    C3 6107   1.688   3.745  10.097  0.4000 -0.1180 -0.0662
   50CHL1    H3 6108   1.756   3.659  10.116  0.8729  0.7940  3.1304
   50CHL1    O3 6109   1.641   3.788  10.223  0.3937  0.4477  0.9969
   50CHL1   H3' 6110   1.548   3.766  10.234 -0.3187  1.6135 -1.8807
   50CHL1    C4 6111   1.760   3.856  10.030 -0.0491 -0.0135  1.2298
   50CHL1   H4A 6112   1.694   3.945  10.026 -1.1801 -0.8454 -1.9727
   50CHL1   H4B 6113   1.847   3.891  10.088  1.3272 -0.3721 -0.5317
   50CHL1    C5 6114   1.798   3.814   9.882 -0.9389 -0.5597 -0.2590
   50CHL1    C6 6115   1.923   3.801   9.844 -0.4527  0.1168 -0.6907
   50CHL1    H6 6116   2.002   3.812   9.920  2.8090 -0.6427 -3.7384
   50CHL1    C7 6117   1.966   3.753   9.709  0.9476 -0.0130  0.0320
   50CHL1   H7A 6118   2.054   3.818   9.689 -0.1156  2.2678  2.1603
   50CHL1   H7B 6119   2.004   3.648   9.717  1.5981  0.2583  0.6279
   50CHL1    C8 6120   1.860   3.768   9.600  0.7990 -0.2625  0.3115
   50CHL1    H8 6121   1.846   3.877   9.582  2.5991  0.3861  2.3887
   50CHL1   C14 6122   1.896   3.694   9.473 -0.4380 -0.3459  0.1943
   50CHL1   H14 6123   1.904   3.586   9.498 -0.5252 -0.7193 -1.3208
   50CHL1   C15 6124   2.032   3.726   9.408  0.1322 -0.1716 -0.4179
   50CHL1  H15A 6125   2.046   3.836   9.395 -0.6816 -0.1347 -1.0652
   50CHL1  H15B 6126   2.118   3.684   9.464  0.6652  0.6990 -0.5717
   50CHL1   C16 6127   2.032   3.657   9.276 -0.3475  0.5005  0.2408
   50CHL1  H16A 6128   2.058   3.726   9.192 -1.6120 -0.2183 -0.7777
   50CHL1  H16B 6129   2.088   3.562   9.265 -1.6560 -0.3519  0.7264
   50CHL1   C17 6130   1.881   3.616   9.249 -0.2964  0.6033 -0.3039
   50CHL1   H17 6131   1.863   3.510   9.278  2.6230 -0.2911 -1.3578
   50CHL1   C13 6132   1.797   3.691   9.357  0.9165 -0.1903 -0.0773
   50CHL1   C18 6133   1.791   3.838   9.299  0.4856 -0.2627  0.0645
   50CHL1  H18A 6134   1.701   3.844   9.234 -0.8671  0.8885  1.9148
   50CHL1  H18B 6135   1.759   3.903   9.383 -4.3554  0.1317 -1.7270
   50CHL1  H18C 6136   1.881   3.877   9.249 -0.1946 -1.0988 -1.9085
   50CHL1   C12 6137   1.656   3.642   9.402 -0.0818  0.2317  0.7316
   50CHL1  H12A 6138   1.586   3.650   9.316  0.5601 -2.2083 -0.0915
   50CHL1  H12B 6139   1.660   3.532   9.419 -1.2656 -0.4302 -2.5183
   50CHL1   C11 6140   1.612   3.705   9.535 -0.2933 -0.7311 -0.1364
   50CHL1  H11A 6141   1.579   3.806   9.502 -0.2974 -0.5273  0.4878
   50CHL1  H11B 6142   1.526   3.649   9.576 -0.9827  1.6229  1.8678
   50CHL1    C9 6143   1.724   3.715   9.643  0.4973 -0.6688  0.0617
   50CHL1    H9 6144   1.744   3.610   9.673  0.8714 -0.1293  1.8535
   50CHL1   C10 6145   1.682   3.779   9.780  0.6566 -0.0191 -0.0924
   50CHL1   C19 6146   1.606   3.915   9.756 -0.8364 -0.0644 -0.0354
   50CHL1  H19A 6147   1.663   3.991   9.699 -1.9613  1.4602  0.8013
   50CHL1  H19B 6148   1.518   3.888   9.693  0.4685 -2.0613 -1.1093
   50CHL1  H19C 6149   1.574   3.963   9.851 -0.5910 -0.2941  0.1637
   50CHL1    C1 6150   1.596   3.676   9.863 -0.2108  0.5380 -0.0754
   50CHL1   H1A 6151   1.502   3.660   9.805  1.0156 -1.9842 -1.5557
   50CHL1   H1B 6152   1.649   3.579   9.873 -2.1019 -0.3228  3.0156
   50CHL1    C2 6153   1.568   3.701  10.009  0.6942 -0.2810 -0.0450
   50CHL1   H2A 6154   1.521   3.619  10.066 -0.0892  0.0738 -0.1688
   50CHL1   H2B 6155   1.496   3.786  10.012  0.0824 -0.8184  1.7199
   50CHL1   C20 6156   1.845   3.618   9.107  0.3277 -0.5714  0.1205
   50CHL1   H20 6157   1.843   3.722   9.067 -0.8865 -0.0029  1.5836
   50CHL1   C21 6158   1.703   3.562   9.086  0.7348  0.1109 -0.0461
   50CHL1  H21A 6159   1.676   3.472   9.147 -1.5208 -0.1670 -1.3632
   50CHL1  H21B 6160   1.681   3.549   8.978 -3.0351  0.7120  0.5232
   50CHL1  H21C 6161   1.636   3.644   9.119 -0.8470 -0.8958 -0.6589
   50CHL1   C22 6162   1.948   3.540   9.020 -0.3438  0.1155 -0.0941
   50CHL1  H22A 6163   2.057   3.563   9.032  0.6642 -3.3252 -1.4106
   50CHL1  H22B 6164   1.944   3.433   9.050 -1.6509  0.2545  0.2542
   50CHL1   C23 6165   1.921   3.543   8.871 -0.1296  0.4315 -0.3104
   50CHL1  H23A 6166   1.840   3.474   8.841  0.5198 -0.5114  0.0440
   50CHL1  H23B 6167   1.897   3.643   8.828 -1.8988 -0.0645 -0.5407
   50CHL1   C24 6168   2.058   3.494   8.805 -0.0312 -0.1926 -0.2342
   50CHL1  H24A 6169   2.149   3.538   8.850  0.8177 -1.0491 -1.0663
   50CHL1  H24B 6170   2.064   3.388   8.838 -1.6878 -0.3453 -0.3393
   50CHL1   C25 6171   2.061   3.511   8.652  0.4245  0.8015 -0.5301
   50CHL1   H25 6172   2.003   3.425   8.612 -0.9764  1.4844 -0.0362
   50CHL1   C26 6173   2.013   3.639   8.589 -0.0004  0.1169  0.3539
   50CHL1  H26A 6174   1.903   3.653   8.583  0.1663  0.8305 -1.9884
   50CHL1  H26B 6175   2.068   3.732   8.616  1.0254 -0.2523 -0.3705
   50CHL1  H26C 6176   2.040   3.624   8.482 -0.9761  1.4210 -0.1062
   50CHL1   C27 6177   2.204   3.495   8.600  0.2001  0.2667  0.0193
   50CHL1  H27A 6178   2.263   3.585   8.630 -0.1117  1.3117 -2.2685
   50CHL1  H27B 6179   2.242   3.399   8.641 -1.1471  0.1034  0.9220
   50CHL1  H27C 6180   2.198   3.490   8.489 -2.3858  1.3237  0.0559
   51CHL1    C3 6181   3.921   5.914  10.233 -0.2348  0.2478  0.0121
   51CHL1    H3 6182   3.819   5.930  10.192 -0.8377  0.7019  1.6196
   51CHL1    O3 6183   3.910   5.882  10.368  0.2070 -0.3747 -0.0603
   51CHL1   H3' 6184   3.895   5.787  10.368 -0.4240 -0.2839  0.6975
   51CHL1    C4 6185   3.991   5.808  10.151 -0.4998 -0.2221 -0.1870
   51CHL1   H4A 6186   4.097   5.808  10.183 -0.1897  1.4780 -1.0572
   51CHL1   H4B 6187   3.951   5.708  10.177  1.5199 -0.9889  0.1370
   51CHL1    C5 6188   3.978   5.836  10.010 -0.0745 -0.9209  1.8042
   51CHL1    C6 6189   3.903   5.760   9.927  0.4568  0.2375 -0.3631
   51CHL1    H6 6190   3.849   5.677   9.974  1.3349 -1.0095 -1.4714
   51CHL1    C7 6191   3.882   5.780   9.780  0.1037 -0.6562 -0.0454
   51CHL1   H7A 6192   3.877   5.682   9.727  0.0618 -1.2518  1.0373
   51CHL1   H7B 6193   3.779   5.817   9.761  0.0841 -0.5509  0.2678
   51CHL1    C8 6194   3.989   5.878   9.721 -0.1125  0.4404  0.3482
   51CHL1    H8 6195   4.088   5.828   9.712 -0.8131 -1.0130  0.4537
   51CHL1   C14 6196   3.941   5.920   9.587 -0.4414 -0.5486 -0.2293
   51CHL1   H14 6197   3.842   5.967   9.606  0.0863  0.2654  0.6031
   51CHL1   C15 6198   3.924   5.812   9.480 -0.2098 -0.4528  0.3893
   51CHL1  H15A 6199   4.005   5.736   9.492 -0.2463 -0.4999  0.3357
   51CHL1  H15B 6200   3.826   5.761   9.488 -0.0693 -0.6942  0.6248
   51CHL1   C16 6201   3.932   5.892   9.346  0.5612 -0.1769  0.2784
   51CHL1  H16A 6202   4.028   5.866   9.297  0.1814 -0.3794 -0.3666
   51CHL1  H16B 6203   3.852   5.868   9.273  0.2257  0.7660  0.3212
   51CHL1   C17 6204   3.956   6.041   9.379  1.0558  0.0084  0.0801
   51CHL1   H17 6205   3.852   6.078   9.383 -0.6849 -4.0469 -1.9147
   51CHL1   C13 6206   4.018   6.037   9.518 -0.4972 -0.2400  0.3835
   51CHL1   C18 6207   4.173   5.990   9.512  0.0162 -0.0140  0.2806
   51CHL1  H18A 6208   4.207   5.956   9.612  5.0047  1.1220 -0.7827
   51CHL1  H18B 6209   4.186   5.902   9.445  1.6754 -1.6958  2.6691
   51CHL1  H18C 6210   4.230   6.082   9.486 -0.4892  0.6155  1.3347
   51CHL1   C12 6211   4.012   6.160   9.609  0.3786  0.0556  0.4037
   51CHL1  H12A 6212   4.065   6.252   9.578 -2.4477  1.8393  0.6026
   51CHL1  H12B 6213   3.904   6.181   9.606  0.1665 -0.7755  1.5135
   51CHL1   C11 6214   4.055   6.122   9.756 -0.0943 -0.0457 -0.4173
   51CHL1  H11A 6215   4.162   6.092   9.755 -0.5710 -2.0964  1.7637
   51CHL1  H11B 6216   4.039   6.204   9.829 -0.9573  2.0860 -2.8268
   51CHL1    C9 6217   3.982   5.994   9.815  0.4065 -0.7175 -0.4020
   51CHL1    H9 6218   3.874   6.015   9.830  0.5878 -0.4146  0.5450
   51CHL1   C10 6219   4.041   5.972   9.959  0.0499 -0.4645 -0.2162
   51CHL1   C19 6220   4.196   5.961   9.962  0.0609  0.0895  0.0769
   51CHL1  H19A 6221   4.222   5.891   9.879 -1.4910 -0.2457 -0.1785
   51CHL1  H19B 6222   4.241   6.061   9.945  0.4574 -0.3628 -1.8076
   51CHL1  H19C 6223   4.234   5.927  10.060  0.6346 -0.1754 -0.2317
   51CHL1    C1 6224   3.997   6.092  10.058 -0.0609  0.2850  0.6411
   51CHL1   H1A 6225   4.070   6.175  10.045 -0.1718  0.0886 -1.7607
   51CHL1   H1B 6226   3.899   6.136  10.029  1.2151  1.4801 -2.2858
   51CHL1    C2 6227   3.991   6.050  10.207  0.2720 -0.1125 -0.1809
   51CHL1   H2A 6228   3.961   6.130  10.278  0.9492 -0.3178  0.3490
   51CHL1   H2B 6229   4.099   6.033  10.226  0.4511  0.9635 -0.1867
   51CHL1   C20 6230   4.029   6.126   9.281  0.3424 -0.0812 -0.6189
   51CHL1   H20 6231   4.140   6.117   9.281  0.3936  0.5259 -1.0113
   51CHL1   C21 6232   3.995   6.272   9.304 -0.1680  0.2608 -0.2674
   51CHL1  H21A 6233   4.053   6.310   9.391  0.0568 -0.4526 -0.0932
   51CHL1  H21B 6234   3.889   6.300   9.319 -0.0117  0.4092  0.6563
   51CHL1  H21C 6235   4.029   6.329   9.215 -0.1519 -1.0674 -1.1489
   51CHL1   C22 6236   3.989   6.089   9.131  0.0415 -0.0978  0.7715
   51CHL1  H22A 6237   4.068   6.135   9.068 -1.0333 -0.5432 -0.9402
   51CHL1  H22B 6238   4.006   5.981   9.108  0.7878  0.5288 -1.9566
   51CHL1   C23 6239   3.852   6.135   9.086  0.2241  0.4772  0.4697
   51CHL1  H23A 6240   3.768   6.093   9.146 -0.9432  0.1263 -1.3399
   51CHL1  H23B 6241   3.842   6.245   9.094  0.5718  0.3765  3.6460
   51CHL1   C24 6242   3.829   6.089   8.941  0.1001 -0.2325 -0.3061
   51CHL1  H24A 6243   3.746   6.154   8.905  1.8475  1.5937 -1.2795
   51CHL1  H24B 6244   3.918   6.113   8.879 -0.5979 -0.5861 -1.4721
   51CHL1   C25 6245   3.790   5.942   8.925 -0.3820  0.7396 -0.2709
   51CHL1   H25 6246   3.864   5.889   8.989  0.1491  0.2763 -1.2494
   51CHL1   C26 6247   3.648   5.911   8.979  0.4490 -0.3523 -0.6565
   51CHL1  H26A 6248   3.638   5.801   8.972  0.4176 -0.5786  1.9520
   51CHL1  H26B 6249   3.639   5.934   9.087 -2.6347  0.4054 -0.9760
   51CHL1  H26C 6250   3.566   5.958   8.921 -0.1216 -1.3268 -0.6681
   51CHL1   C27 6251   3.809   5.889   8.780  0.0917  0.2728  0.2056
   51CHL1  H27A 6252   3.821   5.779   8.777 -1.1537  0.1358 -1.0012
   51CHL1  H27B 6253   3.710   5.883   8.731 -0.0837 -0.3194  0.6332
   51CHL1  H27C 6254   3.896   5.931   8.725  1.9113  0.9841  3.3930
   52CHL1    C3 6255   6.337   4.013  10.114 -0.2094 -0.7379 -0.1563
   52CHL1    H3 6256   6.396   4.106  10.104 -1.7280  0.0369 -2.8055
   52CHL1    O3 6257   6.350   3.952  10.243 -0.4362  0.6477 -0.1935
   52CHL1   H3' 6258   6.297   3.872  10.238  0.1167  0.2423  0.2683
   52CHL1    C4 6259   6.195   4.041  10.091  0.8084 -0.0761  0.6224
   52CHL1   H4A 6260   6.122   3.963  10.121  0.8737 -0.3378  0.1164
   52CHL1   H4B 6261   6.175   4.132  10.152  1.9013  0.5233  0.1301
   52CHL1    C5 6262   6.169   4.073   9.946  0.4832 -0.2167  0.0725
   52CHL1    C6 6263   6.103   4.184   9.914 -0.9990 -0.5060 -0.2326
   52CHL1    H6 6264   6.071   4.250   9.996 -0.2696  0.9335 -1.0591
   52CHL1    C7 6265   6.065   4.224   9.782  0.7930  0.0104 -0.4072
   52CHL1   H7A 6266   5.962   4.263   9.764  0.9692  0.2075 -1.0086
   52CHL1   H7B 6267   6.141   4.294   9.740 -1.1603  1.8410 -1.0635
   52CHL1    C8 6268   6.077   4.110   9.681 -1.2923  0.4273 -0.8358
   52CHL1    H8 6269   5.989   4.043   9.689  0.2203 -1.7008 -1.1790
   52CHL1   C14 6270   6.071   4.162   9.537 -0.4320 -0.6760  0.1025
   52CHL1   H14 6271   6.160   4.229   9.529  1.1754 -2.7815 -0.3947
   52CHL1   C15 6272   5.953   4.260   9.506 -0.4603  0.4657  0.8164
   52CHL1  H15A 6273   5.858   4.213   9.540 -0.2387  1.0628  2.3819
   52CHL1  H15B 6274   5.962   4.355   9.564  2.8240  0.3407  0.7330
   52CHL1   C16 6275   5.963   4.272   9.354 -0.0547 -1.3213  0.0886
   52CHL1  H16A 6276   5.862   4.248   9.315 -0.0886  0.4932 -1.0561
   52CHL1  H16B 6277   5.991   4.374   9.320  1.8092 -1.9165 -0.3098
   52CHL1   C17 6278   6.073   4.170   9.299  0.4544  0.5448 -0.5026
   52CHL1   H17 6279   6.162   4.235   9.284  0.3546  0.9338  0.4922
   52CHL1   C13 6280   6.090   4.069   9.415  0.5956  0.4704 -0.1340
   52CHL1   C18 6281   5.971   3.967   9.408 -0.2289  0.2470 -0.9498
   52CHL1  H18A 6282   5.990   3.897   9.324 -0.2699 -0.4817 -0.3678
   52CHL1  H18B 6283   5.975   3.901   9.497  0.1226  2.5621  0.8596
   52CHL1  H18C 6284   5.871   4.015   9.405 -1.2798 -1.6915  0.3475
   52CHL1   C12 6285   6.229   4.000   9.430  0.3300 -0.3603 -0.1193
   52CHL1  H12A 6286   6.242   3.920   9.354 -0.1528  0.5838 -1.2241
   52CHL1  H12B 6287   6.315   4.070   9.419  0.0255 -0.1188 -1.0484
   52CHL1   C11 6288   6.232   3.937   9.574  0.0268  0.7209 -0.2204
   52CHL1  H11A 6289   6.170   3.845   9.586  1.3506  0.0860  2.7963
   52CHL1  H11B 6290   6.337   3.901   9.583  0.4802  1.4580 -2.1050
   52CHL1    C9 6291   6.203   4.037   9.692 -0.2876  0.9283 -0.2146
   52CHL1    H9 6292   6.291   4.105   9.685  1.3846 -1.1567 -0.6922
   52CHL1   C10 6293   6.225   3.977   9.836  0.3777 -0.3713 -0.7907
   52CHL1   C19 6294   6.138   3.849   9.855 -0.8177  0.1010  0.1916
   52CHL1  H19A 6295   6.031   3.863   9.827 -0.9105  0.5641  0.7736
   52CHL1  H19B 6296   6.190   3.772   9.794 -2.0379  1.1720 -2.3607
   52CHL1  H19C 6297   6.141   3.798   9.953 -2.4989 -1.8604 -0.7059
   52CHL1    C1 6298   6.372   3.957   9.861 -0.0935  0.2223 -0.7560
   52CHL1   H1A 6299   6.420   3.882   9.795 -1.2457 -0.3938 -0.9063
   52CHL1   H1B 6300   6.438   4.045   9.840  2.6413 -1.2668  1.0489
   52CHL1    C2 6301   6.405   3.920  10.008  0.9079 -0.1490 -0.2280
   52CHL1   H2A 6302   6.516   3.925  10.018  0.9838 -3.2613  1.8739
   52CHL1   H2B 6303   6.378   3.813  10.023  1.3664 -0.1483  0.6939
   52CHL1   C20 6304   6.033   4.116   9.160 -0.2042  0.3463 -1.3678
   52CHL1   H20 6305   5.939   4.057   9.167  0.5524 -0.9207 -1.3735
   52CHL1   C21 6306   6.138   4.025   9.100 -0.0496 -0.0314 -0.4651
   52CHL1  H21A 6307   6.170   3.957   9.182  1.0769  0.5533 -0.4086
   52CHL1  H21B 6308   6.220   4.093   9.069  1.5019 -0.7308  1.8562
   52CHL1  H21C 6309   6.097   3.966   9.015 -0.2142  0.7623 -0.9381
   52CHL1   C22 6310   6.003   4.233   9.065 -0.2610  0.2649  0.4580
   52CHL1  H22A 6311   5.923   4.299   9.105  1.0314  1.8798  0.4445
   52CHL1  H22B 6312   6.094   4.294   9.053  0.7805 -1.5536 -1.9355
   52CHL1   C23 6313   5.963   4.176   8.928 -0.0352  0.6441  0.0495
   52CHL1  H23A 6314   6.038   4.113   8.877 -0.9454 -0.4259  0.0033
   52CHL1  H23B 6315   5.874   4.115   8.954  0.1628  0.4915  0.3670
   52CHL1   C24 6316   5.912   4.294   8.831 -0.1671  0.5034 -0.6562
   52CHL1  H24A 6317   5.833   4.354   8.881 -0.2999  0.1869 -0.4838
   52CHL1  H24B 6318   5.999   4.361   8.817  1.8392 -2.1251 -1.7586
   52CHL1   C25 6319   5.863   4.244   8.690  0.0588 -0.0620  0.2805
   52CHL1   H25 6320   5.844   4.341   8.639  2.0816 -0.2285 -0.8904
   52CHL1   C26 6321   5.969   4.164   8.602 -0.1893 -0.1375  0.6027
   52CHL1  H26A 6322   5.917   4.152   8.505 -1.4348  0.3374  1.1940
   52CHL1  H26B 6323   6.068   4.213   8.588  0.0053 -0.1772  1.7462
   52CHL1  H26C 6324   5.991   4.066   8.650  4.0057  1.3338  2.1889
   52CHL1   C27 6325   5.723   4.174   8.698 -0.8531 -0.1788  0.4600
   52CHL1  H27A 6326   5.752   4.077   8.745  1.1340  0.2523  0.2026
   52CHL1  H27B 6327   5.648   4.225   8.761  0.3034 -0.7918  2.4102
   52CHL1  H27C 6328   5.679   4.157   8.597  2.1849  0.3771 -1.0707
   53CHL1    C3 6329   1.166   3.617  10.113 -0.5864 -0.0238  0.9399
   53CHL1    H3 6330   1.267   3.573  10.096 -0.4692 -0.2092  2.0695
   53CHL1    O3 6331   1.159   3.642  10.248  0.6120  0.2517 -0.7534
   53CHL1   H3' 6332   1.065   3.639  10.265  1.0719 -0.4954  2.2751
   53CHL1    C4 6333   1.153   3.749  10.041  0.1852 -0.1511  0.4186
   53CHL1   H4A 6334   1.057   3.798  10.067 -0.1011 -0.8909  0.7809
   53CHL1   H4B 6335   1.223   3.826  10.080 -0.5007  1.7219 -1.7782
   53CHL1    C5 6336   1.172   3.733   9.886  0.2480 -0.7658 -0.6448
   53CHL1    C6 6337   1.265   3.795   9.817  0.1492  0.1974 -0.4846
   53CHL1    H6 6338   1.336   3.866   9.862  1.6109 -1.3964 -0.1680
   53CHL1    C7 6339   1.268   3.781   9.667 -0.2428 -0.0812  0.1265
   53CHL1   H7A 6340   1.307   3.874   9.621 -2.3924  2.7447  3.5386
   53CHL1   H7B 6341   1.341   3.699   9.648 -0.5053 -0.1642 -0.5432
   53CHL1    C8 6342   1.144   3.731   9.596  0.3711 -0.5239  0.3055
   53CHL1    H8 6343   1.064   3.807   9.590 -0.0197 -1.0519 -2.5960
   53CHL1   C14 6344   1.167   3.701   9.447 -0.3712  0.0310 -0.4649
   53CHL1   H14 6345   1.250   3.628   9.454 -0.2309  0.3702  2.0639
   53CHL1   C15 6346   1.229   3.816   9.362 -0.4835  0.6935  0.3831
   53CHL1  H15A 6347   1.183   3.913   9.392 -0.4351  0.3714  1.5301
   53CHL1  H15B 6348   1.336   3.833   9.384 -0.5573  1.5634  0.1428
   53CHL1   C16 6349   1.187   3.784   9.220  0.4194  0.3389  0.4464
   53CHL1  H16A 6350   1.129   3.870   9.181 -2.4538 -1.3022  0.7934
   53CHL1  H16B 6351   1.275   3.768   9.155  0.1292  3.0375 -0.7247
   53CHL1   C17 6352   1.099   3.650   9.226 -0.5667  0.4248 -0.3037
   53CHL1   H17 6353   1.163   3.560   9.232  1.0627  1.6309  2.1160
   53CHL1   C13 6354   1.036   3.650   9.371 -0.3115 -0.4617 -0.2410
   53CHL1   C18 6355   0.921   3.754   9.369  0.1205  0.3593  0.4184
   53CHL1  H18A 6356   0.963   3.845   9.321 -0.6266  1.2794  1.4551
   53CHL1  H18B 6357   0.835   3.737   9.300 -1.4976  1.7401  1.9714
   53CHL1  H18C 6358   0.881   3.772   9.471 -0.5579 -2.1485  0.6687
   53CHL1   C12 6359   1.001   3.511   9.441 -0.2634 -1.0565  0.2570
   53CHL1  H12A 6360   0.909   3.466   9.396 -2.2131  1.7125  1.2149
   53CHL1  H12B 6361   1.088   3.442   9.435  0.6194  0.0870 -0.3014
   53CHL1   C11 6362   0.971   3.536   9.591 -0.6158 -0.3803  0.5489
   53CHL1  H11A 6363   0.875   3.592   9.600  0.8671  2.0280  3.1914
   53CHL1  H11B 6364   0.942   3.443   9.644 -2.0650  0.5229  1.4409
   53CHL1    C9 6365   1.090   3.611   9.667  0.2195 -0.3301 -0.2032
   53CHL1    H9 6366   1.173   3.537   9.663 -1.0129 -1.7102 -0.9950
   53CHL1   C10 6367   1.066   3.644   9.823 -0.2756 -0.3196  0.4294
   53CHL1   C19 6368   0.923   3.704   9.837 -0.5078  0.8003  0.1765
   53CHL1  H19A 6369   0.922   3.802   9.784  2.6317 -0.6812 -3.0079
   53CHL1  H19B 6370   0.834   3.647   9.802 -2.0885  1.7639  2.3768
   53CHL1  H19C 6371   0.896   3.712   9.945 -1.3128 -2.2861  0.2856
   53CHL1    C1 6372   1.073   3.513   9.903  0.0454  0.1596 -0.2828
   53CHL1   H1A 6373   0.992   3.449   9.861 -0.5313 -0.3206  1.4850
   53CHL1   H1B 6374   1.171   3.466   9.879 -0.9524 -2.0636 -0.3045
   53CHL1    C2 6375   1.054   3.522  10.062  0.0396 -0.9302  0.0528
   53CHL1   H2A 6376   1.057   3.425  10.116 -1.4857 -3.6314 -4.2545
   53CHL1   H2B 6377   0.958   3.576  10.080  0.0246 -1.4456  1.7256
   53CHL1   C20 6378   1.012   3.636   9.106  0.1773  0.3516 -0.0502
   53CHL1   H20 6379   0.917   3.597   9.148  0.4833 -1.0018 -0.5487
   53CHL1   C21 6380   1.089   3.538   9.009 -0.7656  0.2349  0.5670
   53CHL1  H21A 6381   1.030   3.509   8.919  0.6344 -0.2647 -0.2287
   53CHL1  H21B 6382   1.113   3.448   9.070 -1.0162  1.2193  2.1703
   53CHL1  H21C 6383   1.189   3.578   8.980 -0.9122  1.0382  1.1586
   53CHL1   C22 6384   0.987   3.766   9.029  0.8251 -0.1925  0.8378
   53CHL1  H22A 6385   0.954   3.848   9.096 -0.8556 -0.9925  1.0464
   53CHL1  H22B 6386   1.081   3.788   8.974 -0.5868 -0.8457 -1.9782
   53CHL1   C23 6387   0.889   3.762   8.912  0.3337  0.4693  0.3181
   53CHL1  H23A 6388   0.905   3.856   8.855  0.3380  0.5259  0.4129
   53CHL1  H23B 6389   0.916   3.678   8.845 -2.0818 -0.2426  0.1543
   53CHL1   C24 6390   0.746   3.743   8.958 -0.1192 -0.4000  0.4588
   53CHL1  H24A 6391   0.737   3.659   9.029  1.5347 -0.7360  0.3016
   53CHL1  H24B 6392   0.712   3.833   9.014 -3.0188 -1.2939  0.3360
   53CHL1   C25 6393   0.635   3.708   8.849 -0.0250  1.1560 -0.1812
   53CHL1   H25 6394   0.660   3.609   8.805  0.3693 -0.2098  2.8717
   53CHL1   C26 6395   0.497   3.700   8.915  0.3985  0.5621  0.0409
   53CHL1  H26A 6396   0.471   3.795   8.966  0.3200  1.2563 -1.2645
   53CHL1  H26B 6397   0.418   3.677   8.840 -1.9374  0.1988  2.4166
   53CHL1  H26C 6398   0.494   3.621   8.994 -3.5047 -0.3232 -0.7549
   53CHL1   C27 6399   0.638   3.808   8.734 -0.8303 -0.8814  0.3398
   53CHL1  H27A 6400   0.739   3.802   8.688 -0.1606  1.5078  1.3006
   53CHL1  H27B 6401   0.561   3.781   8.659 -0.6671 -3.3011  0.9659
   53CHL1  H27C 6402   0.611   3.910   8.769  0.0115  0.5760 -2.8706
   54CHL1    C3 6403   1.737   5.141  10.049  0.0890  0.0179  0.0706
   54CHL1    H3 6404   1.698   5.038  10.035  2.3093 -1.3695  2.8314
   54CHL1    O3 6405   1.751   5.189  10.186  0.2187  0.2266 -0.2072
   54CHL1   H3' 6406   1.807   5.267  10.186 -0.0653  0.4508  0.8481
   54CHL1    C4 6407   1.882   5.137   9.993  0.1154  0.6208 -0.5153
   54CHL1   H4A 6408   1.933   5.232  10.020 -0.7926  0.5457  1.6029
   54CHL1   H4B 6409   1.931   5.050  10.042  1.2453 -0.5656 -3.4696
   54CHL1    C5 6410   1.896   5.114   9.849  0.2790  0.6104  0.9068
   54CHL1    C6 6411   1.978   5.024   9.797  0.2616  0.1030  0.4060
   54CHL1    H6 6412   2.042   4.958   9.858  0.1973 -1.2658 -0.9501
   54CHL1    C7 6413   1.989   4.999   9.652  0.3626 -0.3252  0.6629
   54CHL1   H7A 6414   2.094   4.976   9.623 -0.5439 -0.3873 -3.1493
   54CHL1   H7B 6415   1.932   4.905   9.633  0.1199 -0.0626  0.0593
   54CHL1    C8 6416   1.937   5.110   9.561 -0.2028 -0.5714 -0.5508
   54CHL1    H8 6417   2.009   5.195   9.566 -1.4046  0.4176  1.0839
   54CHL1   C14 6418   1.930   5.068   9.420 -0.3634  0.3109  1.2840
   54CHL1   H14 6419   1.855   4.986   9.418 -1.1510  1.0144  1.0192
   54CHL1   C15 6420   2.056   5.016   9.356  0.3008  0.0702  0.5676
   54CHL1  H15A 6421   2.134   5.088   9.389 -2.3049  1.9032  3.3267
   54CHL1  H15B 6422   2.074   4.912   9.391 -0.6387  0.3833  2.1104
   54CHL1   C16 6423   2.021   5.005   9.209 -0.2325 -0.6908  0.1811
   54CHL1  H16A 6424   2.109   5.043   9.152 -0.1856  0.6830  1.1257
   54CHL1  H16B 6425   1.999   4.902   9.175  2.2004 -1.1010 -0.3118
   54CHL1   C17 6426   1.893   5.089   9.187 -0.0887 -0.4249 -0.4514
   54CHL1   H17 6427   1.810   5.015   9.184 -0.8751  0.4441 -0.6662
   54CHL1   C13 6428   1.872   5.172   9.321  0.3004  0.4749  0.1137
   54CHL1   C18 6429   1.963   5.295   9.299 -0.1538  0.3257  0.7165
   54CHL1  H18A 6430   1.999   5.341   9.393  0.8711  0.1381  0.4352
   54CHL1  H18B 6431   2.053   5.261   9.242  2.1724  0.1513  4.1927
   54CHL1  H18C 6432   1.908   5.369   9.236  3.5050 -0.6875 -4.3553
   54CHL1   C12 6433   1.735   5.207   9.366 -0.1824 -0.4507 -0.1744
   54CHL1  H12A 6434   1.688   5.293   9.313  1.8094  2.0919  1.9489
   54CHL1  H12B 6435   1.672   5.115   9.364 -1.6159  0.1629  4.4625
   54CHL1   C11 6436   1.733   5.257   9.514  0.0979  1.0273  0.1944
   54CHL1  H11A 6437   1.791   5.351   9.509  1.9643 -0.1336 -1.3084
   54CHL1  H11B 6438   1.625   5.264   9.537 -0.1776 -1.7363  0.1101
   54CHL1    C9 6439   1.797   5.160   9.607 -0.6936  0.4191  0.3284
   54CHL1    H9 6440   1.727   5.073   9.605  0.2834 -0.3913  0.3566
   54CHL1   C10 6441   1.803   5.202   9.757 -0.2900 -0.4315 -0.2899
   54CHL1   C19 6442   1.858   5.343   9.769  0.1013  0.7956  0.1830
   54CHL1  H19A 6443   1.877   5.376   9.873 -0.3705  2.3944 -0.2001
   54CHL1  H19B 6444   1.958   5.340   9.720 -0.1534 -0.3538 -0.2936
   54CHL1  H19C 6445   1.789   5.415   9.720 -1.4499 -0.3448  0.6173
   54CHL1    C1 6446   1.659   5.201   9.815 -0.0644  0.2117  0.0721
   54CHL1   H1A 6447   1.598   5.277   9.762 -1.9084  0.1171  1.9376
   54CHL1   H1B 6448   1.610   5.103   9.800  0.9104 -0.1419 -0.9640
   54CHL1    C2 6449   1.655   5.236   9.965  0.0448 -0.3210 -0.2266
   54CHL1   H2A 6450   1.552   5.242  10.006  0.2356  1.3443  0.0621
   54CHL1   H2B 6451   1.698   5.337   9.982 -2.4667  0.7585  0.1754
   54CHL1   C20 6452   1.883   5.155   9.051  0.5370  0.3076  0.0792
   54CHL1   H20 6453   1.964   5.231   9.053 -0.2976  1.3758  4.1079
   54CHL1   C21 6454   1.747   5.226   9.040  0.0889  0.7266  0.3758
   54CHL1  H21A 6455   1.736   5.266   8.937 -0.5373 -2.7202 -1.0134
   54CHL1  H21B 6456   1.729   5.308   9.113 -1.0842  0.0004  0.9302
   54CHL1  H21C 6457   1.661   5.156   9.049  1.4095 -0.8315  1.6275
   54CHL1   C22 6458   1.901   5.050   8.937 -0.4130 -0.1429 -0.1824
   54CHL1  H22A 6459   1.887   5.113   8.846 -0.3448 -1.1290 -0.8939
   54CHL1  H22B 6460   2.010   5.034   8.928 -0.0851  2.4758 -2.1921
   54CHL1   C23 6461   1.809   4.921   8.940 -0.4292  0.4532 -0.3125
   54CHL1  H23A 6462   1.844   4.851   9.018  0.7244  0.3244 -0.9280
   54CHL1  H23B 6463   1.708   4.959   8.967  0.6988  3.2957  0.2790
   54CHL1   C24 6464   1.808   4.835   8.810  0.1723 -0.6804 -0.0645
   54CHL1  H24A 6465   1.754   4.738   8.825 -0.9280  0.2145  2.3016
   54CHL1  H24B 6466   1.747   4.892   8.737 -0.4069 -0.9837  0.1668
   54CHL1   C25 6467   1.947   4.805   8.756 -0.2699  0.6583  0.1653
   54CHL1   H25 6468   2.010   4.896   8.760 -0.1779  0.6661 -1.0989
   54CHL1   C26 6469   2.022   4.688   8.830 -0.0745  0.3629 -0.1619
   54CHL1  H26A 6470   2.044   4.717   8.935 -1.6859  2.1992 -0.2652
   54CHL1  H26B 6471   1.950   4.603   8.829 -0.7216  0.9060 -1.1077
   54CHL1  H26C 6472   2.117   4.660   8.781 -0.7877 -0.6111 -1.0471
   54CHL1   C27 6473   1.935   4.772   8.613  0.8031 -0.0738 -0.5837
   54CHL1  H27A 6474   1.927   4.663   8.595 -0.0843  0.1053 -1.3297
   54CHL1  H27B 6475   1.842   4.815   8.569  0.7503 -0.6367 -1.0292
   54CHL1  H27C 6476   2.021   4.800   8.549  1.7140 -2.7758 -0.6742
   55CHL1    C3 6477   2.101   3.434  10.151  0.2853 -0.5701  0.5733
   55CHL1    H3 6478   2.202   3.393  10.168  0.1785 -0.0541  2.7133
   55CHL1    O3 6479   2.070   3.492  10.273 -0.2505 -0.2544 -0.0182
   55CHL1   H3' 6480   2.151   3.541  10.289 -1.3364  1.1103  1.6591
   55CHL1    C4 6481   2.095   3.536  10.041 -0.7506 -0.0674  0.3361
   55CHL1   H4A 6482   1.991   3.575  10.032  0.0547  2.7866  2.0446
   55CHL1   H4B 6483   2.151   3.628  10.067 -1.7060  0.6733 -0.1418
   55CHL1    C5 6484   2.132   3.483   9.904  0.8727 -0.1942 -0.5023
   55CHL1    C6 6485   2.240   3.520   9.841  0.5013 -0.2516  0.4812
   55CHL1    H6 6486   2.303   3.600   9.883  2.2240 -1.0612 -0.4228
   55CHL1    C7 6487   2.267   3.475   9.699 -0.5081  0.1848 -0.8845
   55CHL1   H7A 6488   2.263   3.563   9.631  2.2455  0.4009 -0.8928
   55CHL1   H7B 6489   2.372   3.437   9.699 -0.1978  0.5467  3.4460
   55CHL1    C8 6490   2.165   3.376   9.634  0.5407  0.0177 -0.1388
   55CHL1    H8 6491   2.073   3.431   9.604 -0.0494 -0.1264  1.3227
   55CHL1   C14 6492   2.227   3.292   9.514  0.0475 -0.3635 -0.3230
   55CHL1   H14 6493   2.297   3.223   9.565 -0.5385 -1.8681 -1.4730
   55CHL1   C15 6494   2.304   3.355   9.396 -0.4190  0.2943 -0.6175
   55CHL1  H15A 6495   2.256   3.448   9.358 -2.8505 -0.2913  0.8254
   55CHL1  H15B 6496   2.409   3.366   9.430 -0.6807 -0.0057  0.3151
   55CHL1   C16 6497   2.290   3.249   9.283 -0.3548 -0.2565  0.0583
   55CHL1  H16A 6498   2.260   3.277   9.180  1.8157 -1.9451 -1.1246
   55CHL1  H16B 6499   2.392   3.207   9.268 -0.3468 -0.3837  0.4400
   55CHL1   C17 6500   2.202   3.138   9.327  0.5909 -0.0886 -1.0114
   55CHL1   H17 6501   2.267   3.059   9.370  2.5603  0.7761 -2.2727
   55CHL1   C13 6502   2.123   3.200   9.444  0.2552 -0.8266  0.0599
   55CHL1   C18 6503   2.001   3.276   9.394  0.0557 -0.7261 -0.4160
   55CHL1  H18A 6504   2.035   3.348   9.316  4.1252  0.4118  2.1164
   55CHL1  H18B 6505   1.925   3.210   9.347 -0.1002 -0.0950 -1.0607
   55CHL1  H18C 6506   1.953   3.349   9.462  1.2247  0.4148 -0.7802
   55CHL1   C12 6507   2.082   3.098   9.552 -0.2901  0.6800 -0.0633
   55CHL1  H12A 6508   2.006   3.024   9.518  2.1100 -1.3429 -1.3686
   55CHL1  H12B 6509   2.175   3.043   9.577 -0.5625  0.7164  1.0549
   55CHL1   C11 6510   2.040   3.159   9.690  0.0795  0.4872  0.1137
   55CHL1  H11A 6511   1.933   3.184   9.677  0.1002 -0.2125 -1.5862
   55CHL1  H11B 6512   2.042   3.080   9.768 -1.4876  0.7633  0.4618
   55CHL1    C9 6513   2.121   3.278   9.740 -0.4042  0.1402  0.5094
   55CHL1    H9 6514   2.213   3.231   9.782 -0.4520 -1.5250 -1.1308
   55CHL1   C10 6515   2.054   3.355   9.864  0.3084 -0.7691  0.2050
   55CHL1   C19 6516   1.905   3.406   9.828 -0.3630 -0.3989 -0.5472
   55CHL1  H19A 6517   1.908   3.465   9.734  2.8169  0.1164 -0.2583
   55CHL1  H19B 6518   1.829   3.326   9.820  0.5039 -1.2701 -0.2229
   55CHL1  H19C 6519   1.863   3.466   9.912 -0.7510  0.3256 -1.2410
   55CHL1    C1 6520   2.049   3.259   9.985 -0.2397 -0.5218 -0.4788
   55CHL1   H1A 6521   1.989   3.168   9.966  1.1584 -1.8588  1.2116
   55CHL1   H1B 6522   2.145   3.207  10.007  0.5195  0.5769 -1.0529
   55CHL1    C2 6523   2.008   3.318  10.120  0.2544 -0.2736  0.5760
   55CHL1   H2A 6524   2.005   3.249  10.207  1.3841 -0.3034  0.5989
   55CHL1   H2B 6525   1.903   3.355  10.118 -0.3432 -1.8808  0.5052
   55CHL1   C20 6526   2.123   3.079   9.205 -0.3539  1.0133  0.6577
   55CHL1   H20 6527   2.062   3.156   9.154  1.1336  1.1856 -0.9580
   55CHL1   C21 6528   2.024   2.974   9.254  0.6507  0.9178 -0.3687
   55CHL1  H21A 6529   2.071   2.900   9.322  0.6879  0.8482 -0.4710
   55CHL1  H21B 6530   1.987   2.906   9.175  1.4154 -2.2320  1.8255
   55CHL1  H21C 6531   1.936   3.023   9.302  1.3013  1.2173  0.5540
   55CHL1   C22 6532   2.209   3.015   9.097  1.3816 -0.4912  0.0047
   55CHL1  H22A 6533   2.290   3.085   9.068 -1.3390  2.2385 -1.5979
   55CHL1  H22B 6534   2.259   2.923   9.132 -0.9585 -1.0694  2.1502
   55CHL1   C23 6535   2.131   2.994   8.960 -0.2027  1.1480  0.3362
   55CHL1  H23A 6536   2.073   2.901   8.977 -0.2624  1.0666 -0.2985
   55CHL1  H23B 6537   2.058   3.078   8.955 -0.9775  0.4219 -3.1349
   55CHL1   C24 6538   2.214   2.966   8.836  0.1042 -0.9887  0.4106
   55CHL1  H24A 6539   2.292   3.045   8.830  0.3808 -1.1507  1.6045
   55CHL1  H24B 6540   2.257   2.864   8.838 -3.7107 -2.7828  1.4281
   55CHL1   C25 6541   2.130   2.981   8.706  0.5133  0.6534  0.7986
   55CHL1   H25 6542   2.048   2.907   8.710  1.4250 -0.4621 -0.2808
   55CHL1   C26 6543   2.072   3.116   8.683  0.9902 -0.5107 -0.6543
   55CHL1  H26A 6544   1.996   3.149   8.756  2.5367 -0.0507  0.8221
   55CHL1  H26B 6545   2.148   3.196   8.666 -1.0589  1.2566 -1.9184
   55CHL1  H26C 6546   2.012   3.109   8.590 -1.1655 -0.1908  0.6437
   55CHL1   C27 6547   2.211   2.937   8.582  0.1981 -0.4020 -0.0573
   55CHL1  H27A 6548   2.236   2.829   8.589 -0.1138 -0.4097  1.2349
   55CHL1  H27B 6549   2.169   2.968   8.484  3.8382 -1.0484 -1.9955
   55CHL1  H27C 6550   2.309   2.990   8.579 -0.3379  0.8023  1.7419
   56CHL1    C3 6551   6.008   2.011  10.237 -0.4604  0.6792  0.5900
   56CHL1    H3 6552   5.990   1.902  10.229 -0.3499  0.5482  1.8552
   56CHL1    O3 6553   5.986   2.047  10.369 -0.3029 -0.0654  0.2356
   56CHL1   H3' 6554   5.997   2.142  10.365  1.0169  0.0108  3.1997
   56CHL1    C4 6555   6.153   2.042  10.196 -0.3847 -0.4504 -0.4176
   56CHL1   H4A 6556   6.178   2.144  10.231 -1.4291  0.1255 -1.3001
   56CHL1   H4B 6557   6.221   1.983  10.262  0.0183  0.1356 -0.3049
   56CHL1    C5 6558   6.196   2.047  10.053  0.0404  0.4612  0.3401
   56CHL1    C6 6559   6.306   1.982  10.003  0.0090 -0.1777 -0.6799
   56CHL1    H6 6560   6.359   1.914  10.072  0.1143 -1.2940 -1.8107
   56CHL1    C7 6561   6.347   1.971   9.859  0.2392 -0.1225  0.2756
   56CHL1   H7A 6562   6.455   1.989   9.842  0.0900  0.3898 -0.1731
   56CHL1   H7B 6563   6.328   1.869   9.819  4.5392 -1.0188  0.0489
   56CHL1    C8 6564   6.256   2.079   9.780 -0.7910  0.8797  0.0668
   56CHL1    H8 6565   6.296   2.182   9.792  0.9807  0.2459 -0.2156
   56CHL1   C14 6566   6.278   2.044   9.629  0.2226 -0.3511 -0.5466
   56CHL1   H14 6567   6.231   1.944   9.619  0.0650 -0.3002 -0.3136
   56CHL1   C15 6568   6.424   2.024   9.576  0.6111 -0.3360  0.9954
   56CHL1  H15A 6569   6.477   2.118   9.603 -0.7789  0.5179  0.8252
   56CHL1  H15B 6570   6.473   1.935   9.620 -3.1100 -1.8269  2.5641
   56CHL1   C16 6571   6.399   2.015   9.421 -0.4064  0.6670 -0.6649
   56CHL1  H16A 6572   6.463   2.086   9.365 -0.3557  0.8206 -0.4159
   56CHL1  H16B 6573   6.408   1.910   9.386  0.8350  0.9696 -1.3192
   56CHL1   C17 6574   6.256   2.067   9.400  0.3491 -0.5722  0.2252
   56CHL1   H17 6575   6.194   1.975   9.396 -1.8819  0.8912 -1.0262
   56CHL1   C13 6576   6.207   2.135   9.534  0.3005  0.4332  0.0151
   56CHL1   C18 6577   6.257   2.279   9.546 -0.7384  0.4992  0.0950
   56CHL1  H18A 6578   6.361   2.292   9.510 -0.8808 -4.5957 -3.0918
   56CHL1  H18B 6579   6.197   2.336   9.471  0.6640 -1.0467 -2.3450
   56CHL1  H18C 6580   6.249   2.321   9.648 -3.2412 -0.4079  0.3507
   56CHL1   C12 6581   6.058   2.133   9.563 -0.0154  0.2478 -0.3553
   56CHL1  H12A 6582   5.995   2.194   9.496 -1.9134 -2.6461 -1.3910
   56CHL1  H12B 6583   6.018   2.030   9.553  1.7352 -0.4793 -0.2210
   56CHL1   C11 6584   6.032   2.166   9.712 -0.0697 -0.3407  0.1321
   56CHL1  H11A 6585   6.054   2.273   9.732 -2.2765 -0.0042  0.9929
   56CHL1  H11B 6586   5.926   2.141   9.734 -0.2992 -1.4969 -2.0408
   56CHL1    C9 6587   6.113   2.082   9.812  0.2400  0.7193 -0.0784
   56CHL1    H9 6588   6.077   1.978   9.802  3.3085 -0.4345 -0.1782
   56CHL1   C10 6589   6.094   2.111   9.967  0.0182  0.1219 -0.0111
   56CHL1   C19 6590   6.103   2.265   9.985 -0.2515  0.1591  0.3778
   56CHL1  H19A 6591   6.184   2.311   9.924 -1.2827  2.3058  0.5246
   56CHL1  H19B 6592   6.008   2.311   9.948 -0.9500  0.2293  2.1764
   56CHL1  H19C 6593   6.118   2.292  10.091 -0.7790 -2.4380  1.1775
   56CHL1    C1 6594   5.946   2.081  10.000  0.0164  0.4159 -0.2216
   56CHL1   H1A 6595   5.881   2.158   9.953 -0.1831  0.9449  0.8775
   56CHL1   H1B 6596   5.913   1.979   9.972  1.7629 -0.6652  1.4249
   56CHL1    C2 6597   5.911   2.090  10.149  0.0335  1.0735 -0.8417
   56CHL1   H2A 6598   5.811   2.052  10.177  1.4539 -0.4805  2.7341
   56CHL1   H2B 6599   5.927   2.199  10.165 -1.0779  1.2746 -1.0472
   56CHL1   C20 6600   6.233   2.139   9.258 -0.9464  0.5372 -0.0602
   56CHL1   H20 6601   6.282   2.235   9.283 -0.2447  0.5506 -1.4327
   56CHL1   C21 6602   6.085   2.160   9.232 -0.5575 -0.0178  0.1904
   56CHL1  H21A 6603   6.017   2.084   9.277 -0.0635  0.4410  1.7981
   56CHL1  H21B 6604   6.055   2.157   9.125  1.6342 -2.7421 -0.4589
   56CHL1  H21C 6605   6.063   2.262   9.270 -0.0242  0.0441  0.3416
   56CHL1   C22 6606   6.306   2.094   9.130  0.4247 -0.1940  0.2033
   56CHL1  H22A 6607   6.414   2.070   9.144  0.9340  2.1118  0.6015
   56CHL1  H22B 6608   6.251   2.003   9.099 -0.1740 -0.4453  1.9135
   56CHL1   C23 6609   6.297   2.197   9.015  0.2907  0.6919  0.1023
   56CHL1  H23A 6610   6.195   2.240   9.005 -0.4509 -1.3117 -1.9903
   56CHL1  H23B 6611   6.363   2.281   9.045 -0.1336  2.5543 -3.5984
   56CHL1   C24 6612   6.322   2.132   8.886 -0.4279 -0.3164  0.3900
   56CHL1  H24A 6613   6.430   2.136   8.858 -0.6099  3.0431 -0.2336
   56CHL1  H24B 6614   6.285   2.027   8.896  2.1773 -1.2907  0.7395
   56CHL1   C25 6615   6.252   2.210   8.769  0.0465 -0.7522 -0.7488
   56CHL1   H25 6616   6.145   2.221   8.795  0.7180  0.2176  1.9021
   56CHL1   C26 6617   6.325   2.347   8.739  1.1325  0.7225  0.3523
   56CHL1  H26A 6618   6.267   2.402   8.662  2.4024 -0.5464 -1.5988
   56CHL1  H26B 6619   6.331   2.406   8.833  1.3383 -0.3056  0.9960
   56CHL1  H26C 6620   6.424   2.322   8.696  0.6101  0.1111 -0.5331
   56CHL1   C27 6621   6.255   2.128   8.637 -0.3817 -0.0725 -0.6112
   56CHL1  H27A 6622   6.189   2.038   8.639 -0.7546  0.1884 -0.9275
   56CHL1  H27B 6623   6.212   2.187   8.553 -2.2356  0.7562  0.8542
   56CHL1  H27C 6624   6.360   2.101   8.615 -0.0664  0.7724 -0.1818
   57CHL1    C3 6625   1.879   4.380  10.186  0.5475 -0.5606  0.2692
   57CHL1    H3 6626   1.838   4.463  10.125  1.1455 -0.6566 -0.2831
   57CHL1    O3 6627   1.820   4.386  10.312 -0.0499  0.1744 -0.6957
   57CHL1   H3' 6628   1.894   4.408  10.369 -0.5573 -0.2046  0.1256
   57CHL1    C4 6629   1.850   4.247  10.127 -0.7144 -0.2523  0.0879
   57CHL1   H4A 6630   1.879   4.164  10.194 -3.0172  0.8902  2.7488
   57CHL1   H4B 6631   1.740   4.239  10.110 -0.7058 -0.8820  0.3322
   57CHL1    C5 6632   1.919   4.220  10.001 -0.0951 -0.5672  0.6608
   57CHL1    C6 6633   1.845   4.195   9.888 -0.9430 -0.3503 -0.8794
   57CHL1    H6 6634   1.738   4.180   9.910 -0.9894  1.9193  0.7970
   57CHL1    C7 6635   1.902   4.178   9.747  0.8600  0.3046 -0.1221
   57CHL1   H7A 6636   1.860   4.089   9.695  1.9927  0.6940 -1.8082
   57CHL1   H7B 6637   1.874   4.261   9.680 -1.1405 -1.7578 -2.0324
   57CHL1    C8 6638   2.056   4.167   9.754 -0.0664  0.2001 -0.3387
   57CHL1    H8 6639   2.079   4.066   9.794 -0.1981  0.3314  0.0723
   57CHL1   C14 6640   2.111   4.189   9.615 -0.5188 -0.7053 -0.6954
   57CHL1   H14 6641   2.079   4.293   9.593 -1.4965 -0.4899  1.4564
   57CHL1   C15 6642   2.053   4.102   9.502 -0.8579 -0.4722 -0.0036
   57CHL1  H15A 6643   2.028   3.995   9.519 -2.2946 -0.3469 -1.1323
   57CHL1  H15B 6644   1.957   4.147   9.467  0.6107  1.5172 -1.7367
   57CHL1   C16 6645   2.160   4.116   9.394 -0.4284  0.8516  0.2606
   57CHL1  H16A 6646   2.191   4.012   9.369  1.7802  1.4628  0.2920
   57CHL1  H16B 6647   2.127   4.171   9.304 -2.0743 -1.2813 -0.5265
   57CHL1   C17 6648   2.286   4.186   9.451  0.3435 -0.7529 -0.6213
   57CHL1   H17 6649   2.266   4.293   9.427  2.7548 -0.2055 -0.4313
   57CHL1   C13 6650   2.264   4.170   9.601 -0.6631 -0.1238  0.3626
   57CHL1   C18 6651   2.314   4.033   9.642  1.0355  0.1872 -0.0879
   57CHL1  H18A 6652   2.425   4.025   9.640  1.0774  0.3048  0.9814
   57CHL1  H18B 6653   2.282   4.022   9.748 -1.0651  0.3463 -0.6572
   57CHL1  H18C 6654   2.268   3.947   9.589  2.1158 -0.9272  0.7260
   57CHL1   C12 6655   2.319   4.286   9.691 -0.1548 -0.5051 -0.1004
   57CHL1  H12A 6656   2.429   4.294   9.678 -0.4101  2.5780 -1.3364
   57CHL1  H12B 6657   2.274   4.380   9.652 -0.4662 -0.2292  0.9067
   57CHL1   C11 6658   2.278   4.278   9.838 -0.6322  0.4604  0.2031
   57CHL1  H11A 6659   2.319   4.189   9.889 -1.2169 -1.6740 -2.8203
   57CHL1  H11B 6660   2.319   4.370   9.885 -0.4537  0.0025  0.9629
   57CHL1    C9 6661   2.125   4.266   9.854  0.2394  0.4709 -0.7514
   57CHL1    H9 6662   2.080   4.363   9.822 -0.7062 -0.0362 -0.9933
   57CHL1   C10 6663   2.067   4.252   9.999 -0.1892 -0.4152 -0.3441
   57CHL1   C19 6664   2.145   4.143  10.077  0.9845 -0.7526  0.3337
   57CHL1  H19A 6665   2.250   4.180  10.087 -0.1691  3.1318 -0.1858
   57CHL1  H19B 6666   2.090   4.118  10.170 -0.7637 -2.2225 -1.0335
   57CHL1  H19C 6667   2.153   4.049  10.019 -0.6695 -0.0913 -1.0415
   57CHL1    C1 6668   2.098   4.395  10.070 -0.1915  0.5011  0.5456
   57CHL1   H1A 6669   2.208   4.404  10.076  0.3475 -1.9498 -2.8422
   57CHL1   H1B 6670   2.053   4.473  10.006  1.5506  0.8733 -0.2759
   57CHL1    C2 6671   2.031   4.398  10.198  0.4030  0.2189 -0.6135
   57CHL1   H2A 6672   2.048   4.501  10.236 -1.5830  0.4240 -0.1691
   57CHL1   H2B 6673   2.056   4.328  10.280 -2.5671 -1.4837 -0.9955
   57CHL1   C20 6674   2.417   4.144   9.382  0.1987  0.2046 -0.1336
   57CHL1   H20 6675   2.427   4.035   9.401 -0.4635  0.1239 -0.2215
   57CHL1   C21 6676   2.540   4.214   9.451 -0.1509  0.2583  0.5708
   57CHL1  H21A 6677   2.571   4.173   9.549  2.4784 -1.2160 -0.7602
   57CHL1  H21B 6678   2.517   4.320   9.471 -0.0366  0.5281 -0.6271
   57CHL1  H21C 6679   2.628   4.217   9.384  0.0552 -0.4494  0.8052
   57CHL1   C22 6680   2.412   4.153   9.229  0.5144 -0.7390  0.0959
   57CHL1  H22A 6681   2.324   4.099   9.187 -0.3833  1.3967 -0.9772
   57CHL1  H22B 6682   2.394   4.261   9.207 -1.1137 -0.7433  1.2477
   57CHL1   C23 6683   2.525   4.082   9.160 -0.1567 -0.1563  0.0153
   57CHL1  H23A 6684   2.604   4.152   9.194  0.7102 -1.7993  1.5554
   57CHL1  H23B 6685   2.539   3.977   9.193 -0.4637 -0.2328 -0.0875
   57CHL1   C24 6686   2.528   4.078   9.000  0.2549  0.1246 -0.2223
   57CHL1  H24A 6687   2.456   3.997   8.975 -2.3940  1.4136  2.5398
   57CHL1  H24B 6688   2.490   4.181   8.982  0.3798  0.1295 -0.4507
   57CHL1   C25 6689   2.667   4.078   8.939 -0.7189  0.5156  0.5298
   57CHL1   H25 6690   2.650   4.098   8.831 -2.3638  2.2284  1.0612
   57CHL1   C26 6691   2.751   4.200   8.986 -0.1039 -0.4361  0.0029
   57CHL1  H26A 6692   2.780   4.205   9.094  1.1679  1.3050 -0.3717
   57CHL1  H26B 6693   2.851   4.199   8.938  0.7113 -0.4639  1.6291
   57CHL1  H26C 6694   2.700   4.294   8.957  0.4061  0.2532  1.2241
   57CHL1   C27 6695   2.733   3.945   8.952  0.0915 -0.2931  0.5135
   57CHL1  H27A 6696   2.836   3.935   8.910 -0.7791  0.8200 -2.0704
   57CHL1  H27B 6697   2.751   3.921   9.059 -2.2528 -1.1834  0.7491
   57CHL1  H27C 6698   2.683   3.855   8.912 -0.6558  0.1908  0.3456
   58CHL1    C3 6699   4.472   3.130  10.183 -0.4064  0.7808 -0.0363
   58CHL1    H3 6700   4.526   3.036  10.158 -3.2997 -0.9254 -0.4179
   58CHL1    O3 6701   4.470   3.171  10.321 -0.0667 -0.0071 -0.3146
   58CHL1   H3' 6702   4.378   3.165  10.347  0.4197 -0.3022  1.4592
   58CHL1    C4 6703   4.524   3.245  10.101 -0.0910 -0.9359  1.0421
   58CHL1   H4A 6704   4.472   3.340  10.125 -0.1072 -0.5292 -0.5395
   58CHL1   H4B 6705   4.629   3.267  10.131 -0.1332  0.7538  0.1023
   58CHL1    C5 6706   4.521   3.220   9.951  0.4682  0.0590  0.5993
   58CHL1    C6 6707   4.627   3.218   9.873 -0.6229 -0.8663 -0.5886
   58CHL1    H6 6708   4.717   3.248   9.929 -0.8159 -3.3985  1.2360
   58CHL1    C7 6709   4.631   3.185   9.733  0.0751 -0.1500 -0.3711
   58CHL1   H7A 6710   4.701   3.247   9.674  2.3928  0.0134  2.3559
   58CHL1   H7B 6711   4.670   3.082   9.715  0.3828  0.0173 -0.6721
   58CHL1    C8 6712   4.495   3.178   9.657 -0.4548 -0.0781 -0.6375
   58CHL1    H8 6713   4.452   3.279   9.636 -0.0841 -0.1802 -1.9823
   58CHL1   C14 6714   4.490   3.098   9.529 -0.0391  0.3937 -0.3324
   58CHL1   H14 6715   4.493   2.989   9.554 -0.8349 -0.0041 -1.8586
   58CHL1   C15 6716   4.584   3.135   9.416 -0.1211  0.3756 -1.1188
   58CHL1  H15A 6717   4.586   3.241   9.386  0.6749  0.3910 -1.0260
   58CHL1  H15B 6718   4.687   3.101   9.439 -0.0381  1.0054 -0.5473
   58CHL1   C16 6719   4.541   3.055   9.293  0.2314  0.0843  0.2083
   58CHL1  H16A 6720   4.563   3.108   9.198 -2.5629 -0.8572 -1.0477
   58CHL1  H16B 6721   4.591   2.956   9.295  2.2764  0.8436 -3.5028
   58CHL1   C17 6722   4.389   3.024   9.316 -0.7226 -0.0742  0.5252
   58CHL1   H17 6723   4.378   2.916   9.340 -2.9817  0.0361  0.1305
   58CHL1   C13 6724   4.351   3.095   9.451 -0.2554 -0.6809  0.0557
   58CHL1   C18 6725   4.306   3.242   9.417 -0.1314 -0.4347  0.0981
   58CHL1  H18A 6726   4.379   3.290   9.348  0.0414  0.9684  1.2018
   58CHL1  H18B 6727   4.214   3.249   9.354  1.4908  1.3488 -2.2837
   58CHL1  H18C 6728   4.278   3.302   9.507 -1.2294 -0.2598 -0.3396
   58CHL1   C12 6729   4.254   3.023   9.547 -0.1778  0.2503 -0.2857
   58CHL1  H12A 6730   4.150   3.022   9.510  0.2188 -2.5064 -1.6032
   58CHL1  H12B 6731   4.291   2.922   9.577  1.5254  0.5473 -1.2312
   58CHL1   C11 6732   4.250   3.099   9.687  0.4820 -0.5561 -0.3928
   58CHL1  H11A 6733   4.196   3.193   9.666 -3.2757 -2.2638  0.7786
   58CHL1  H11B 6734   4.192   3.032   9.754  0.1515 -2.4502 -2.4340
   58CHL1    C9 6735   4.393   3.111   9.750  0.7266 -0.4530  0.1881
   58CHL1    H9 6736   4.420   3.003   9.758  3.3670 -0.2369 -3.3746
   58CHL1   C10 6737   4.388   3.171   9.895 -0.0885 -0.1537 -0.8422
   58CHL1   C19 6738   4.304   3.303   9.891  0.1353 -0.1933  0.3332
   58CHL1  H19A 6739   4.199   3.289   9.858  0.3268 -0.1882 -0.2835
   58CHL1  H19B 6740   4.288   3.352   9.990 -0.5178 -2.8449  1.6209
   58CHL1  H19C 6741   4.355   3.374   9.822 -0.4118  0.4027  0.5273
   58CHL1    C1 6742   4.330   3.061   9.991  0.2038 -0.7210  0.1442
   58CHL1   H1A 6743   4.225   3.059   9.954  0.0938 -1.7063  0.4680
   58CHL1   H1B 6744   4.378   2.963   9.968  0.5074 -0.3454 -0.8498
   58CHL1    C2 6745   4.330   3.098  10.138  0.1054 -0.6545 -0.4872
   58CHL1   H2A 6746   4.290   3.015  10.200 -1.2505 -0.7024 -1.3714
   58CHL1   H2B 6747   4.263   3.185  10.156 -0.1651 -1.1307  0.8785
   58CHL1   C20 6748   4.296   3.054   9.191  0.5240 -0.8123  0.0855
   58CHL1   H20 6749   4.272   3.162   9.187  1.8136 -0.4497  1.4066
   58CHL1   C21 6750   4.163   2.976   9.203  0.0070  0.3228  0.1098
   58CHL1  H21A 6751   4.101   3.001   9.114  1.0760 -2.4078 -1.5358
   58CHL1  H21B 6752   4.106   2.997   9.296 -1.1700  4.3966 -1.3159
   58CHL1  H21C 6753   4.179   2.866   9.197 -4.4848 -0.6085  1.5492
   58CHL1   C22 6754   4.358   2.998   9.068 -0.6261  0.4945  0.8135
   58CHL1  H22A 6755   4.461   3.035   9.050 -0.5718 -0.8971 -2.3298
   58CHL1  H22B 6756   4.357   2.888   9.075  0.1241  0.4954  1.0736
   58CHL1   C23 6757   4.284   3.025   8.941 -0.0340  0.3351 -0.1992
   58CHL1  H23A 6758   4.189   2.969   8.940  0.7507 -1.0432  0.0940
   58CHL1  H23B 6759   4.261   3.134   8.939 -0.0246  0.3268 -1.1698
   58CHL1   C24 6760   4.361   2.981   8.814 -0.3672 -0.0243 -0.0214
   58CHL1  H24A 6761   4.468   3.010   8.808 -0.7938  1.7946  0.5826
   58CHL1  H24B 6762   4.371   2.871   8.825  1.2316  0.1896  1.0484
   58CHL1   C25 6763   4.300   3.004   8.680  0.2516  0.0042 -0.3218
   58CHL1   H25 6764   4.190   3.000   8.695  0.1363 -2.1210 -1.3957
   58CHL1   C26 6765   4.334   3.150   8.636 -0.5836  0.3307  0.1269
   58CHL1  H26A 6766   4.444   3.154   8.618 -1.0399  0.7348 -3.0868
   58CHL1  H26B 6767   4.287   3.168   8.537  0.3927 -1.9333 -0.8142
   58CHL1  H26C 6768   4.293   3.229   8.703  1.2191  0.3513  1.3006
   58CHL1   C27 6769   4.329   2.901   8.573 -0.6650 -0.0798  0.1804
   58CHL1  H27A 6770   4.276   2.803   8.576  0.6621 -0.8176 -0.0051
   58CHL1  H27B 6771   4.305   2.947   8.475  0.5158 -0.8141 -0.4741
   58CHL1  H27C 6772   4.436   2.875   8.575 -1.5198 -4.1560  1.2173
   59CHL1    C3 6773   5.254   1.192  10.331 -0.2364 -0.1794  0.2993
   59CHL1    H3 6774   5.340   1.124  10.314 -0.0189  0.6549 -2.5385
   59CHL1    O3 6775   5.222   1.204  10.472 -0.5640  0.0230  0.3241
   59CHL1   H3' 6776   5.136   1.247  10.471 -1.3202 -1.3683 -2.0883
   59CHL1    C4 6777   5.292   1.327  10.278 -0.0934  0.2515 -0.0301
   59CHL1   H4A 6778   5.210   1.402  10.284 -0.3747 -0.1586  1.7055
   59CHL1   H4B 6779   5.373   1.373  10.339 -0.0163  2.1346 -1.4533
   59CHL1    C5 6780   5.326   1.313  10.133 -0.8432  0.4499 -0.5828
   59CHL1    C6 6781   5.443   1.347  10.081  0.3147  0.0556  0.1659
   59CHL1    H6 6782   5.524   1.383  10.147  1.2000 -0.9638 -0.3281
   59CHL1    C7 6783   5.479   1.348   9.926  0.1123  0.7402 -0.0059
   59CHL1   H7A 6784   5.536   1.441   9.906  0.9522  0.1533 -0.3684
   59CHL1   H7B 6785   5.541   1.257   9.911 -0.4868  0.4322 -0.6489
   59CHL1    C8 6786   5.354   1.345   9.844  0.2151  0.1856 -0.8307
   59CHL1    H8 6787   5.307   1.444   9.864  3.3316  1.7564 -0.5457
   59CHL1   C14 6788   5.377   1.322   9.697 -0.4634  0.0657  0.7125
   59CHL1   H14 6789   5.434   1.227   9.705  0.3872  0.6618  2.0930
   59CHL1   C15 6790   5.459   1.428   9.621  0.2736  0.2526  0.2803
   59CHL1  H15A 6791   5.416   1.527   9.647  1.1254  0.6520  0.2109
   59CHL1  H15B 6792   5.564   1.429   9.659  0.7894 -1.8382 -0.9018
   59CHL1   C16 6793   5.446   1.391   9.479  0.6873 -0.5617  0.0959
   59CHL1  H16A 6794   5.438   1.479   9.411  3.5107 -0.6700 -0.5107
   59CHL1  H16B 6795   5.535   1.332   9.448 -1.4108 -2.8836 -1.9241
   59CHL1   C17 6796   5.329   1.290   9.468  1.1738  0.8934 -0.3894
   59CHL1   H17 6797   5.374   1.189   9.456  0.7782  0.9302 -2.5219
   59CHL1   C13 6798   5.258   1.295   9.605  0.5148 -0.5114  0.9833
   59CHL1   C18 6799   5.154   1.415   9.601 -0.1900  0.3538 -0.3490
   59CHL1  H18A 6800   5.068   1.374   9.544 -0.5549  1.2086 -0.4357
   59CHL1  H18B 6801   5.117   1.438   9.704 -0.0614 -1.0743  0.0432
   59CHL1  H18C 6802   5.205   1.503   9.558 -1.1715  2.4886  2.4736
   59CHL1   C12 6803   5.195   1.164   9.644 -0.3866  0.2895 -0.3104
   59CHL1  H12A 6804   5.103   1.140   9.587  0.2564  0.0663 -1.2702
   59CHL1  H12B 6805   5.263   1.081   9.616  0.6503  1.5621 -1.6923
   59CHL1   C11 6806   5.152   1.172   9.794 -0.3313 -0.0352 -0.0197
   59CHL1  H11A 6807   5.061   1.234   9.804  0.4848  1.1071  0.5829
   59CHL1  H11B 6808   5.117   1.069   9.815  0.7051 -0.7282 -1.5304
   59CHL1    C9 6809   5.263   1.229   9.896  0.0748 -0.2092 -0.8376
   59CHL1    H9 6810   5.337   1.148   9.916  0.4647  0.3487  0.0252
   59CHL1   C10 6811   5.211   1.256  10.044  0.2398  0.3981 -0.7100
   59CHL1   C19 6812   5.094   1.359  10.040  0.0470 -0.1946 -0.4259
   59CHL1  H19A 6813   4.992   1.317  10.029 -0.5411  1.5777 -2.3627
   59CHL1  H19B 6814   5.076   1.401  10.141 -0.0094  2.9588 -1.6266
   59CHL1  H19C 6815   5.110   1.437   9.962  0.8403  0.6294  0.5179
   59CHL1    C1 6816   5.161   1.123  10.108  0.1975  0.3723  0.6175
   59CHL1   H1A 6817   5.067   1.098  10.055  0.8652  1.6239 -1.2312
   59CHL1   H1B 6818   5.234   1.040  10.094 -0.4489 -0.5421  2.3130
   59CHL1    C2 6819   5.127   1.137  10.257  0.2657 -0.0420  0.0085
   59CHL1   H2A 6820   5.089   1.044  10.303 -0.3332 -0.2316 -0.8439
   59CHL1   H2B 6821   5.039   1.202  10.277  0.9276  0.6302  0.8332
   59CHL1   C20 6822   5.243   1.300   9.339  0.2402  0.2001  0.0214
   59CHL1   H20 6823   5.139   1.265   9.357  1.3076 -2.6701  1.2232
   59CHL1   C21 6824   5.296   1.203   9.234 -0.5718 -0.3230 -0.4601
   59CHL1  H21A 6825   5.309   1.107   9.288 -4.9308  1.4964  4.6786
   59CHL1  H21B 6826   5.397   1.228   9.193  0.3965 -1.4374  1.1373
   59CHL1  H21C 6827   5.226   1.175   9.152 -1.3569 -0.1622  0.1453
   59CHL1   C22 6828   5.242   1.442   9.280  0.1617 -0.0065 -0.2607
   59CHL1  H22A 6829   5.228   1.526   9.352  0.4028 -1.0742  1.0625
   59CHL1  H22B 6830   5.343   1.464   9.239 -0.0394  0.5587 -0.4676
   59CHL1   C23 6831   5.141   1.472   9.173  0.4547  0.6399 -0.3992
   59CHL1  H23A 6832   5.181   1.562   9.121  0.4681  0.7158 -0.2609
   59CHL1  H23B 6833   5.145   1.392   9.097 -1.2918  1.9616 -1.9722
   59CHL1   C24 6834   4.993   1.504   9.212  0.0147 -0.6997  0.4853
   59CHL1  H24A 6835   4.962   1.429   9.288  0.9129  1.6961  3.3680
   59CHL1  H24B 6836   4.987   1.602   9.262  0.2772 -0.4715  0.0783
   59CHL1   C25 6837   4.895   1.499   9.095 -0.3202  0.2432  0.6668
   59CHL1   H25 6838   4.893   1.392   9.066  0.6318  0.1608  0.8806
   59CHL1   C26 6839   4.756   1.547   9.129 -0.2413  1.1362  0.2977
   59CHL1  H26A 6840   4.724   1.476   9.209  2.3790  0.6825  1.0172
   59CHL1  H26B 6841   4.763   1.639   9.191  0.6727 -0.1878  2.2513
   59CHL1  H26C 6842   4.688   1.551   9.041 -1.8561  2.2109  1.5179
   59CHL1   C27 6843   4.952   1.580   8.973 -0.2041 -0.0147 -0.4584
   59CHL1  H27A 6844   4.871   1.615   8.905  0.2881  2.8873  0.3107
   59CHL1  H27B 6845   4.996   1.672   9.017 -1.6145  0.0098  1.0136
   59CHL1  H27C 6846   5.027   1.517   8.921 -0.3214 -2.2748  1.9054
   60CHL1    C3 6847   4.876   6.596  10.278 -0.3663 -0.4502 -0.0772
   60CHL1    H3 6848   4.893   6.705  10.265 -0.0670 -0.5807 -0.7980
   60CHL1    O3 6849   4.860   6.561  10.415 -0.0686 -0.1729 -0.6145
   60CHL1   H3' 6850   4.782   6.507  10.422  1.4516 -2.6629 -1.5893
   60CHL1    C4 6851   4.745   6.567  10.208 -0.2824  0.7199 -0.6805
   60CHL1   H4A 6852   4.725   6.461  10.236  1.6555  0.2377 -0.9551
   60CHL1   H4B 6853   4.667   6.629  10.258  0.4071  0.1712  1.1784
   60CHL1    C5 6854   4.756   6.595  10.063  0.1901 -1.0597 -0.7681
   60CHL1    C6 6855   4.677   6.686   9.996  0.2601 -0.0892  0.5849
   60CHL1    H6 6856   4.594   6.738  10.047 -1.3525  0.3754 -2.2591
   60CHL1    C7 6857   4.683   6.701   9.844 -0.3816 -0.4529 -0.2536
   60CHL1   H7A 6858   4.576   6.702   9.814 -0.2462  1.2967 -0.8069
   60CHL1   H7B 6859   4.725   6.800   9.817 -0.3985 -0.6260 -0.9380
   60CHL1    C8 6860   4.758   6.594   9.775 -0.5340  0.1941 -0.3494
   60CHL1    H8 6861   4.698   6.500   9.773 -1.5837  0.8474 -0.5771
   60CHL1   C14 6862   4.787   6.640   9.640  0.0583  0.5604  0.9150
   60CHL1   H14 6863   4.854   6.728   9.655  0.0673  0.9390 -1.1371
   60CHL1   C15 6864   4.671   6.706   9.552 -1.0724  0.1675 -0.4249
   60CHL1  H15A 6865   4.583   6.638   9.552 -0.4300 -0.6953 -1.5060
   60CHL1  H15B 6866   4.644   6.803   9.598  0.6622  0.9358 -0.9415
   60CHL1   C16 6867   4.747   6.733   9.420  0.2760  0.4033 -1.2376
   60CHL1  H16A 6868   4.677   6.707   9.339 -1.7046 -2.9896  1.2786
   60CHL1  H16B 6869   4.783   6.838   9.421  3.4974 -0.5331  1.9337
   60CHL1   C17 6870   4.871   6.637   9.428  0.1246  0.4116  0.4340
   60CHL1   H17 6871   4.949   6.711   9.456 -0.5914  2.4562 -2.5637
   60CHL1   C13 6872   4.867   6.552   9.555  0.0671  0.3847 -1.0074
   60CHL1   C18 6873   4.780   6.434   9.530 -0.0667  0.0819 -0.1939
   60CHL1  H18A 6874   4.843   6.359   9.477  0.5071 -0.9921  1.9114
   60CHL1  H18B 6875   4.742   6.392   9.625 -3.0249 -0.0091 -1.3063
   60CHL1  H18C 6876   4.693   6.457   9.465 -0.8407 -2.1703 -0.0570
   60CHL1   C12 6877   5.001   6.509   9.615 -0.2014 -0.7869 -0.3058
   60CHL1  H12A 6878   5.041   6.422   9.559 -0.0575  0.0230 -1.4782
   60CHL1  H12B 6879   5.076   6.590   9.610 -0.0381 -1.0383 -2.8030
   60CHL1   C11 6880   4.979   6.462   9.759  0.2896  0.1460 -0.3632
   60CHL1  H11A 6881   4.930   6.362   9.753 -0.5256  0.2856  2.3796
   60CHL1  H11B 6882   5.079   6.451   9.804  0.4276 -1.5223 -1.0194
   60CHL1    C9 6883   4.891   6.557   9.843  0.0349 -0.9877  0.0625
   60CHL1    H9 6884   4.948   6.653   9.847  0.4683 -1.2681  2.0884
   60CHL1   C10 6885   4.865   6.514   9.992  0.1171  0.2128  0.3471
   60CHL1   C19 6886   4.818   6.369   9.990  0.1400  0.3070  0.0126
   60CHL1  H19A 6887   4.896   6.292   9.976  0.5033  0.4513  1.1722
   60CHL1  H19B 6888   4.767   6.344  10.085 -4.0354 -2.1072 -2.5170
   60CHL1  H19C 6889   4.727   6.364   9.926  0.4620  1.0706 -0.5250
   60CHL1    C1 6890   4.999   6.510  10.071 -0.3458 -0.0411  0.4365
   60CHL1   H1A 6891   5.058   6.431  10.019 -0.4733  1.4388 -2.1802
   60CHL1   H1B 6892   5.054   6.601  10.039 -0.4347 -0.9267 -2.6521
   60CHL1    C2 6893   4.986   6.503  10.225  0.4742  0.0130  0.1845
   60CHL1   H2A 6894   5.085   6.526  10.270  0.7255  0.8533 -0.7495
   60CHL1   H2B 6895   4.949   6.402  10.253  1.2535 -0.3476 -0.0535
   60CHL1   C20 6896   4.916   6.563   9.301  0.3600 -0.1700  0.6837
   60CHL1   H20 6897   4.991   6.483   9.319 -0.3120 -1.3647 -1.4760
   60CHL1   C21 6898   4.996   6.676   9.228  0.0479 -0.1896  0.7279
   60CHL1  H21A 6899   5.070   6.730   9.292 -1.7714  2.4822  0.7487
   60CHL1  H21B 6900   4.941   6.764   9.188  3.1361  1.5591 -0.0443
   60CHL1  H21C 6901   5.054   6.626   9.148 -2.2080 -0.7326 -0.6672
   60CHL1   C22 6902   4.808   6.502   9.205 -0.5870 -0.1078 -0.4428
   60CHL1  H22A 6903   4.728   6.456   9.267  0.4911  0.1544  1.2192
   60CHL1  H22B 6904   4.761   6.588   9.152  0.1200  0.8562  0.4281
   60CHL1   C23 6905   4.853   6.406   9.098  0.1511  0.3836  0.1167
   60CHL1  H23A 6906   4.939   6.435   9.034 -1.1740 -2.2813 -3.1765
   60CHL1  H23B 6907   4.887   6.314   9.149  1.7876  0.9678  0.1318
   60CHL1   C24 6908   4.753   6.368   8.980  0.3255  0.7448  0.0698
   60CHL1  H24A 6909   4.659   6.330   9.025  0.4217  0.7429  0.2748
   60CHL1  H24B 6910   4.722   6.461   8.929  1.2148  1.8475  1.4585
   60CHL1   C25 6911   4.806   6.273   8.875 -0.0248  0.0689  0.4493
   60CHL1   H25 6912   4.903   6.314   8.839 -0.4870  0.5090 -0.3120
   60CHL1   C26 6913   4.835   6.138   8.943 -0.3026 -0.6322 -0.3085
   60CHL1  H26A 6914   4.912   6.166   9.019 -3.0087 -0.0386  2.3938
   60CHL1  H26B 6915   4.744   6.110   8.999 -0.1601 -1.2048 -0.3571
   60CHL1  H26C 6916   4.873   6.059   8.875  1.1398  0.0291 -0.3292
   60CHL1   C27 6917   4.708   6.251   8.763  0.1885  0.2701 -0.1173
   60CHL1  H27A 6918   4.664   6.345   8.724  0.9544 -0.6308 -3.4793
   60CHL1  H27B 6919   4.757   6.212   8.672  4.0114  0.4969  1.6758
   60CHL1  H27C 6920   4.612   6.197   8.783 -0.8849  1.0061 -2.8314
   61CHL1    C3 6921   0.909   6.426  10.162  0.2117 -0.2095 -0.5947
   61CHL1    H3 6922   0.812   6.468  10.129  0.2358  0.0079 -0.3921
   61CHL1    O3 6923   0.904   6.413  10.303 -0.2904  0.1592  0.2024
   61CHL1   H3' 6924   0.844   6.480  10.336  0.6753  1.0792  0.1260
   61CHL1    C4 6925   0.938   6.292  10.084  0.2803  0.2771 -0.4126
   61CHL1   H4A 6926   1.027   6.245  10.130  0.3133  0.7089 -0.0268
   61CHL1   H4B 6927   0.850   6.225  10.097  1.0818 -0.7193 -0.0803
   61CHL1    C5 6928   0.961   6.314   9.931 -0.1886 -0.3039 -0.2102
   61CHL1    C6 6929   0.896   6.241   9.841 -0.0630  0.1467 -0.0602
   61CHL1    H6 6930   0.827   6.161   9.871  0.3830 -0.1491  0.1862
   61CHL1    C7 6931   0.932   6.258   9.694 -0.5399  0.1019  0.5423
   61CHL1   H7A 6932   0.960   6.158   9.654 -3.5269 -1.5624  2.2212
   61CHL1   H7B 6933   0.838   6.280   9.638  0.3619 -1.1661 -1.5946
   61CHL1    C8 6934   1.047   6.355   9.652 -0.0018  0.1380 -0.0718
   61CHL1    H8 6935   1.139   6.293   9.660 -0.0484 -0.2251 -1.9237
   61CHL1   C14 6936   1.031   6.407   9.503 -0.5222 -0.1999  0.2041
   61CHL1   H14 6937   0.941   6.472   9.507 -0.1863  0.2068  1.8199
   61CHL1   C15 6938   1.000   6.303   9.395 -0.1852 -0.1835 -0.2863
   61CHL1  H15A 6939   1.063   6.214   9.415 -0.4801 -0.1568  0.8155
   61CHL1  H15B 6940   0.897   6.263   9.396 -0.0377 -0.8983 -3.5385
   61CHL1   C16 6941   1.044   6.377   9.268  0.0551 -0.1156  0.9879
   61CHL1  H16A 6942   1.124   6.322   9.213  0.6793  2.2118 -0.5962
   61CHL1  H16B 6943   0.949   6.386   9.212  1.0385 -1.8900 -1.0776
   61CHL1   C17 6944   1.100   6.516   9.311  0.1584 -0.1327 -0.3213
   61CHL1   H17 6945   1.017   6.589   9.303  1.1672  0.9001 -1.9856
   61CHL1   C13 6946   1.147   6.501   9.462  0.2518  0.6453  0.2735
   61CHL1   C18 6947   1.284   6.430   9.474 -0.1308  0.0682  0.5600
   61CHL1  H18A 6948   1.363   6.504   9.448  0.0797 -1.1027 -2.4859
   61CHL1  H18B 6949   1.303   6.396   9.578  2.2844  2.0110  0.8569
   61CHL1  H18C 6950   1.297   6.354   9.394 -0.3832  1.7763 -1.1832
   61CHL1   C12 6951   1.140   6.626   9.557  0.2917  0.4628 -0.5143
   61CHL1  H12A 6952   1.209   6.709   9.534  3.0059 -1.3535  0.6359
   61CHL1  H12B 6953   1.036   6.661   9.538  0.0399 -0.2117 -0.4072
   61CHL1   C11 6954   1.161   6.585   9.710  0.1410  1.3741 -0.1789
   61CHL1  H11A 6955   1.262   6.553   9.740 -0.5231 -1.0777 -0.3769
   61CHL1  H11B 6956   1.140   6.685   9.756  0.5986  2.0672 -1.4265
   61CHL1    C9 6957   1.060   6.469   9.751  0.2983  0.6359 -0.5695
   61CHL1    H9 6958   0.965   6.525   9.737  0.1007  0.6964  0.8900
   61CHL1   C10 6959   1.070   6.422   9.901  0.4010 -0.5819  0.0328
   61CHL1   C19 6960   1.209   6.349   9.916 -0.1939 -0.1205  0.0010
   61CHL1  H19A 6961   1.290   6.415   9.877 -1.0876  1.2640  0.4013
   61CHL1  H19B 6962   1.216   6.330  10.025 -1.3325 -0.9148 -0.0473
   61CHL1  H19C 6963   1.212   6.251   9.863 -2.0251  0.9651 -2.3107
   61CHL1    C1 6964   1.058   6.552   9.986  0.0331 -0.5278 -0.0613
   61CHL1   H1A 6965   1.144   6.621   9.982 -0.2949 -0.1577 -1.2327
   61CHL1   H1B 6966   0.972   6.607   9.942 -0.3992 -0.8846  0.3258
   61CHL1    C2 6967   1.024   6.528  10.135  0.0170  0.0452 -0.0346
   61CHL1   H2A 6968   0.987   6.622  10.180  0.2336  0.7892 -1.3821
   61CHL1   H2B 6969   1.119   6.494  10.180  1.3680 -0.1744 -2.8328
   61CHL1   C20 6970   1.210   6.560   9.217  0.0626 -0.1495  0.5467
   61CHL1   H20 6971   1.288   6.482   9.204  0.4627  0.4504 -0.8131
   61CHL1   C21 6972   1.268   6.701   9.249  0.1049 -0.3235 -0.6144
   61CHL1  H21A 6973   1.341   6.741   9.175 -0.0379 -0.7168 -0.9709
   61CHL1  H21B 6974   1.335   6.699   9.338  0.0479  1.7975 -0.4678
   61CHL1  H21C 6975   1.181   6.770   9.256 -0.1826 -0.7047 -0.3929
   61CHL1   C22 6976   1.157   6.578   9.072  0.6135 -0.5874 -0.1463
   61CHL1  H22A 6977   1.129   6.472   9.054 -1.7358 -0.4782  2.3057
   61CHL1  H22B 6978   1.068   6.645   9.063  2.4649  1.9953 -0.3454
   61CHL1   C23 6979   1.253   6.617   8.961 -0.1012  0.8368 -0.4502
   61CHL1  H23A 6980   1.262   6.727   8.960  0.7611  0.8252  1.8826
   61CHL1  H23B 6981   1.348   6.561   8.978 -2.2038 -2.5804  1.2232
   61CHL1   C24 6982   1.199   6.559   8.833 -0.5805 -0.3015  0.3112
   61CHL1  H24A 6983   1.198   6.448   8.838  0.4863 -0.2746  1.7229
   61CHL1  H24B 6984   1.094   6.593   8.820 -0.6860  0.1505  2.0578
   61CHL1   C25 6985   1.271   6.607   8.705 -0.6452  0.0212  0.5575
   61CHL1   H25 6986   1.228   6.561   8.613 -0.4006  1.0135 -0.0739
   61CHL1   C26 6987   1.243   6.757   8.698  0.2572 -0.2701  0.6500
   61CHL1  H26A 6988   1.332   6.808   8.741 -0.4917  0.3518  1.4993
   61CHL1  H26B 6989   1.226   6.786   8.592 -1.5678 -0.4433  0.8723
   61CHL1  H26C 6990   1.143   6.784   8.738  0.6061 -1.6545  2.5993
   61CHL1   C27 6991   1.417   6.574   8.690  0.2195  0.6980 -0.0120
   61CHL1  H27A 6992   1.490   6.609   8.766  0.4860  0.5399 -0.1945
   61CHL1  H27B 6993   1.432   6.465   8.677 -1.9268  0.5340 -1.6853
   61CHL1  H27C 6994   1.457   6.618   8.596  0.5835 -0.0810 -0.2255
   62CHL1    C3 6995   1.546   3.240   9.998  0.1446 -0.0314  0.4326
   62CHL1    H3 6996   1.622   3.318   9.977 -1.1057  1.5265  1.4762
   62CHL1    O3 6997   1.551   3.254  10.134  0.1504  0.3212 -0.2013
   62CHL1   H3' 6998   1.489   3.192  10.173  1.3908 -0.6205  0.3166
   62CHL1    C4 6999   1.411   3.260   9.938  0.1791 -0.3488  1.3866
   62CHL1   H4A 7000   1.335   3.187   9.974 -0.5702 -0.1670  0.2432
   62CHL1   H4B 7001   1.363   3.358   9.960 -0.5154 -0.8074  1.9600
   62CHL1    C5 7002   1.434   3.258   9.785 -0.1879 -0.1882 -0.4314
   62CHL1    C6 7003   1.397   3.368   9.708  0.7673 -0.1167 -0.1870
   62CHL1    H6 7004   1.344   3.449   9.760 -0.0707 -1.6628  1.4629
   62CHL1    C7 7005   1.398   3.371   9.562  1.3158  0.0550 -0.0526
   62CHL1   H7A 7006   1.306   3.402   9.509  1.2456 -0.0714 -0.0053
   62CHL1   H7B 7007   1.477   3.445   9.536  1.3394 -0.2819 -0.9343
   62CHL1    C8 7008   1.439   3.238   9.501  0.2785 -0.2649  0.2508
   62CHL1    H8 7009   1.345   3.179   9.507 -0.1669  0.5508  1.5864
   62CHL1   C14 7010   1.476   3.269   9.356 -0.1611  0.0469 -0.5424
   62CHL1   H14 7011   1.567   3.332   9.366 -0.5031  0.5231 -0.3823
   62CHL1   C15 7012   1.383   3.354   9.270  0.1226  0.6154  0.6889
   62CHL1  H15A 7013   1.276   3.335   9.289 -0.1771 -1.0812 -2.0620
   62CHL1  H15B 7014   1.400   3.463   9.283 -0.9326  0.7631  0.8879
   62CHL1   C16 7015   1.415   3.300   9.127  0.5258 -0.0273 -0.0960
   62CHL1  H16A 7016   1.329   3.240   9.091  1.0725 -0.9835  0.1530
   62CHL1  H16B 7017   1.431   3.379   9.050 -0.0924 -0.6557 -0.8853
   62CHL1   C17 7018   1.535   3.200   9.145 -0.1176  0.4588  1.2776
   62CHL1   H17 7019   1.621   3.269   9.137  0.1598 -0.0352 -0.4402
   62CHL1   C13 7020   1.522   3.145   9.286 -0.4963 -0.2661  0.3893
   62CHL1   C18 7021   1.421   3.028   9.279 -0.1550 -0.1552 -0.1739
   62CHL1  H18A 7022   1.449   2.955   9.200 -0.1074 -0.4698  0.1315
   62CHL1  H18B 7023   1.404   2.976   9.376 -0.9171 -1.3487 -0.9123
   62CHL1  H18C 7024   1.321   3.064   9.248 -0.9643 -1.9004  0.2519
   62CHL1   C12 7025   1.650   3.100   9.350  0.7937 -0.5578  0.0063
   62CHL1  H12A 7026   1.682   3.017   9.283 -1.3470  0.1752 -2.0743
   62CHL1  H12B 7027   1.721   3.185   9.349 -0.5100  0.5809 -2.4037
   62CHL1   C11 7028   1.634   3.056   9.496  0.1404  0.6962 -0.4437
   62CHL1  H11A 7029   1.571   2.965   9.495  0.1513  0.5116  2.7727
   62CHL1  H11B 7030   1.727   3.037   9.553  1.2081  1.3085 -1.9215
   62CHL1    C9 7031   1.553   3.170   9.582  0.3095 -0.6083  0.1555
   62CHL1    H9 7032   1.634   3.245   9.599 -0.4920  0.6761 -1.3807
   62CHL1   C10 7033   1.502   3.138   9.722 -0.4123  0.6727 -0.0684
   62CHL1   C19 7034   1.409   3.013   9.723 -0.3446  0.0608  0.4968
   62CHL1  H19A 7035   1.328   3.029   9.650 -0.3222  0.5073  0.5691
   62CHL1  H19B 7036   1.469   2.927   9.686  1.5837  1.2128  0.8159
   62CHL1  H19C 7037   1.362   2.982   9.819 -1.2732 -1.5815 -0.4373
   62CHL1    C1 7038   1.626   3.095   9.806  0.6557 -0.0157  0.8452
   62CHL1   H1A 7039   1.656   2.989   9.791  1.2970  0.2710  0.0534
   62CHL1   H1B 7040   1.721   3.151   9.793  0.5798 -0.0362  0.1618
   62CHL1    C2 7041   1.604   3.100   9.963 -0.4208 -0.1576 -0.4088
   62CHL1   H2A 7042   1.697   3.085  10.022 -0.1691 -0.1481 -0.7990
   62CHL1   H2B 7043   1.545   3.006   9.975  2.4661 -1.9168  0.9636
   62CHL1   C20 7044   1.550   3.101   9.029 -0.0696  0.8433 -0.2129
   62CHL1   H20 7045   1.463   3.033   9.015  0.2728  0.4853 -0.5844
   62CHL1   C21 7046   1.690   3.025   9.033 -0.5604  0.4199  0.3915
   62CHL1  H21A 7047   1.709   2.980   8.934  1.1938  0.4764  0.6784
   62CHL1  H21B 7048   1.687   2.940   9.105  0.3069 -0.5670 -0.7199
   62CHL1  H21C 7049   1.779   3.086   9.058 -0.5129  0.5910 -0.1798
   62CHL1   C22 7050   1.552   3.183   8.895  0.4560 -0.1250 -0.8281
   62CHL1  H22A 7051   1.445   3.211   8.894  0.3021 -0.6018  0.4961
   62CHL1  H22B 7052   1.611   3.277   8.896 -0.3460  0.3875 -0.8393
   62CHL1   C23 7053   1.582   3.104   8.766 -0.0526 -0.1871  0.8129
   62CHL1  H23A 7054   1.692   3.100   8.748 -0.3245 -1.1121 -0.9455
   62CHL1  H23B 7055   1.538   3.002   8.774 -1.3669  0.0819 -1.8192
   62CHL1   C24 7056   1.523   3.153   8.636  0.2185 -0.0783 -0.7784
   62CHL1  H24A 7057   1.425   3.101   8.621 -0.2935  1.3091 -2.6370
   62CHL1  H24B 7058   1.495   3.260   8.639 -1.4148 -0.4676  2.7443
   62CHL1   C25 7059   1.612   3.135   8.507 -0.6514 -0.0095  0.5329
   62CHL1   H25 7060   1.708   3.189   8.524 -1.7329  2.7375 -1.2612
   62CHL1   C26 7061   1.634   2.989   8.478  0.4118  0.1132  0.2680
   62CHL1  H26A 7062   1.539   2.931   8.471  1.5203 -1.6696 -0.4698
   62CHL1  H26B 7063   1.702   2.970   8.393  0.2692  3.1730 -0.6484
   62CHL1  H26C 7064   1.688   2.949   8.567 -0.0072  1.7975  1.3360
   62CHL1   C27 7065   1.534   3.191   8.383  0.0121  0.7584  0.5445
   62CHL1  H27A 7066   1.570   3.140   8.291  0.1393  2.0600 -0.1499
   62CHL1  H27B 7067   1.424   3.189   8.396 -0.0982  3.1574  0.5635
   62CHL1  H27C 7068   1.566   3.298   8.382 -0.1634  0.8156 -0.5667
   63CHL1    C3 7069   3.685   6.496  10.433 -0.0795  0.4607 -0.8153
   63CHL1    H3 7070   3.625   6.407  10.405  0.7391 -0.8378  1.3745
   63CHL1    O3 7071   3.697   6.498  10.575 -0.3145 -0.3508  0.3707
   63CHL1   H3' 7072   3.735   6.417  10.609  1.6719  0.4723  0.2572
   63CHL1    C4 7073   3.826   6.480  10.366 -0.0267  0.0417  0.0826
   63CHL1   H4A 7074   3.889   6.552  10.423  0.6823 -0.3990 -0.1366
   63CHL1   H4B 7075   3.864   6.380  10.396  0.7588  0.4259  0.4065
   63CHL1    C5 7076   3.838   6.515  10.221  0.1306 -0.0807  0.0037
   63CHL1    C6 7077   3.925   6.438  10.147 -0.2133 -0.3131  0.0249
   63CHL1    H6 7078   3.982   6.359  10.196  0.3055  1.0450  1.7150
   63CHL1    C7 7079   3.946   6.454   9.997 -0.8794  0.0040 -0.3185
   63CHL1   H7A 7080   4.053   6.469   9.972 -0.4591 -1.6894  0.2630
   63CHL1   H7B 7081   3.912   6.356   9.956  1.8802 -2.1753  2.1369
   63CHL1    C8 7082   3.873   6.577   9.941  0.8635 -0.1836  0.4023
   63CHL1    H8 7083   3.930   6.670   9.962  1.1297 -0.3256  0.3111
   63CHL1   C14 7084   3.858   6.553   9.792 -0.8069 -0.8491  0.2924
   63CHL1   H14 7085   3.806   6.455   9.785 -1.0693 -0.7045  0.1497
   63CHL1   C15 7086   3.994   6.537   9.720 -0.9001  0.6956 -0.3547
   63CHL1  H15A 7087   4.059   6.616   9.763  2.7281 -2.5469  0.8190
   63CHL1  H15B 7088   4.050   6.441   9.731  1.6742  1.8510 -2.1638
   63CHL1   C16 7089   3.964   6.559   9.571  0.2955  0.1702  0.0226
   63CHL1  H16A 7090   4.038   6.632   9.533  0.4278 -0.0976 -0.2412
   63CHL1  H16B 7091   3.970   6.466   9.510 -2.5122  0.3255 -0.6200
   63CHL1   C17 7092   3.821   6.608   9.572  0.0590  1.2020 -0.0299
   63CHL1   H17 7093   3.758   6.519   9.549  1.9440 -0.5603  1.1722
   63CHL1   C13 7094   3.781   6.650   9.711 -0.4147  0.0122  0.6627
   63CHL1   C18 7095   3.835   6.795   9.727  0.4803  0.0386 -0.6105
   63CHL1  H18A 7096   3.867   6.811   9.833 -0.1186 -2.4972  0.0027
   63CHL1  H18B 7097   3.923   6.803   9.660  0.5732  2.0081 -0.3303
   63CHL1  H18C 7098   3.757   6.873   9.711  0.8675  0.1532 -2.0474
   63CHL1   C12 7099   3.637   6.650   9.769  0.2892 -0.4421 -0.1245
   63CHL1  H12A 7100   3.575   6.719   9.708 -0.3533 -2.0159 -1.3354
   63CHL1  H12B 7101   3.594   6.548   9.752 -0.7044 -0.4864  2.2273
   63CHL1   C11 7102   3.636   6.683   9.919 -1.0651 -0.0237  1.1564
   63CHL1  H11A 7103   3.653   6.791   9.939 -1.4218  0.0997  0.8032
   63CHL1  H11B 7104   3.531   6.668   9.950 -2.4375 -1.2990 -3.3255
   63CHL1    C9 7105   3.730   6.590  10.007 -0.0525 -0.7538  0.1001
   63CHL1    H9 7106   3.688   6.488   9.993 -0.4847 -0.2768 -2.5207
   63CHL1   C10 7107   3.746   6.622  10.163 -0.2053  0.7772  0.1921
   63CHL1   C19 7108   3.814   6.751  10.198  0.0505 -0.4445  0.0083
   63CHL1  H19A 7109   3.913   6.767  10.151 -0.5568 -1.0518 -1.5406
   63CHL1  H19B 7110   3.736   6.825  10.168  0.6708 -0.4535 -1.6993
   63CHL1  H19C 7111   3.836   6.765  10.306 -3.2357  1.1912  0.6080
   63CHL1    C1 7112   3.605   6.615  10.229  0.4447 -0.4404  0.4762
   63CHL1   H1A 7113   3.550   6.706  10.194  1.8076  1.2605  2.4805
   63CHL1   H1B 7114   3.551   6.524  10.196 -0.0277 -0.4157  1.1596
   63CHL1    C2 7115   3.617   6.621  10.377 -0.0788  0.1096 -0.4686
   63CHL1   H2A 7116   3.516   6.624  10.423  0.4660  0.6290  0.7483
   63CHL1   H2B 7117   3.664   6.716  10.412 -2.0599  0.1920  2.3006
   63CHL1   C20 7118   3.789   6.698   9.448 -0.4976  0.3090  0.0798
   63CHL1   H20 7119   3.859   6.784   9.458 -0.5047  0.3203  0.0318
   63CHL1   C21 7120   3.653   6.760   9.448  0.5862 -0.4834 -0.5544
   63CHL1  H21A 7121   3.631   6.827   9.362 -0.8610  0.9210  0.8410
   63CHL1  H21B 7122   3.628   6.819   9.539  1.5331 -1.6353  0.5001
   63CHL1  H21C 7123   3.578   6.677   9.448 -0.5981  0.5442  0.2077
   63CHL1   C22 7124   3.817   6.626   9.319  0.1926  0.1788 -0.0557
   63CHL1  H22A 7125   3.910   6.565   9.331 -0.2177 -0.3349  0.5827
   63CHL1  H22B 7126   3.741   6.547   9.301  0.7049  0.1283 -2.4192
   63CHL1   C23 7127   3.839   6.705   9.197 -0.3722 -0.1763  0.3450
   63CHL1  H23A 7128   3.751   6.769   9.174 -0.1871  1.8954  4.5458
   63CHL1  H23B 7129   3.922   6.775   9.221 -0.8321  0.7570 -0.6987
   63CHL1   C24 7130   3.866   6.605   9.077  0.2970 -0.1935  1.3147
   63CHL1  H24A 7131   3.929   6.517   9.104  0.4876 -0.8762 -1.1269
   63CHL1  H24B 7132   3.765   6.564   9.056  0.0196  1.5494 -1.2343
   63CHL1   C25 7133   3.917   6.678   8.943  0.1399  0.3061  0.1589
   63CHL1   H25 7134   3.833   6.748   8.920 -0.8422 -0.8285  0.1660
   63CHL1   C26 7135   4.054   6.748   8.949  0.3861 -0.4563  0.0176
   63CHL1  H26A 7136   4.127   6.688   9.008 -2.0619 -0.4416  3.3133
   63CHL1  H26B 7137   4.095   6.762   8.847  0.1179  1.2639  0.1105
   63CHL1  H26C 7138   4.046   6.848   8.997  0.1987  0.8489 -2.5592
   63CHL1   C27 7139   3.923   6.573   8.835  0.2022  0.2781  0.5505
   63CHL1  H27A 7140   3.959   6.620   8.741 -1.1889  1.0338  0.3728
   63CHL1  H27B 7141   3.985   6.489   8.874  0.4171  1.5774  3.2405
   63CHL1  H27C 7142   3.820   6.535   8.819  0.6872 -1.2602  0.8766
   64CHL1    C3 7143   1.456   4.634  10.101  0.2178  0.0388  0.7330
   64CHL1    H3 7144   1.482   4.526  10.111  0.9812 -0.0261 -1.3020
   64CHL1    O3 7145   1.385   4.674  10.222 -0.1786 -0.8397  0.1281
   64CHL1   H3' 7146   1.443   4.661  10.297  0.1841  1.3268  0.2691
   64CHL1    C4 7147   1.573   4.728  10.064 -0.1407 -0.4666  0.4941
   64CHL1   H4A 7148   1.531   4.830  10.056  0.9135  0.1390  2.1711
   64CHL1   H4B 7149   1.638   4.742  10.153  1.5317 -1.1229 -0.5877
   64CHL1    C5 7150   1.650   4.699   9.942  0.0941 -0.1631 -0.4368
   64CHL1    C6 7151   1.778   4.677   9.942 -0.3313 -0.4430  1.1898
   64CHL1    H6 7152   1.826   4.682  10.041 -2.4261 -1.1929  2.3067
   64CHL1    C7 7153   1.854   4.627   9.822 -0.4501  0.7016 -0.6760
   64CHL1   H7A 7154   1.951   4.681   9.816  1.1612 -2.0468 -1.0812
   64CHL1   H7B 7155   1.884   4.522   9.842  0.4097  0.8259 -1.2427
   64CHL1    C8 7156   1.784   4.641   9.688  0.0422 -0.0608 -0.0466
   64CHL1    H8 7157   1.793   4.748   9.662 -0.2729  0.0086  0.1111
   64CHL1   C14 7158   1.850   4.557   9.577 -0.2396 -0.6677  0.2089
   64CHL1   H14 7159   1.840   4.452   9.610 -0.6558 -0.1730  1.7070
   64CHL1   C15 7160   1.998   4.577   9.553 -0.6038 -0.4062  0.5413
   64CHL1  H15A 7161   2.022   4.686   9.552  1.4206 -0.7652 -2.4175
   64CHL1  H15B 7162   2.055   4.530   9.636 -2.6039 -1.6904  1.2388
   64CHL1   C16 7163   2.030   4.519   9.409  0.1958  0.7810 -0.0014
   64CHL1  H16A 7164   2.063   4.603   9.344 -0.6892  0.7467 -0.5153
   64CHL1  H16B 7165   2.088   4.425   9.400  1.6373  1.6434 -0.1468
   64CHL1   C17 7166   1.887   4.479   9.354 -0.5949 -0.3158 -0.2366
   64CHL1   H17 7167   1.866   4.377   9.391 -1.1810 -0.5388 -1.1490
   64CHL1   C13 7168   1.782   4.565   9.439  0.6141  0.0678 -0.2602
   64CHL1   C18 7169   1.781   4.706   9.385 -0.5094  0.7405 -0.4418
   64CHL1  H18A 7170   1.874   4.762   9.413 -0.8704  0.9399  0.3953
   64CHL1  H18B 7171   1.764   4.706   9.275  0.0529 -2.7453 -0.6387
   64CHL1  H18C 7172   1.699   4.766   9.429 -0.5445 -0.2685  0.9356
   64CHL1   C12 7173   1.640   4.497   9.463 -0.1184 -0.0930  0.6183
   64CHL1  H12A 7174   1.581   4.499   9.369 -2.3985  0.7185  1.9652
   64CHL1  H12B 7175   1.651   4.398   9.511  0.5397 -0.2948  0.0600
   64CHL1   C11 7176   1.567   4.591   9.569  0.2770  0.1622  0.5460
   64CHL1  H11A 7177   1.544   4.693   9.531  1.1604  0.0791 -0.2145
   64CHL1  H11B 7178   1.465   4.548   9.583  0.3242  0.7552  3.3209
   64CHL1    C9 7179   1.640   4.600   9.706  0.3029  0.4160 -0.5795
   64CHL1    H9 7180   1.648   4.493   9.731  1.1832  0.4281 -0.7750
   64CHL1   C10 7181   1.564   4.679   9.818 -0.3173 -0.0194 -0.2247
   64CHL1   C19 7182   1.526   4.821   9.753 -0.3207 -0.8015 -0.4701
   64CHL1  H19A 7183   1.460   4.875   9.825 -0.1046 -0.6773 -0.3662
   64CHL1  H19B 7184   1.614   4.872   9.708  0.3477 -1.2028  0.3571
   64CHL1  H19C 7185   1.459   4.816   9.664 -1.3448  4.0163 -0.2063
   64CHL1    C1 7186   1.432   4.601   9.861  0.2495 -0.1032 -0.4623
   64CHL1   H1A 7187   1.358   4.594   9.779  0.6010  1.3188 -0.9239
   64CHL1   H1B 7188   1.467   4.496   9.877  2.0944  0.2020 -2.0949
   64CHL1    C2 7189   1.359   4.650   9.986 -0.2270 -0.2793 -0.2326
   64CHL1   H2A 7190   1.270   4.588  10.008 -1.1036  1.4447  1.3894
   64CHL1   H2B 7191   1.332   4.754   9.960 -0.2727 -0.2866 -0.2162
   64CHL1   C20 7192   1.880   4.471   9.200  0.5630 -0.6618 -0.4944
   64CHL1   H20 7193   1.905   4.570   9.158  1.2077 -0.7395 -0.2999
   64CHL1   C21 7194   1.740   4.439   9.151  0.1469  0.2911 -0.0699
   64CHL1  H21A 7195   1.712   4.341   9.194  2.6391 -0.3201  0.3259
   64CHL1  H21B 7196   1.726   4.440   9.041 -0.7753 -2.1161 -0.0261
   64CHL1  H21C 7197   1.661   4.508   9.188 -0.0247  0.8395 -1.3945
   64CHL1   C22 7198   1.963   4.355   9.159 -0.0983 -0.7301  0.7026
   64CHL1  H22A 7199   2.067   4.359   9.197  0.0867  0.3793  0.1212
   64CHL1  H22B 7200   1.919   4.267   9.211 -0.4898  1.0625  3.6508
   64CHL1   C23 7201   1.981   4.340   9.007 -0.5939 -0.1973 -0.1367
   64CHL1  H23A 7202   1.879   4.330   8.963 -0.8988 -1.8778  0.8508
   64CHL1  H23B 7203   2.029   4.426   8.956 -0.7099 -0.4207 -0.6349
   64CHL1   C24 7204   2.060   4.214   8.961  0.4857  0.0936 -0.2620
   64CHL1  H24A 7205   2.107   4.245   8.865  1.7471 -0.5262  0.1350
   64CHL1  H24B 7206   2.159   4.205   9.011  0.2460 -3.2283 -0.1659
   64CHL1   C25 7207   1.990   4.079   8.963  0.1623 -0.1112  0.2059
   64CHL1   H25 7208   1.951   4.080   9.067  1.8316 -4.2611  1.0494
   64CHL1   C26 7209   1.885   4.066   8.843 -0.3251 -0.2208 -0.7946
   64CHL1  H26A 7210   1.866   3.960   8.815 -1.1873  0.3052 -2.3364
   64CHL1  H26B 7211   1.790   4.117   8.867  0.5983  2.0339 -1.6960
   64CHL1  H26C 7212   1.921   4.115   8.750 -0.7521  1.3404 -0.1628
   64CHL1   C27 7213   2.096   3.966   8.953  0.1272  0.5452  0.1407
   64CHL1  H27A 7214   2.171   3.975   9.035 -2.0365  2.2203  2.0573
   64CHL1  H27B 7215   2.040   3.872   8.971  0.6967  0.2121  0.1953
   64CHL1  H27C 7216   2.144   3.949   8.854  3.2686  1.1086  1.4461
   65CHL1    C3 7217   5.785   1.087  10.050  0.0246  0.6373  0.1200
   65CHL1    H3 7218   5.675   1.095  10.036 -0.7820 -2.4997  3.2201
   65CHL1    O3 7219   5.807   1.059  10.186  0.1945  0.3472 -0.6229
   65CHL1   H3' 7220   5.781   1.136  10.236  0.5043 -0.6868  1.2281
   65CHL1    C4 7221   5.842   0.967   9.965 -0.5759 -0.3588 -0.2009
   65CHL1   H4A 7222   5.949   0.966   9.993 -0.5375 -1.4913 -0.3505
   65CHL1   H4B 7223   5.798   0.870   9.995 -1.5080 -0.2322 -1.1065
   65CHL1    C5 7224   5.825   0.988   9.815  0.1066 -0.2806  1.1885
   65CHL1    C6 7225   5.766   0.907   9.730 -0.0573 -0.0750  0.2759
   65CHL1    H6 7226   5.733   0.813   9.777  0.7367  0.0700  1.1421
   65CHL1    C7 7227   5.750   0.927   9.582  0.0228  0.0515 -0.1629
   65CHL1   H7A 7228   5.787   0.835   9.533  1.0258  0.0565  0.5463
   65CHL1   H7B 7229   5.643   0.945   9.562  0.3068 -0.0280 -1.9039
   65CHL1    C8 7230   5.835   1.044   9.523  0.2047  0.6694 -0.4514
   65CHL1    H8 7231   5.941   1.012   9.512  0.1310  0.1698  0.2185
   65CHL1   C14 7232   5.770   1.091   9.385 -0.0503 -0.4656 -0.9106
   65CHL1   H14 7233   5.668   1.127   9.411 -0.0141 -2.8360  3.5081
   65CHL1   C15 7234   5.744   0.988   9.272  0.0426  0.4676 -0.2968
   65CHL1  H15A 7235   5.840   0.933   9.265 -0.1588 -0.2841  2.1025
   65CHL1  H15B 7236   5.658   0.919   9.281 -1.0935  1.7250 -1.0522
   65CHL1   C16 7237   5.735   1.077   9.151 -0.6424 -0.1276  0.4257
   65CHL1  H16A 7238   5.813   1.044   9.079 -2.3615 -0.8672 -1.1897
   65CHL1  H16B 7239   5.641   1.064   9.094 -0.8778 -0.5232  0.9019
   65CHL1   C17 7240   5.760   1.228   9.195  0.0765  0.8209 -0.7918
   65CHL1   H17 7241   5.658   1.263   9.222  0.3453 -0.0723  1.7033
   65CHL1   C13 7242   5.843   1.210   9.325 -0.4935 -0.0557 -0.0810
   65CHL1   C18 7243   5.986   1.178   9.290 -0.1670 -0.0273  0.0018
   65CHL1  H18A 7244   6.026   1.265   9.235  0.3918 -0.1873  0.1576
   65CHL1  H18B 7245   6.045   1.158   9.381 -0.9819 -2.4648  0.0737
   65CHL1  H18C 7246   5.993   1.088   9.225 -2.1731  1.0828 -1.9024
   65CHL1   C12 7247   5.836   1.324   9.420  0.4841  0.0175 -0.3234
   65CHL1  H12A 7248   5.890   1.413   9.381  0.2345  0.7659  0.9657
   65CHL1  H12B 7249   5.730   1.354   9.440 -0.3608 -2.5722 -0.5250
   65CHL1   C11 7250   5.889   1.286   9.559 -0.6323 -0.0272 -0.6428
   65CHL1  H11A 7251   5.998   1.264   9.559 -0.7160 -0.5480  0.9174
   65CHL1  H11B 7252   5.875   1.362   9.639 -0.1685 -0.3990 -0.1964
   65CHL1    C9 7253   5.831   1.155   9.621  0.1716  0.0695  0.1570
   65CHL1    H9 7254   5.721   1.168   9.628  0.2655  0.8772  0.1878
   65CHL1   C10 7255   5.888   1.124   9.766 -0.3414 -0.0294  0.1079
   65CHL1   C19 7256   6.042   1.105   9.761 -0.1324 -0.0291  0.7985
   65CHL1  H19A 7257   6.070   1.019   9.697  1.7211 -1.3318  3.1775
   65CHL1  H19B 7258   6.101   1.190   9.720  1.0049 -2.1733 -2.3912
   65CHL1  H19C 7259   6.074   1.084   9.865 -0.1654  3.5577  1.6609
   65CHL1    C1 7260   5.843   1.242   9.867 -0.0732 -0.3996 -0.1389
   65CHL1   H1A 7261   5.899   1.329   9.827 -2.4197  1.6410  0.8164
   65CHL1   H1B 7262   5.736   1.269   9.852 -0.2723 -0.8800  0.3974
   65CHL1    C2 7263   5.862   1.212  10.018  0.2281  0.0434  0.6485
   65CHL1   H2A 7264   5.808   1.288  10.079 -1.8977 -1.7590  1.1671
   65CHL1   H2B 7265   5.969   1.202  10.047  1.2607 -0.7754 -2.9104
   65CHL1   C20 7266   5.808   1.319   9.072 -0.9928 -0.3121  0.2422
   65CHL1   H20 7267   5.916   1.298   9.056 -0.9486  0.1274 -0.0508
   65CHL1   C21 7268   5.794   1.474   9.111  0.0973 -0.2073  0.1821
   65CHL1  H21A 7269   5.871   1.511   9.182  0.2324 -1.9289  0.9835
   65CHL1  H21B 7270   5.692   1.488   9.153 -1.1715 -3.4249 -1.4846
   65CHL1  H21C 7271   5.816   1.540   9.024  1.2514 -0.3221  0.3729
   65CHL1   C22 7272   5.734   1.305   8.934  0.4983 -0.1049 -0.2539
   65CHL1  H22A 7273   5.792   1.366   8.862 -2.5628  0.3761 -2.4819
   65CHL1  H22B 7274   5.740   1.196   8.913  2.8688 -0.7388  2.9552
   65CHL1   C23 7275   5.589   1.350   8.919  0.1745 -0.1307  0.0220
   65CHL1  H23A 7276   5.530   1.319   9.008  0.3778  0.4570  0.3631
   65CHL1  H23B 7277   5.588   1.460   8.913  1.2677 -0.2025 -2.7487
   65CHL1   C24 7278   5.529   1.313   8.783 -0.4337  0.4160 -0.3746
   65CHL1  H24A 7279   5.612   1.321   8.710 -0.2576 -0.4673 -0.2909
   65CHL1  H24B 7280   5.511   1.204   8.773 -1.7119  0.7216 -1.6930
   65CHL1   C25 7281   5.406   1.396   8.734 -0.7074  0.8454  0.5478
   65CHL1   H25 7282   5.430   1.500   8.766  1.2640  0.5058  0.2760
   65CHL1   C26 7283   5.403   1.382   8.583  0.5861 -0.5309 -0.0829
   65CHL1  H26A 7284   5.487   1.431   8.531 -0.6427 -1.0777 -2.7659
   65CHL1  H26B 7285   5.403   1.274   8.556  1.2993 -0.5438 -0.0434
   65CHL1  H26C 7286   5.310   1.434   8.550  1.1479  1.2064  0.9694
   65CHL1   C27 7287   5.267   1.355   8.789 -0.1815  0.5922 -0.3867
   65CHL1  H27A 7288   5.198   1.435   8.756 -2.1393 -0.5373  0.7910
   65CHL1  H27B 7289   5.240   1.249   8.772  4.4239 -1.4674  2.8174
   65CHL1  H27C 7290   5.289   1.363   8.898  0.5038 -0.5783 -0.4219
   66CHL1    C3 7291   4.533   0.194  10.511 -0.0851 -0.5145  0.5807
   66CHL1    H3 7292   4.471   0.119  10.458 -0.4203 -1.7220  2.5709
   66CHL1    O3 7293   4.546   0.157  10.648 -0.1360  0.6634 -0.3435
   66CHL1   H3' 7294   4.581   0.237  10.690  2.0494 -0.7618  0.7221
   66CHL1    C4 7295   4.673   0.215  10.446  0.1993  0.1900 -0.2769
   66CHL1   H4A 7296   4.724   0.303  10.491  1.1339 -1.4966  2.1385
   66CHL1   H4B 7297   4.739   0.126  10.452  0.5461  0.4816  0.3896
   66CHL1    C5 7298   4.648   0.243  10.298 -0.1795 -0.2643 -0.3768
   66CHL1    C6 7299   4.701   0.163  10.204  0.6484  0.4579 -0.7266
   66CHL1    H6 7300   4.742   0.065  10.232 -1.2125 -0.2524 -0.3282
   66CHL1    C7 7301   4.692   0.194  10.055 -0.3244 -0.2959  0.7592
   66CHL1   H7A 7302   4.790   0.172  10.008 -0.1146  2.2719 -0.1762
   66CHL1   H7B 7303   4.616   0.134  10.000  0.4911 -0.8386  0.1973
   66CHL1    C8 7304   4.655   0.339  10.028  0.0571 -0.2120  0.6729
   66CHL1    H8 7305   4.739   0.410  10.047 -0.0300  0.8608 -2.3747
   66CHL1   C14 7306   4.630   0.362   9.875  0.0313 -0.3199 -0.1709
   66CHL1   H14 7307   4.534   0.307   9.866  0.1581 -0.4589 -0.7140
   66CHL1   C15 7308   4.725   0.312   9.770 -0.1668 -0.0364 -0.1558
   66CHL1  H15A 7309   4.828   0.346   9.796 -0.2312  1.0265 -1.2289
   66CHL1  H15B 7310   4.732   0.202   9.757  0.5685 -0.0474  0.2276
   66CHL1   C16 7311   4.678   0.379   9.643 -0.0985  0.0725  0.1995
   66CHL1  H16A 7312   4.756   0.430   9.582  0.0882 -0.2114  0.2003
   66CHL1  H16B 7313   4.625   0.300   9.586 -0.0661 -1.5634  2.3270
   66CHL1   C17 7314   4.560   0.481   9.680 -0.0680 -0.1510 -0.9125
   66CHL1   H17 7315   4.464   0.432   9.655  0.0508 -0.5835 -0.5275
   66CHL1   C13 7316   4.581   0.500   9.834 -0.6743 -0.3173  0.1934
   66CHL1   C18 7317   4.692   0.606   9.857  0.8589 -0.5359  0.4540
   66CHL1  H18A 7318   4.645   0.705   9.875  1.8714  0.4376 -1.9046
   66CHL1  H18B 7319   4.756   0.593   9.947  0.8380 -0.2162  0.5149
   66CHL1  H18C 7320   4.762   0.619   9.772  0.6696  2.0154  0.6074
   66CHL1   C12 7321   4.451   0.528   9.914 -0.6533  0.5748 -0.7294
   66CHL1  H12A 7322   4.416   0.628   9.880 -0.7436  0.3377 -1.3564
   66CHL1  H12B 7323   4.373   0.455   9.883 -0.0845 -0.7196  0.7566
   66CHL1   C11 7324   4.471   0.518  10.070 -0.5612  0.3172  0.0073
   66CHL1  H11A 7325   4.546   0.596  10.096  0.3923 -0.3513 -0.6833
   66CHL1  H11B 7326   4.376   0.526  10.127  0.7200 -1.5697  2.6657
   66CHL1    C9 7327   4.537   0.378  10.115 -0.2981 -0.9159  0.0333
   66CHL1    H9 7328   4.461   0.304  10.082  0.9776 -1.9374 -0.7224
   66CHL1   C10 7329   4.569   0.367  10.267 -0.1062 -0.2895  0.0775
   66CHL1   C19 7330   4.669   0.487  10.307 -0.4046 -0.2102 -0.3391
   66CHL1  H19A 7331   4.633   0.588  10.278  0.2734 -0.0998 -0.8238
   66CHL1  H19B 7332   4.683   0.498  10.417  1.5285  1.7900 -0.7083
   66CHL1  H19C 7333   4.770   0.474  10.264 -0.2326  0.2525 -0.0851
   66CHL1    C1 7334   4.438   0.375  10.357 -0.8674 -0.0045 -0.5966
   66CHL1   H1A 7335   4.388   0.474  10.350  2.4194  1.9538  1.1500
   66CHL1   H1B 7336   4.363   0.309  10.309 -1.7539 -0.2138  1.0208
   66CHL1    C2 7337   4.461   0.328  10.501 -1.0717 -0.0604 -0.8541
   66CHL1   H2A 7338   4.368   0.324  10.563 -1.7390 -3.2009 -1.8636
   66CHL1   H2B 7339   4.523   0.411  10.542  1.8443 -1.8517 -1.3994
   66CHL1   C20 7340   4.570   0.608   9.593 -1.0292  0.6768  0.3505
   66CHL1   H20 7341   4.676   0.642   9.593 -0.7163 -0.2674  0.3250
   66CHL1   C21 7342   4.477   0.719   9.644 -0.5543  0.1330 -0.5206
   66CHL1  H21A 7343   4.377   0.671   9.654  0.0076 -1.2306 -1.1582
   66CHL1  H21B 7344   4.483   0.801   9.569 -2.0252 -2.7420 -4.0980
   66CHL1  H21C 7345   4.520   0.774   9.730 -0.9483 -1.8899  1.0515
   66CHL1   C22 7346   4.533   0.569   9.448  0.9227  0.2988  0.0952
   66CHL1  H22A 7347   4.535   0.461   9.424  0.3872  0.3887 -0.3921
   66CHL1  H22B 7348   4.424   0.589   9.457  1.1363  0.8433  1.9471
   66CHL1   C23 7349   4.598   0.648   9.334 -0.5712 -0.5357  0.5842
   66CHL1  H23A 7350   4.581   0.757   9.340  0.4045 -0.4418  2.4636
   66CHL1  H23B 7351   4.707   0.642   9.354 -0.8267 -1.8858  1.8005
   66CHL1   C24 7352   4.567   0.594   9.193  0.5049  0.2024 -0.1377
   66CHL1  H24A 7353   4.579   0.484   9.204 -2.9619 -0.1700  1.4011
   66CHL1  H24B 7354   4.461   0.609   9.163 -0.5515  0.4536  3.3301
   66CHL1   C25 7355   4.647   0.655   9.075  0.1519  0.1266 -0.6893
   66CHL1   H25 7356   4.614   0.597   8.986 -2.1715  0.7137 -0.2853
   66CHL1   C26 7357   4.604   0.798   9.052 -0.8722 -0.1540  0.6552
   66CHL1  H26A 7358   4.494   0.805   9.039 -1.0153 -0.3432  1.7095
   66CHL1  H26B 7359   4.639   0.863   9.134  2.2892 -0.5793 -0.2231
   66CHL1  H26C 7360   4.644   0.839   8.956 -0.4157  0.4649  1.1024
   66CHL1   C27 7361   4.800   0.643   9.090 -0.2291 -0.2001 -0.5240
   66CHL1  H27A 7362   4.854   0.672   8.998  1.5386 -0.0471  0.5155
   66CHL1  H27B 7363   4.819   0.715   9.172 -2.1749 -0.1750 -0.0519
   66CHL1  H27C 7364   4.833   0.541   9.121 -1.4500 -0.0698  1.3667
   67CHL1    C3 7365   1.216   0.474  10.408 -0.2829  0.1929 -0.1147
   67CHL1    H3 7366   1.231   0.385  10.343 -1.2064  0.8274 -1.2538
   67CHL1    O3 7367   1.316   0.462  10.510  0.7512 -0.0185 -0.4864
   67CHL1   H3' 7368   1.282   0.523  10.576 -0.2892  0.7006 -1.6551
   67CHL1    C4 7369   1.242   0.609  10.331 -0.4462 -0.3446 -0.3282
   67CHL1   H4A 7370   1.249   0.690  10.406 -0.7509 -0.0420 -0.6238
   67CHL1   H4B 7371   1.346   0.604  10.292  0.3767 -0.1543  1.7059
   67CHL1    C5 7372   1.148   0.633  10.221  0.5321  0.3869 -0.4986
   67CHL1    C6 7373   1.191   0.670  10.100 -0.0993  0.5957  0.6184
   67CHL1    H6 7374   1.298   0.679  10.079 -0.6973  1.7947 -2.3447
   67CHL1    C7 7375   1.109   0.691   9.974  0.7598 -0.1689  0.4679
   67CHL1   H7A 7376   1.142   0.784   9.922  0.1799  0.3722  1.0518
   67CHL1   H7B 7377   1.128   0.605   9.906 -2.3734  0.5839 -1.5799
   67CHL1    C8 7378   0.955   0.695  10.008 -0.0216  0.6829 -0.8733
   67CHL1    H8 7379   0.931   0.799  10.038  0.3819  0.1871  1.3004
   67CHL1   C14 7380   0.869   0.647   9.890  0.3846  1.1340  1.0485
   67CHL1   H14 7381   0.897   0.539   9.886  2.3368  1.6186  0.3603
   67CHL1   C15 7382   0.903   0.699   9.745  0.2653 -0.5028  0.2080
   67CHL1  H15A 7383   0.946   0.800   9.734 -0.7528 -0.2378 -1.7798
   67CHL1  H15B 7384   0.977   0.634   9.694  1.2327  1.3697 -0.8646
   67CHL1   C16 7385   0.766   0.686   9.671  0.5270 -0.4040  0.1292
   67CHL1  H16A 7386   0.731   0.790   9.655 -1.5161 -1.2357 -1.2403
   67CHL1  H16B 7387   0.776   0.635   9.572  2.3009 -1.3372  0.7378
   67CHL1   C17 7388   0.670   0.614   9.774  0.9044 -0.0347  0.5304
   67CHL1   H17 7389   0.692   0.505   9.767 -0.3392 -0.2296 -0.6533
   67CHL1   C13 7390   0.720   0.659   9.911  0.4118  0.1908 -1.5508
   67CHL1   C18 7391   0.679   0.809   9.930 -1.0541 -0.3991  0.4579
   67CHL1  H18A 7392   0.570   0.816   9.947 -1.4166 -0.2112 -1.5844
   67CHL1  H18B 7393   0.740   0.843  10.016  3.2390  1.2585 -2.8120
   67CHL1  H18C 7394   0.685   0.872   9.838  0.6495 -2.5392 -0.9998
   67CHL1   C12 7395   0.666   0.579  10.041  0.1424  0.5220 -0.5155
   67CHL1  H12A 7396   0.560   0.591  10.070  0.4533 -1.6294  1.8019
   67CHL1  H12B 7397   0.677   0.475  10.003  0.4269  0.4276 -0.1792
   67CHL1   C11 7398   0.760   0.595  10.157 -0.2677  0.8240 -0.4609
   67CHL1  H11A 7399   0.728   0.683  10.216 -1.9395 -0.1406  0.1333
   67CHL1  H11B 7400   0.727   0.518  10.230 -2.8327  1.8507 -0.4465
   67CHL1    C9 7401   0.916   0.602  10.135  0.9562 -0.4845  0.2970
   67CHL1    H9 7402   0.945   0.502  10.096 -0.2135 -0.8210  0.2382
   67CHL1   C10 7403   1.002   0.610  10.263  0.0921 -0.4188  0.4965
   67CHL1   C19 7404   0.967   0.745  10.332 -0.6669  0.5747  0.4465
   67CHL1  H19A 7405   1.037   0.773  10.413  0.4933  0.3839 -0.4560
   67CHL1  H19B 7406   0.969   0.823  10.254 -1.2417 -0.8238 -1.0350
   67CHL1  H19C 7407   0.862   0.744  10.368 -0.1929  0.5567  1.9050
   67CHL1    C1 7408   0.971   0.489  10.350  0.0046  0.6284  0.5061
   67CHL1   H1A 7409   0.872   0.500  10.399  0.0093  3.4084  0.0188
   67CHL1   H1B 7410   0.967   0.394  10.293 -1.2862  0.1242  1.3884
   67CHL1    C2 7411   1.078   0.480  10.465 -0.7319  0.0622 -0.5301
   67CHL1   H2A 7412   1.049   0.388  10.520  1.5646  1.6583  3.8050
   67CHL1   H2B 7413   1.056   0.560  10.539  1.8364  1.4536 -1.1677
   67CHL1   C20 7414   0.520   0.640   9.735  0.4179 -0.7181 -0.2347
   67CHL1   H20 7415   0.510   0.751   9.734  0.5767 -0.6984  0.1536
   67CHL1   C21 7416   0.412   0.581   9.828 -0.1632  0.2233 -0.3073
   67CHL1  H21A 7417   0.413   0.470   9.829 -0.4498  0.2144  1.0206
   67CHL1  H21B 7418   0.319   0.615   9.777 -0.9203 -0.0787  0.8138
   67CHL1  H21C 7419   0.416   0.631   9.927 -3.0008 -0.6404  0.3432
   67CHL1   C22 7420   0.485   0.593   9.584  0.1143 -0.4845 -0.3195
   67CHL1  H22A 7421   0.563   0.626   9.512  2.2746  0.0281  2.0749
   67CHL1  H22B 7422   0.500   0.483   9.589  1.7257 -0.4198 -2.2775
   67CHL1   C23 7423   0.349   0.637   9.522  1.0973  0.2704  0.7362
   67CHL1  H23A 7424   0.270   0.593   9.587 -0.2236 -0.5698 -1.3385
   67CHL1  H23B 7425   0.349   0.748   9.518 -2.4423  0.3437 -1.3106
   67CHL1   C24 7426   0.309   0.585   9.384  0.0291 -0.0605 -0.3230
   67CHL1  H24A 7427   0.348   0.642   9.297 -0.7089  0.9412 -0.0104
   67CHL1  H24B 7428   0.345   0.480   9.376 -3.1697 -1.2761  0.0024
   67CHL1   C25 7429   0.155   0.559   9.367  0.2570 -0.3452 -0.6471
   67CHL1   H25 7430   0.111   0.512   9.458  1.6947  1.1805  0.9054
   67CHL1   C26 7431   0.079   0.695   9.355 -1.1273  0.1167  0.0181
   67CHL1  H26A 7432   0.130   0.755   9.277  0.9815 -0.8578  0.5813
   67CHL1  H26B 7433  -0.025   0.671   9.325 -0.7272 -2.5266  0.5370
   67CHL1  H26C 7434   0.092   0.742   9.455 -1.4331 -0.2684  0.2392
   67CHL1   C27 7435   0.138   0.469   9.249  0.5950  0.3718 -0.1528
   67CHL1  H27A 7436   0.032   0.438   9.237  1.1447 -2.0939  0.6877
   67CHL1  H27B 7437   0.165   0.525   9.157  0.1445  0.7819 -0.0373
   67CHL1  H27C 7438   0.201   0.377   9.241  0.1660  0.0930 -0.3621
   68CHL1    C3 7439   4.979   2.272  10.298  0.2020 -0.5953 -0.4302
   68CHL1    H3 7440   5.078   2.322  10.303 -0.3138  0.3600  0.6735
   68CHL1    O3 7441   4.930   2.238  10.427 -0.1869 -0.0908 -0.5660
   68CHL1   H3' 7442   4.882   2.312  10.465  0.2952 -0.5662  1.0930
   68CHL1    C4 7443   4.888   2.363  10.216  0.4868 -0.4347 -0.0293
   68CHL1   H4A 7444   4.783   2.328  10.220  1.2384 -2.7598  0.5042
   68CHL1   H4B 7445   4.888   2.456  10.277  2.0380  0.1590 -0.8736
   68CHL1    C5 7446   4.942   2.397  10.081  0.3784 -0.0700 -0.3210
   68CHL1    C6 7447   4.970   2.519  10.042 -0.1343  0.1385  0.0196
   68CHL1    H6 7448   4.970   2.594  10.123  3.7539 -0.2175  0.5353
   68CHL1    C7 7449   5.010   2.564   9.903  0.3211  0.3152 -0.0490
   68CHL1   H7A 7450   4.951   2.650   9.864 -0.4491 -1.2410 -2.5560
   68CHL1   H7B 7451   5.113   2.606   9.906  0.6348 -0.4834  1.5658
   68CHL1    C8 7452   4.997   2.451   9.804 -0.5916 -0.1049  0.4917
   68CHL1    H8 7453   4.888   2.437   9.792 -0.8118  1.7004  0.0950
   68CHL1   C14 7454   5.060   2.494   9.674  0.0916  0.6669  0.0815
   68CHL1   H14 7455   5.170   2.489   9.694  0.3358  0.7078 -1.1585
   68CHL1   C15 7456   5.022   2.637   9.626  0.6163  0.2175  0.4236
   68CHL1  H15A 7457   4.919   2.669   9.653  0.9313  1.6959 -0.0101
   68CHL1  H15B 7458   5.082   2.709   9.685  2.2132  0.7546 -1.7085
   68CHL1   C16 7459   5.054   2.625   9.475  0.1234 -0.8478 -0.5451
   68CHL1  H16A 7460   4.959   2.650   9.422 -0.2679 -2.8287 -0.8719
   68CHL1  H16B 7461   5.123   2.708   9.449 -1.6131  1.5871  2.0845
   68CHL1   C17 7462   5.100   2.481   9.446 -0.2739  0.1655 -0.3085
   68CHL1   H17 7463   5.209   2.486   9.468 -0.2334 -1.3138 -0.0435
   68CHL1   C13 7464   5.039   2.400   9.559 -0.1698 -0.5150 -0.4259
   68CHL1   C18 7465   4.882   2.383   9.531 -0.0935  0.3909  0.6221
   68CHL1  H18A 7466   4.839   2.482   9.506  0.8697  0.5774 -0.3618
   68CHL1  H18B 7467   4.870   2.330   9.435  2.5339 -0.6496  0.7843
   68CHL1  H18C 7468   4.815   2.336   9.607  0.2880 -0.0273  0.7066
   68CHL1   C12 7469   5.100   2.269   9.609  0.3396 -0.3574 -0.8548
   68CHL1  H12A 7470   5.092   2.184   9.537 -3.4547  0.3411 -1.4648
   68CHL1  H12B 7471   5.204   2.296   9.636  0.0060  0.8976 -0.7888
   68CHL1   C11 7472   5.045   2.219   9.749  0.3302 -0.3117 -0.5954
   68CHL1  H11A 7473   4.942   2.186   9.723 -0.3203  0.1946  1.2217
   68CHL1  H11B 7474   5.098   2.124   9.772 -0.7118 -0.7607 -0.0140
   68CHL1    C9 7475   5.045   2.320   9.860 -0.7346  0.0233  0.5200
   68CHL1    H9 7476   5.150   2.327   9.897 -0.4804 -2.1666  0.3541
   68CHL1   C10 7477   4.964   2.280   9.994  0.0220  0.2023  0.7734
   68CHL1   C19 7478   4.820   2.235   9.962 -0.4480 -0.0205 -0.1820
   68CHL1  H19A 7479   4.762   2.203  10.051 -0.7306 -0.9338 -0.6822
   68CHL1  H19B 7480   4.762   2.317   9.915 -0.1623  1.1062  1.3509
   68CHL1  H19C 7481   4.815   2.147   9.895 -1.1460 -1.4065  1.5947
   68CHL1    C1 7482   5.047   2.172  10.072 -0.1576 -0.3066  0.1681
   68CHL1   H1A 7483   5.042   2.085  10.004 -2.5414  1.1500 -1.6668
   68CHL1   H1B 7484   5.148   2.216  10.084  0.0318 -0.8771  0.7025
   68CHL1    C2 7485   5.002   2.141  10.220  0.3868 -0.1835  0.5466
   68CHL1   H2A 7486   5.081   2.082  10.270  0.2670 -0.7374  0.0880
   68CHL1   H2B 7487   4.913   2.076  10.203 -0.3018  1.3222 -2.1701
   68CHL1   C20 7488   5.088   2.419   9.308 -0.0641 -0.3194  0.2373
   68CHL1   H20 7489   4.993   2.370   9.277 -1.8505  2.4543  0.9819
   68CHL1   C21 7490   5.212   2.334   9.284 -0.7802  0.2245 -0.0101
   68CHL1  H21A 7491   5.197   2.283   9.187 -2.7866 -0.6662  0.7122
   68CHL1  H21B 7492   5.226   2.268   9.372  1.7022  0.0180 -0.4989
   68CHL1  H21C 7493   5.302   2.399   9.282 -1.4191  1.1466  0.5399
   68CHL1   C22 7494   5.082   2.530   9.196 -0.0558  0.2812 -0.0745
   68CHL1  H22A 7495   4.989   2.591   9.196 -0.1965  0.0725 -0.8421
   68CHL1  H22B 7496   5.172   2.596   9.203 -0.3277  0.5594  0.9698
   68CHL1   C23 7497   5.089   2.473   9.052  0.5948 -0.3167  0.7258
   68CHL1  H23A 7498   5.176   2.406   9.037  2.2715  0.7742  4.2969
   68CHL1  H23B 7499   4.992   2.421   9.034  1.0897 -0.9082 -0.2947
   68CHL1   C24 7500   5.110   2.576   8.933 -0.0554  0.4840  0.4047
   68CHL1  H24A 7501   5.034   2.656   8.939 -0.6271 -0.1242  1.6767
   68CHL1  H24B 7502   5.215   2.613   8.937  0.9028 -2.1055  1.4293
   68CHL1   C25 7503   5.100   2.525   8.786 -0.2652  0.4499  0.0238
   68CHL1   H25 7504   4.992   2.501   8.775 -0.5900  1.2002  1.3169
   68CHL1   C26 7505   5.142   2.645   8.699  0.5936  0.3229  0.0999
   68CHL1  H26A 7506   5.084   2.736   8.725  0.2198 -0.2552  1.3823
   68CHL1  H26B 7507   5.250   2.665   8.711  1.1196 -1.9367 -0.4608
   68CHL1  H26C 7508   5.131   2.622   8.591 -0.8077  2.5827 -0.3039
   68CHL1   C27 7509   5.177   2.404   8.757  0.8905 -0.0912 -0.2193
   68CHL1  H27A 7510   5.157   2.322   8.829  0.1900 -0.1208 -0.4412
   68CHL1  H27B 7511   5.166   2.379   8.649  0.4268  0.9765 -0.4317
   68CHL1  H27C 7512   5.283   2.437   8.765 -0.1786  3.5271  0.6478
   69CHL1    C3 7513   2.453   5.579   6.746 -0.9059  0.1890  0.3881
   69CHL1    H3 7514   2.344   5.589   6.767 -0.4395  0.3361  3.0635
   69CHL1    O3 7515   2.476   5.543   6.609 -0.4768  0.6717 -0.4473
   69CHL1   H3' 7516   2.521   5.458   6.606  0.3001  1.0421 -4.2238
   69CHL1    C4 7517   2.517   5.719   6.785 -0.2465  0.0393  0.4239
   69CHL1   H4A 7518   2.627   5.721   6.769 -0.1440  0.0433  1.0787
   69CHL1   H4B 7519   2.470   5.793   6.716  0.7214  0.0267 -0.2575
   69CHL1    C5 7520   2.498   5.741   6.934 -0.0977  1.0397 -0.1115
   69CHL1    C6 7521   2.441   5.852   6.966 -0.5792  0.3374  0.1487
   69CHL1    H6 7522   2.406   5.910   6.878 -0.9035  0.4083  0.3209
   69CHL1    C7 7523   2.406   5.891   7.110 -0.1627  0.3593  0.3423
   69CHL1   H7A 7524   2.422   6.000   7.128  0.1085  1.0625 -3.2823
   69CHL1   H7B 7525   2.300   5.873   7.137 -0.9376  0.8839 -2.0382
   69CHL1    C8 7526   2.505   5.819   7.204 -0.1681  0.0763  0.1660
   69CHL1    H8 7527   2.608   5.858   7.186  0.3854 -1.2543  0.2979
   69CHL1   C14 7528   2.453   5.839   7.344 -0.5835  0.1362 -0.0595
   69CHL1   H14 7529   2.351   5.799   7.355 -1.2654  1.6033 -0.7699
   69CHL1   C15 7530   2.420   5.986   7.392  0.0030  0.0743 -0.4097
   69CHL1  H15A 7531   2.492   6.062   7.353 -0.5355  0.5881 -0.4208
   69CHL1  H15B 7532   2.313   6.013   7.376 -0.2025 -0.9270 -0.7340
   69CHL1   C16 7533   2.438   5.982   7.541  0.3856  0.2237 -0.4613
   69CHL1  H16A 7534   2.523   6.048   7.566  0.3911  0.3060 -0.6944
   69CHL1  H16B 7535   2.347   6.028   7.585 -0.6571 -0.4302 -1.8565
   69CHL1   C17 7536   2.464   5.836   7.584  0.2827  0.0784  0.2440
   69CHL1   H17 7537   2.368   5.780   7.586 -0.6491  1.3987 -2.5203
   69CHL1   C13 7538   2.536   5.780   7.455  0.4913  0.0322 -0.2670
   69CHL1   C18 7539   2.685   5.830   7.445  0.7082  0.1225  0.2999
   69CHL1  H18A 7540   2.740   5.782   7.528 -0.1971  1.3680  1.6641
   69CHL1  H18B 7541   2.737   5.814   7.348 -0.3894  1.4808 -0.5711
   69CHL1  H18C 7542   2.678   5.940   7.455 -1.3355  0.1523 -0.8402
   69CHL1   C12 7543   2.529   5.628   7.426  0.1818 -0.4605  0.2347
   69CHL1  H12A 7544   2.589   5.580   7.505  1.3315  3.3304  1.9129
   69CHL1  H12B 7545   2.423   5.593   7.432  0.0323 -0.1321 -0.3728
   69CHL1   C11 7546   2.580   5.587   7.288 -0.4997  0.5483 -0.2001
   69CHL1  H11A 7547   2.691   5.592   7.282 -0.1767 -0.7238  2.6774
   69CHL1  H11B 7548   2.568   5.478   7.271 -0.2663  0.8457 -2.6523
   69CHL1    C9 7549   2.514   5.668   7.177 -0.8369 -0.0774 -0.0348
   69CHL1    H9 7550   2.406   5.640   7.181 -0.8776 -0.3103 -1.7332
   69CHL1   C10 7551   2.549   5.634   7.033 -0.1635 -0.5030  0.0600
   69CHL1   C19 7552   2.698   5.616   7.017  0.3255 -0.9482 -0.5084
   69CHL1  H19A 7553   2.732   5.530   7.079 -0.8703 -1.3433 -0.3540
   69CHL1  H19B 7554   2.730   5.588   6.914  2.5673 -1.1622  0.2028
   69CHL1  H19C 7555   2.750   5.711   7.040  2.1930 -2.0274 -0.0915
   69CHL1    C1 7556   2.487   5.492   6.992  1.2389  0.1677 -0.3175
   69CHL1   H1A 7557   2.541   5.416   7.053  0.5948 -0.1164 -0.0927
   69CHL1   H1B 7558   2.379   5.483   7.015  1.4312  0.5433  0.7689
   69CHL1    C2 7559   2.502   5.459   6.837 -0.1240 -0.5508  0.9416
   69CHL1   H2A 7560   2.437   5.373   6.809 -0.6335  0.2789 -0.5112
   69CHL1   H2B 7561   2.609   5.447   6.810 -0.1223 -0.0705  0.7345
   69CHL1   C20 7562   2.542   5.834   7.718  0.3177 -0.4932 -0.3634
   69CHL1   H20 7563   2.650   5.854   7.697 -0.3958  1.0413 -3.0354
   69CHL1   C21 7564   2.546   5.688   7.777 -0.5079 -0.3435 -0.5717
   69CHL1  H21A 7565   2.608   5.616   7.719  1.2152  0.6662 -0.0533
   69CHL1  H21B 7566   2.440   5.655   7.776  0.3687 -3.4899 -0.9513
   69CHL1  H21C 7567   2.578   5.685   7.884 -2.6959 -3.1419  0.1362
   69CHL1   C22 7568   2.484   5.930   7.819  0.3260 -0.3637 -0.1680
   69CHL1  H22A 7569   2.513   6.033   7.791  0.0967 -0.0406  0.7525
   69CHL1  H22B 7570   2.375   5.912   7.810  0.2818 -1.3232  1.7483
   69CHL1   C23 7571   2.529   5.917   7.968 -0.5987  1.2704 -0.4592
   69CHL1  H23A 7572   2.481   5.828   8.015  1.5777 -1.4800 -2.9873
   69CHL1  H23B 7573   2.638   5.893   7.963 -0.8554 -0.5012  1.3637
   69CHL1   C24 7574   2.498   6.044   8.050 -0.3964  0.5932 -0.1747
   69CHL1  H24A 7575   2.556   6.131   8.012  1.5930 -0.9077 -0.7484
   69CHL1  H24B 7576   2.392   6.055   8.016 -0.7949 -3.5402 -0.8126
   69CHL1   C25 7577   2.517   6.031   8.197  0.3134  0.1353  0.4555
   69CHL1   H25 7578   2.484   5.929   8.226 -1.3788  0.3497 -0.5586
   69CHL1   C26 7579   2.667   6.040   8.247  0.5766 -0.1802 -0.0468
   69CHL1  H26A 7580   2.730   5.962   8.200 -0.7638  0.6897 -3.5750
   69CHL1  H26B 7581   2.710   6.141   8.229  0.5819 -0.2654 -0.5111
   69CHL1  H26C 7582   2.659   6.027   8.357 -1.7321  3.5120  0.4068
   69CHL1   C27 7583   2.435   6.139   8.272  0.0069 -0.3034  0.0972
   69CHL1  H27A 7584   2.326   6.139   8.246 -0.3199  2.0972  1.1786
   69CHL1  H27B 7585   2.459   6.122   8.379  2.6627 -0.4503 -0.4650
   69CHL1  H27C 7586   2.471   6.241   8.247  0.9327  0.2000  3.1117
   70CHL1    C3 7587   3.622   2.915   7.004  0.0492  1.0205 -0.5718
   70CHL1    H3 7588   3.512   2.902   7.016 -0.2855  1.5690 -2.6387
   70CHL1    O3 7589   3.650   2.949   6.874 -0.2311 -0.4116  0.1610
   70CHL1   H3' 7590   3.720   2.888   6.849  3.1382  1.6126  3.5277
   70CHL1    C4 7591   3.677   3.020   7.094  0.3453 -0.0979  0.4681
   70CHL1   H4A 7592   3.780   3.044   7.057 -0.2829 -1.1946 -2.3285
   70CHL1   H4B 7593   3.628   3.114   7.062 -0.1411 -0.5397 -0.1166
   70CHL1    C5 7594   3.654   2.978   7.242 -0.3232  1.0948  0.0787
   70CHL1    C6 7595   3.584   3.058   7.323 -0.2008  0.3116 -0.6284
   70CHL1    H6 7596   3.541   3.156   7.298 -2.3003 -0.6678 -1.0544
   70CHL1    C7 7597   3.560   3.019   7.466  0.2997  0.1063  0.4626
   70CHL1   H7A 7598   3.585   3.105   7.531 -1.2785  1.5103 -0.7110
   70CHL1   H7B 7599   3.461   2.979   7.495 -0.1080  0.9649  0.2832
   70CHL1    C8 7600   3.665   2.909   7.518  0.7714  0.2293 -0.2619
   70CHL1    H8 7601   3.765   2.956   7.509  0.8753  0.1024  0.2115
   70CHL1   C14 7602   3.626   2.869   7.659  0.2273 -0.0419  0.1514
   70CHL1   H14 7603   3.521   2.831   7.660  0.2619 -0.1603  1.2510
   70CHL1   C15 7604   3.624   2.976   7.765  0.0649 -0.2225 -0.4586
   70CHL1  H15A 7605   3.713   3.043   7.761  1.5664 -1.9858  1.2463
   70CHL1  H15B 7606   3.531   3.034   7.780 -1.8051 -3.6357  2.8421
   70CHL1   C16 7607   3.637   2.898   7.897 -0.2799 -0.6255  0.4929
   70CHL1  H16A 7608   3.726   2.936   7.951 -0.9655  1.9386 -0.0365
   70CHL1  H16B 7609   3.545   2.898   7.959 -1.9843 -0.0523 -1.8656
   70CHL1   C17 7610   3.657   2.753   7.856 -0.0918  0.4967 -0.3297
   70CHL1   H17 7611   3.558   2.704   7.845  0.3383 -0.0351 -2.0970
   70CHL1   C13 7612   3.705   2.753   7.714  0.8508  0.2000  0.4769
   70CHL1   C18 7613   3.855   2.787   7.709  0.2372  0.0862  0.3656
   70CHL1  H18A 7614   3.925   2.702   7.724 -1.1894 -1.4287 -1.1844
   70CHL1  H18B 7615   3.890   2.830   7.613  1.6372 -0.2586  0.7081
   70CHL1  H18C 7616   3.878   2.876   7.772 -1.5804  0.5765  0.4138
   70CHL1   C12 7617   3.666   2.632   7.616  0.4768 -0.0539 -0.3070
   70CHL1  H12A 7618   3.714   2.541   7.656 -1.0323 -1.2672 -1.0986
   70CHL1  H12B 7619   3.561   2.616   7.648  0.1289 -0.9612 -1.7890
   70CHL1   C11 7620   3.703   2.658   7.470  0.2517 -0.2882 -0.7803
   70CHL1  H11A 7621   3.814   2.656   7.480  0.2949  0.3074 -1.0768
   70CHL1  H11B 7622   3.666   2.581   7.399 -0.1340  0.1063 -1.0135
   70CHL1    C9 7623   3.652   2.793   7.419 -0.4217 -0.1456 -0.3615
   70CHL1    H9 7624   3.542   2.782   7.410 -0.5077 -0.2327  0.6562
   70CHL1   C10 7625   3.709   2.835   7.283 -0.4525 -0.2762  0.3160
   70CHL1   C19 7626   3.862   2.844   7.286 -0.7720  0.5592  0.2393
   70CHL1  H19A 7627   3.896   2.879   7.186 -0.9093  0.8510  0.2926
   70CHL1  H19B 7628   3.896   2.916   7.364 -1.5671  2.0405 -0.7337
   70CHL1  H19C 7629   3.905   2.743   7.300  0.1382  0.9091  0.0372
   70CHL1    C1 7630   3.666   2.728   7.169  0.3198 -0.4356 -0.1163
   70CHL1   H1A 7631   3.717   2.638   7.211  0.8913  0.3946  0.9981
   70CHL1   H1B 7632   3.557   2.719   7.189  0.3102  0.3136  0.1867
   70CHL1    C2 7633   3.683   2.773   7.028  0.2773  0.1634  0.4295
   70CHL1   H2A 7634   3.637   2.695   6.964 -0.8400  1.6211 -0.6177
   70CHL1   H2B 7635   3.792   2.780   7.005  0.5044 -0.2500  1.3536
   70CHL1   C20 7636   3.743   2.689   7.969  0.5677  0.0524  0.9642
   70CHL1   H20 7637   3.841   2.741   7.968  0.8918 -0.5475  0.7669
   70CHL1   C21 7638   3.756   2.533   7.928 -0.1917  0.1419 -0.3067
   70CHL1  H21A 7639   3.806   2.509   7.832 -1.8701 -1.1051 -0.9065
   70CHL1  H21B 7640   3.655   2.492   7.907 -0.5071  1.5229 -1.6898
   70CHL1  H21C 7641   3.809   2.477   8.009  1.4363  1.1829 -0.5899
   70CHL1   C22 7642   3.673   2.701   8.113 -0.7142 -0.0041 -0.3452
   70CHL1  H22A 7643   3.644   2.806   8.136  0.8680  0.6684 -1.2575
   70CHL1  H22B 7644   3.589   2.628   8.119  0.1844 -0.9782  0.9179
   70CHL1   C23 7645   3.764   2.675   8.231 -0.0303  0.2666  0.5376
   70CHL1  H23A 7646   3.700   2.692   8.320 -0.3875 -0.0088  0.3369
   70CHL1  H23B 7647   3.822   2.582   8.244  0.2760  0.5235  1.0552
   70CHL1   C24 7648   3.868   2.789   8.238 -0.3818 -0.7626  0.1112
   70CHL1  H24A 7649   3.958   2.774   8.175  0.2653  4.0696 -0.5046
   70CHL1  H24B 7650   3.832   2.880   8.185  3.6847  0.3093 -1.1292
   70CHL1   C25 7651   3.921   2.822   8.388  0.3636 -0.8013  0.3837
   70CHL1   H25 7652   3.833   2.857   8.446 -1.1631 -3.4775 -0.1531
   70CHL1   C26 7653   3.992   2.710   8.450 -0.2691 -0.5666 -1.1968
   70CHL1  H26A 7654   3.939   2.613   8.441  0.1828 -0.9109 -0.2672
   70CHL1  H26B 7655   4.092   2.694   8.402  0.1088 -1.3961 -0.1622
   70CHL1  H26C 7656   4.019   2.727   8.556  1.5460  0.8923 -1.8301
   70CHL1   C27 7657   4.017   2.946   8.370 -0.3425 -0.5631  0.5139
   70CHL1  H27A 7658   3.971   3.028   8.310  0.2816  0.4638  1.3992
   70CHL1  H27B 7659   4.034   3.007   8.461 -0.6218 -0.8900  0.7835
   70CHL1  H27C 7660   4.110   2.910   8.321 -0.7163 -1.4745  0.4494
   71CHL1    C3 7661   3.233   4.844   6.852  0.3834 -0.1499 -0.3301
   71CHL1    H3 7662   3.167   4.933   6.836 -0.3010 -0.4604  0.6577
   71CHL1    O3 7663   3.282   4.790   6.728 -0.1007  0.2782 -0.1711
   71CHL1   H3' 7664   3.206   4.797   6.669 -0.3152  2.2479  0.2711
   71CHL1    C4 7665   3.345   4.898   6.946 -0.2176  0.2113 -0.0536
   71CHL1   H4A 7666   3.431   4.828   6.951 -1.0064 -0.7050  2.2867
   71CHL1   H4B 7667   3.384   4.980   6.882  0.6671 -1.4316 -1.7006
   71CHL1    C5 7668   3.301   4.928   7.086 -0.2742  0.2588 -0.9291
   71CHL1    C6 7669   3.305   5.052   7.137 -0.2842 -0.3027 -0.1748
   71CHL1    H6 7670   3.337   5.136   7.074 -0.8061  0.6607  0.8024
   71CHL1    C7 7671   3.249   5.083   7.278  0.2823 -0.3422  0.0323
   71CHL1   H7A 7672   3.334   5.135   7.328  1.0115 -0.5914 -0.9123
   71CHL1   H7B 7673   3.159   5.148   7.271 -1.4789 -2.7230 -0.4833
   71CHL1    C8 7674   3.215   4.961   7.367  0.2051  0.1272  0.4399
   71CHL1    H8 7675   3.317   4.933   7.401 -0.3630  0.6989  2.7993
   71CHL1   C14 7676   3.127   4.989   7.488 -0.0892  0.1028  0.0413
   71CHL1   H14 7677   3.029   5.022   7.448 -0.5315 -1.7101 -0.4365
   71CHL1   C15 7678   3.178   5.099   7.584 -0.1891 -0.2231  0.6731
   71CHL1  H15A 7679   3.288   5.089   7.593 -0.2341 -2.6252 -0.4657
   71CHL1  H15B 7680   3.152   5.204   7.559 -0.4407  0.4858  3.5241
   71CHL1   C16 7681   3.114   5.063   7.721 -0.0674 -0.3087  0.4431
   71CHL1  H16A 7682   3.191   5.056   7.801  1.3070  1.5049 -0.6436
   71CHL1  H16B 7683   3.046   5.145   7.750  1.9583  1.2114  1.1344
   71CHL1   C17 7684   3.039   4.933   7.706 -0.1781 -0.0483 -0.2127
   71CHL1   H17 7685   2.938   4.952   7.664  0.7885  3.4585 -1.2823
   71CHL1   C13 7686   3.103   4.867   7.579 -0.3129 -0.0142  0.1244
   71CHL1   C18 7687   3.241   4.808   7.626 -0.4025  0.5501 -0.0927
   71CHL1  H18A 7688   3.224   4.722   7.695 -2.2190  1.9381  1.2977
   71CHL1  H18B 7689   3.303   4.764   7.545 -1.1355 -1.1024  0.2045
   71CHL1  H18C 7690   3.299   4.887   7.678 -1.0415  1.0585 -0.1369
   71CHL1   C12 7691   3.016   4.772   7.493  0.3201 -0.3970  0.0182
   71CHL1  H12A 7692   3.004   4.683   7.558 -0.8274 -0.2564  0.0123
   71CHL1  H12B 7693   2.912   4.808   7.480 -1.1631 -4.0990  0.3469
   71CHL1   C11 7694   3.096   4.727   7.361 -0.2302  0.0852 -0.5279
   71CHL1  H11A 7695   3.163   4.642   7.385  0.5156  1.2245  1.7313
   71CHL1  H11B 7696   3.018   4.687   7.294 -1.4409  0.6728  0.4773
   71CHL1    C9 7697   3.147   4.852   7.281  0.0135 -0.7003 -0.5226
   71CHL1    H9 7698   3.057   4.905   7.243 -0.2355  1.5990  2.8685
   71CHL1   C10 7699   3.230   4.813   7.153  0.3240 -0.5435  0.4317
   71CHL1   C19 7700   3.335   4.706   7.184  0.1277  0.1081  0.1248
   71CHL1  H19A 7701   3.296   4.630   7.255 -0.3442  2.2382  2.2963
   71CHL1  H19B 7702   3.370   4.659   7.090  1.3786 -1.0258  1.1119
   71CHL1  H19C 7703   3.420   4.756   7.236  0.0570  0.6666 -0.2871
   71CHL1    C1 7704   3.121   4.763   7.053  0.7601 -0.3509 -0.4797
   71CHL1   H1A 7705   3.092   4.665   7.096  2.4621 -0.4275  0.6124
   71CHL1   H1B 7706   3.042   4.840   7.046  0.6369 -0.1387  2.1421
   71CHL1    C2 7707   3.156   4.727   6.905  0.9702  0.3906 -0.4868
   71CHL1   H2A 7708   3.059   4.718   6.852  0.6680  1.2945 -0.0917
   71CHL1   H2B 7709   3.210   4.629   6.900 -0.8795 -0.6266 -1.5231
   71CHL1   C20 7710   3.010   4.859   7.837  0.0239  0.4764 -0.2692
   71CHL1   H20 7711   3.103   4.822   7.885 -1.2762 -2.2311  0.3061
   71CHL1   C21 7712   2.923   4.735   7.825  0.1866  0.5591  0.8089
   71CHL1  H21A 7713   2.818   4.767   7.803  0.1500 -0.8473 -1.4161
   71CHL1  H21B 7714   2.910   4.673   7.916 -0.3020 -1.6131 -0.6697
   71CHL1  H21C 7715   2.955   4.663   7.747  0.6274  1.0581  0.5234
   71CHL1   C22 7716   2.944   4.949   7.937  0.1506 -0.2532  0.2743
   71CHL1  H22A 7717   2.866   5.021   7.903 -1.8299 -1.8077  1.2644
   71CHL1  H22B 7718   2.895   4.873   8.003 -0.1098 -2.4620 -2.3034
   71CHL1   C23 7719   3.039   5.035   8.023  0.2184 -0.4289  0.1362
   71CHL1  H23A 7720   3.136   4.984   8.043  0.9838  0.6024 -0.8111
   71CHL1  H23B 7721   3.065   5.129   7.970 -2.0814  0.3339  0.2531
   71CHL1   C24 7722   2.980   5.092   8.153 -0.0119  0.2881  0.0969
   71CHL1  H24A 7723   2.877   5.132   8.148 -0.8785 -1.6432  1.3488
   71CHL1  H24B 7724   2.965   5.005   8.221  0.5312 -0.2239 -0.4231
   71CHL1   C25 7725   3.068   5.184   8.243  0.3763 -1.1020 -0.7559
   71CHL1   H25 7726   3.160   5.126   8.262  1.0692 -0.2034 -1.2719
   71CHL1   C26 7727   3.105   5.317   8.174  0.3003 -0.3076 -0.7158
   71CHL1  H26A 7728   3.179   5.307   8.093 -1.0951  0.3390 -2.1256
   71CHL1  H26B 7729   3.026   5.380   8.128  0.7056  2.0867  1.5952
   71CHL1  H26C 7730   3.167   5.382   8.240 -1.2848 -1.3120  1.9744
   71CHL1   C27 7731   2.998   5.201   8.377  0.1310 -0.6364 -0.2612
   71CHL1  H27A 7732   2.946   5.111   8.415  0.3143 -1.0948 -1.0701
   71CHL1  H27B 7733   3.081   5.228   8.446  0.3797 -0.5351 -0.5963
   71CHL1  H27C 7734   2.927   5.286   8.378  1.2426  0.3266  1.9379
   72CHL1    C3 7735   3.879   3.388   7.010 -0.6029 -0.7975 -0.1519
   72CHL1    H3 7736   3.777   3.347   7.001 -1.3120  0.5891  1.0497
   72CHL1    O3 7737   3.938   3.455   6.899  0.0956 -0.1274  0.2894
   72CHL1   H3' 7738   4.023   3.492   6.923  0.5213  1.7365 -3.3279
   72CHL1    C4 7739   3.891   3.490   7.126 -0.1721  0.1348  0.0575
   72CHL1   H4A 7740   3.987   3.544   7.112  0.1836 -0.6499 -0.6104
   72CHL1   H4B 7741   3.811   3.563   7.099  0.8387 -0.1947 -4.5672
   72CHL1    C5 7742   3.877   3.445   7.272  0.0242 -0.2855 -0.0740
   72CHL1    C6 7743   3.790   3.503   7.366  0.3108  0.5026  0.2776
   72CHL1    H6 7744   3.714   3.576   7.335  0.9261  1.5645  1.1973
   72CHL1    C7 7745   3.794   3.451   7.512  0.4080 -0.4290 -0.2123
   72CHL1   H7A 7746   3.789   3.536   7.584 -0.7026 -1.4145  0.9341
   72CHL1   H7B 7747   3.711   3.380   7.532  0.2564 -0.3848 -0.6861
   72CHL1    C8 7748   3.918   3.368   7.548 -0.3416 -0.5488  0.3452
   72CHL1    H8 7749   4.006   3.435   7.552 -0.9981  0.6118 -2.3699
   72CHL1   C14 7750   3.911   3.299   7.680  0.4490  0.1678 -0.6385
   72CHL1   H14 7751   3.822   3.233   7.678 -0.7382  1.7300 -1.1224
   72CHL1   C15 7752   3.875   3.388   7.809 -1.0556 -0.2629  0.2765
   72CHL1  H15A 7753   3.946   3.473   7.805 -3.0848  1.5369  0.9747
   72CHL1  H15B 7754   3.768   3.415   7.812 -1.4177 -1.6365  0.9744
   72CHL1   C16 7755   3.912   3.295   7.925  0.2436 -0.1723 -0.1891
   72CHL1  H16A 7756   3.959   3.350   8.009 -1.8611  1.3164  0.0901
   72CHL1  H16B 7757   3.818   3.243   7.955  0.9362 -1.3140  0.0295
   72CHL1   C17 7758   4.003   3.185   7.862  0.4670  0.1924 -0.3359
   72CHL1   H17 7759   3.940   3.094   7.854  0.0252  0.6437 -2.7880
   72CHL1   C13 7760   4.036   3.225   7.718 -0.4326  0.2814 -0.8443
   72CHL1   C18 7761   4.172   3.315   7.722 -0.2129  0.2784 -0.1299
   72CHL1  H18A 7762   4.248   3.235   7.716 -1.3968 -0.8962  0.1292
   72CHL1  H18B 7763   4.176   3.370   7.625 -0.0273 -0.1037 -0.3415
   72CHL1  H18C 7764   4.191   3.377   7.812  2.2274 -0.3495 -0.1219
   72CHL1   C12 7765   4.048   3.113   7.616  0.3052  0.4565 -0.4955
   72CHL1  H12A 7766   4.140   3.060   7.648 -1.6951 -2.2769  1.1971
   72CHL1  H12B 7767   3.957   3.049   7.617  0.2246  0.4904 -2.5318
   72CHL1   C11 7768   4.064   3.172   7.474  0.0786 -0.0357 -0.1267
   72CHL1  H11A 7769   4.166   3.218   7.472  0.0944  0.0245  1.3094
   72CHL1  H11B 7770   4.074   3.084   7.407 -0.1418 -1.1004  1.1899
   72CHL1    C9 7771   3.950   3.272   7.434  0.2481 -0.5060 -0.0840
   72CHL1    H9 7772   3.858   3.210   7.428  0.4295 -1.2360  3.0426
   72CHL1   C10 7773   3.978   3.334   7.296  0.1411 -0.1516 -0.3047
   72CHL1   C19 7774   4.125   3.388   7.293  0.2472  0.1106 -0.1961
   72CHL1  H19A 7775   4.153   3.461   7.213  0.7527  0.2489  0.1015
   72CHL1  H19B 7776   4.146   3.445   7.386 -2.0501  1.3988 -0.4026
   72CHL1  H19C 7777   4.202   3.311   7.269 -0.9904 -0.8938 -1.1040
   72CHL1    C1 7778   3.960   3.223   7.190  0.3544  0.5864 -0.1145
   72CHL1   H1A 7779   4.024   3.135   7.212  0.6691  0.5420 -1.1960
   72CHL1   H1B 7780   3.857   3.185   7.210  0.0664  0.8849 -1.0254
   72CHL1    C2 7781   3.972   3.268   7.042 -0.2236  0.3912  0.2411
   72CHL1   H2A 7782   3.951   3.179   6.980 -0.7997  0.6563  0.0477
   72CHL1   H2B 7783   4.073   3.309   7.017 -2.0261  4.0349 -1.9397
   72CHL1   C20 7784   4.123   3.131   7.940  1.0477  0.3081 -0.2092
   72CHL1   H20 7785   4.199   3.079   7.878  0.3360 -1.5450  0.4050
   72CHL1   C21 7786   4.076   3.002   8.019 -0.0060 -0.0993  0.5225
   72CHL1  H21A 7787   4.154   2.952   8.080  3.0427  0.4564 -2.6189
   72CHL1  H21B 7788   4.041   2.919   7.953 -0.8396  0.1320  0.6616
   72CHL1  H21C 7789   3.989   3.031   8.081 -0.7655 -0.6243 -0.2609
   72CHL1   C22 7790   4.191   3.231   8.038  0.2275  0.1754 -0.0926
   72CHL1  H22A 7791   4.173   3.333   7.999  2.0792  1.3781  1.9669
   72CHL1  H22B 7792   4.136   3.221   8.134 -0.3278 -0.3057 -0.4503
   72CHL1   C23 7793   4.338   3.207   8.050  0.8620  0.2596 -0.1482
   72CHL1  H23A 7794   4.356   3.097   8.052  0.2644 -0.0459 -4.0023
   72CHL1  H23B 7795   4.403   3.232   7.964  1.3073  0.3909  0.2177
   72CHL1   C24 7796   4.397   3.283   8.169 -0.5314 -0.2205 -0.5457
   72CHL1  H24A 7797   4.429   3.386   8.142  5.5504 -2.2781 -2.7699
   72CHL1  H24B 7798   4.328   3.291   8.256  0.0113 -0.8883 -0.0424
   72CHL1   C25 7799   4.514   3.199   8.231  0.2276 -0.3209  0.2027
   72CHL1   H25 7800   4.467   3.103   8.262  1.1268 -0.4416  1.2763
   72CHL1   C26 7801   4.626   3.171   8.128 -0.0439  0.0087 -0.8957
   72CHL1  H26A 7802   4.715   3.123   8.173 -1.9538 -1.4182  1.6443
   72CHL1  H26B 7803   4.587   3.116   8.040 -0.8420  1.4430 -1.4790
   72CHL1  H26C 7804   4.655   3.270   8.086  0.8094  0.6543  1.0647
   72CHL1   C27 7805   4.560   3.286   8.353  0.4804  0.2889  0.7048
   72CHL1  H27A 7806   4.656   3.251   8.395  1.0923  2.2715  1.0814
   72CHL1  H27B 7807   4.587   3.389   8.319 -2.3663  0.6858 -0.6597
   72CHL1  H27C 7808   4.479   3.300   8.428 -0.0804 -1.5637  0.4753
   73CHL1    C3 7809   1.600   5.175   6.816  0.4961 -0.2458 -0.4353
   73CHL1    H3 7810   1.512   5.242   6.821  0.6774 -0.0819  1.6899
   73CHL1    O3 7811   1.625   5.166   6.678  0.1823 -0.4134 -0.2182
   73CHL1   H3' 7812   1.694   5.099   6.669  1.2571  0.5261  0.8278
   73CHL1    C4 7813   1.728   5.237   6.883 -1.0188 -0.2605 -0.4204
   73CHL1   H4A 7814   1.811   5.166   6.860 -1.6715 -0.8276 -1.0750
   73CHL1   H4B 7815   1.751   5.333   6.833 -2.5975 -0.3296 -1.3221
   73CHL1    C5 7816   1.697   5.253   7.029 -1.0922  0.5229 -0.3060
   73CHL1    C6 7817   1.678   5.373   7.095 -0.0850 -0.0814 -0.1658
   73CHL1    H6 7818   1.692   5.473   7.052 -1.6478  0.2570  0.0640
   73CHL1    C7 7819   1.640   5.382   7.240  1.1049 -0.1534 -0.1465
   73CHL1   H7A 7820   1.682   5.478   7.278 -0.6790  0.2109  1.0533
   73CHL1   H7B 7821   1.529   5.390   7.238  0.8862 -2.6112 -1.9856
   73CHL1    C8 7822   1.691   5.255   7.321  0.2276 -1.0452 -0.0477
   73CHL1    H8 7823   1.801   5.254   7.311  0.3939  0.4952  1.2275
   73CHL1   C14 7824   1.652   5.260   7.464  1.0264 -0.0186 -0.2714
   73CHL1   H14 7825   1.542   5.268   7.470  1.1338  1.5600  0.0652
   73CHL1   C15 7826   1.686   5.388   7.549 -0.6087  0.5536  0.1337
   73CHL1  H15A 7827   1.794   5.411   7.547 -0.8804  1.9162  0.0002
   73CHL1  H15B 7828   1.628   5.479   7.523 -2.3478 -0.0266  1.6961
   73CHL1   C16 7829   1.663   5.332   7.692  0.1918 -0.1163 -0.0984
   73CHL1  H16A 7830   1.747   5.362   7.758  1.1658 -0.8834 -0.9565
   73CHL1  H16B 7831   1.582   5.389   7.742  1.0826  0.9818  0.1199
   73CHL1   C17 7832   1.634   5.183   7.687 -0.5905 -0.3553  0.0875
   73CHL1   H17 7833   1.525   5.161   7.687 -0.3353 -2.0924  2.4340
   73CHL1   C13 7834   1.683   5.138   7.546 -0.3299 -0.7233 -0.2323
   73CHL1   C18 7835   1.834   5.109   7.559  0.8230  0.7352  0.4868
   73CHL1  H18A 7836   1.860   5.019   7.618  0.3875  0.5945  0.4653
   73CHL1  H18B 7837   1.869   5.085   7.456 -0.6355  2.9491 -0.5926
   73CHL1  H18C 7838   1.898   5.186   7.609  1.5667  0.2870  0.2456
   73CHL1   C12 7839   1.608   5.023   7.491 -0.7290  0.5949 -0.2572
   73CHL1  H12A 7840   1.635   4.928   7.542 -0.2270  1.6966  1.6363
   73CHL1  H12B 7841   1.502   5.044   7.515 -1.2036 -2.1323  0.3646
   73CHL1   C11 7842   1.629   4.996   7.343 -0.5485 -0.0727 -0.7608
   73CHL1  H11A 7843   1.731   4.956   7.329 -0.1148  0.9088 -0.4594
   73CHL1  H11B 7844   1.569   4.914   7.297 -0.3259 -0.0019 -1.1852
   73CHL1    C9 7845   1.628   5.127   7.254 -0.6038 -1.2881  0.0918
   73CHL1    H9 7846   1.524   5.165   7.261  0.4787  2.3203 -1.3519
   73CHL1   C10 7847   1.676   5.116   7.104 -0.5448 -0.1638 -0.7405
   73CHL1   C19 7848   1.804   5.042   7.095 -0.7116  0.3068 -0.3462
   73CHL1  H19A 7849   1.792   4.938   7.130  1.6718 -0.4908 -1.6204
   73CHL1  H19B 7850   1.847   5.025   6.994  0.0065  0.7661 -0.1300
   73CHL1  H19C 7851   1.886   5.092   7.152 -0.0687 -0.6929 -0.3710
   73CHL1    C1 7852   1.567   5.043   7.033  0.4369 -0.7568  0.2239
   73CHL1   H1A 7853   1.552   4.941   7.073  1.0211 -0.8859  0.1242
   73CHL1   H1B 7854   1.476   5.097   7.066  2.7922  2.1620  2.5002
   73CHL1    C2 7855   1.586   5.040   6.879 -0.1046 -0.3342  0.2385
   73CHL1   H2A 7856   1.504   4.995   6.819  0.1550 -0.9439  0.3370
   73CHL1   H2B 7857   1.674   4.973   6.867  0.0657 -0.1329  0.3576
   73CHL1   C20 7858   1.694   5.114   7.818 -1.5105 -0.0068  0.6060
   73CHL1   H20 7859   1.805   5.127   7.816 -1.3958 -0.9790 -0.7517
   73CHL1   C21 7860   1.680   4.967   7.818 -0.1127  0.1594  0.1422
   73CHL1  H21A 7861   1.569   4.963   7.818 -0.2286  0.9095  2.7627
   73CHL1  H21B 7862   1.724   4.921   7.910 -3.4891  1.0492  2.3916
   73CHL1  H21C 7863   1.731   4.915   7.735  0.8649  1.3365 -0.0286
   73CHL1   C22 7864   1.634   5.172   7.952  0.2734 -0.2089  0.1739
   73CHL1  H22A 7865   1.644   5.281   7.935 -2.5048 -0.1646 -1.9281
   73CHL1  H22B 7866   1.527   5.143   7.956  0.3348 -0.3635  0.8357
   73CHL1   C23 7867   1.709   5.128   8.086  0.1451 -0.6417  0.9471
   73CHL1  H23A 7868   1.710   5.017   8.094  3.2666 -1.0319 -2.3874
   73CHL1  H23B 7869   1.814   5.164   8.084 -1.0302  3.1482  1.2813
   73CHL1   C24 7870   1.634   5.203   8.198  0.1160  0.0888 -0.3449
   73CHL1  H24A 7871   1.639   5.309   8.166 -0.0048 -0.1678 -1.2364
   73CHL1  H24B 7872   1.533   5.161   8.179  0.0168 -1.0950  2.3156
   73CHL1   C25 7873   1.667   5.178   8.347  0.7838  0.6239 -0.3253
   73CHL1   H25 7874   1.775   5.191   8.368  0.2341  0.0353  3.8012
   73CHL1   C26 7875   1.598   5.278   8.441  0.3503 -0.4350 -0.8016
   73CHL1  H26A 7876   1.630   5.383   8.422  0.6227 -0.1742  0.9810
   73CHL1  H26B 7877   1.488   5.271   8.426 -0.0151  2.6525 -0.3606
   73CHL1  H26C 7878   1.630   5.263   8.546  1.2182  2.5771 -0.5449
   73CHL1   C27 7879   1.612   5.033   8.380  0.0374  0.6611 -0.5076
   73CHL1  H27A 7880   1.634   5.021   8.488  1.8756 -0.0267 -0.9202
   73CHL1  H27B 7881   1.506   5.028   8.348 -0.2401  2.8139 -0.0772
   73CHL1  H27C 7882   1.675   4.958   8.326  2.2923  1.1421  1.2826
   74CHL1    C3 7883   3.274   4.248   6.885  0.0193 -0.2815  0.4524
   74CHL1    H3 7884   3.356   4.319   6.864 -1.1841  1.0207 -0.0083
   74CHL1    O3 7885   3.230   4.186   6.763 -0.3741 -0.4807 -0.0424
   74CHL1   H3' 7886   3.213   4.093   6.781 -0.7157 -0.2947  0.6253
   74CHL1    C4 7887   3.324   4.144   6.978 -0.1169  0.2869  0.2612
   74CHL1   H4A 7888   3.249   4.064   6.999  0.3248 -0.1588  0.1552
   74CHL1   H4B 7889   3.417   4.101   6.935 -0.5102 -1.2174  0.8415
   74CHL1    C5 7890   3.361   4.202   7.108 -0.7256 -0.6328 -0.6335
   74CHL1    C6 7891   3.489   4.204   7.157  0.2071  0.1821  0.0797
   74CHL1    H6 7892   3.570   4.165   7.094 -0.0119  0.0660 -0.1314
   74CHL1    C7 7893   3.532   4.242   7.292  0.0959 -0.0744  0.5548
   74CHL1   H7A 7894   3.604   4.171   7.338  0.3111 -0.9092 -1.0064
   74CHL1   H7B 7895   3.581   4.342   7.285  2.2530 -1.1338 -0.3269
   74CHL1    C8 7896   3.411   4.260   7.385 -0.2872 -0.3253  0.1124
   74CHL1    H8 7897   3.382   4.154   7.403  0.8148 -0.9450 -1.4811
   74CHL1   C14 7898   3.457   4.332   7.512 -0.3575 -0.0126 -0.2139
   74CHL1   H14 7899   3.481   4.433   7.473 -0.8449  0.5503  0.9188
   74CHL1   C15 7900   3.581   4.279   7.591  0.7548  0.7653  0.6995
   74CHL1  H15A 7901   3.569   4.169   7.597 -1.0082  0.9904  2.1148
   74CHL1  H15B 7902   3.675   4.298   7.534 -0.9105  1.1869 -2.0674
   74CHL1   C16 7903   3.572   4.332   7.728 -0.2908 -0.3726 -0.7690
   74CHL1  H16A 7904   3.601   4.245   7.791  2.4632  1.3553  0.4924
   74CHL1  H16B 7905   3.634   4.423   7.731 -1.0336  0.1598 -1.1837
   74CHL1   C17 7906   3.422   4.399   7.738 -0.5620  0.2335 -0.5175
   74CHL1   H17 7907   3.425   4.509   7.726 -0.5924  0.1177 -1.7196
   74CHL1   C13 7908   3.343   4.340   7.618 -0.7332  0.2054  0.8085
   74CHL1   C18 7909   3.299   4.200   7.657 -0.0706  0.0053 -0.5153
   74CHL1  H18A 7910   3.266   4.150   7.563 -0.4059  1.0477 -0.9546
   74CHL1  H18B 7911   3.389   4.145   7.695 -2.8207 -3.9537  0.8931
   74CHL1  H18C 7912   3.223   4.197   7.738  1.4455 -2.5781  0.9824
   74CHL1   C12 7913   3.228   4.427   7.560  0.5197 -0.2766  0.2382
   74CHL1  H12A 7914   3.151   4.451   7.636 -1.3450 -2.4934 -0.8441
   74CHL1  H12B 7915   3.268   4.522   7.521 -0.3550 -0.3946 -0.9830
   74CHL1   C11 7916   3.178   4.357   7.424  0.3062 -0.7932 -0.8634
   74CHL1  H11A 7917   3.128   4.266   7.464  1.2668 -0.7965  0.3893
   74CHL1  H11B 7918   3.102   4.419   7.372 -1.8455 -2.7241 -0.1791
   74CHL1    C9 7919   3.285   4.330   7.318  0.6891 -0.3887  0.5195
   74CHL1    H9 7920   3.327   4.430   7.298  1.0591 -0.1270  2.3820
   74CHL1   C10 7921   3.241   4.259   7.187 -0.1470 -0.3942 -0.8884
   74CHL1   C19 7922   3.127   4.159   7.217 -0.4195 -0.8449  0.5419
   74CHL1  H19A 7923   3.163   4.076   7.282 -1.0511 -1.7618 -0.2527
   74CHL1  H19B 7924   3.047   4.224   7.260  1.7063  2.4096 -0.0875
   74CHL1  H19C 7925   3.080   4.120   7.124 -0.5169  0.1764  0.1482
   74CHL1    C1 7926   3.193   4.371   7.088  0.3426  0.5189 -0.5387
   74CHL1   H1A 7927   3.114   4.431   7.137  1.8564  3.0479 -0.9960
   74CHL1   H1B 7928   3.272   4.447   7.072 -1.2627  2.6165  1.0072
   74CHL1    C2 7929   3.157   4.318   6.948 -0.0133 -1.0547 -0.3213
   74CHL1   H2A 7930   3.132   4.406   6.885  0.9908 -1.0414 -0.7163
   74CHL1   H2B 7931   3.067   4.254   6.963  1.4480 -2.7610  1.7128
   74CHL1   C20 7932   3.374   4.373   7.886  0.1909  0.1483  0.3550
   74CHL1   H20 7933   3.360   4.264   7.905  0.4375  0.4016  2.2236
   74CHL1   C21 7934   3.241   4.452   7.913  0.2474 -0.5126  0.0512
   74CHL1  H21A 7935   3.197   4.435   8.013 -0.3371 -0.8304 -0.2580
   74CHL1  H21B 7936   3.167   4.416   7.839  0.2376  0.0406 -0.2105
   74CHL1  H21C 7937   3.260   4.562   7.910  0.4337 -0.4422  2.2351
   74CHL1   C22 7938   3.485   4.422   7.988 -0.2287 -0.0318  0.6325
   74CHL1  H22A 7939   3.571   4.352   7.983 -0.4750 -0.3494  0.7457
   74CHL1  H22B 7940   3.528   4.521   7.962  0.0993 -0.2539  0.3112
   74CHL1   C23 7941   3.435   4.430   8.134  0.1436 -0.3377 -0.2209
   74CHL1  H23A 7942   3.513   4.471   8.202 -0.8572  1.2169  0.0629
   74CHL1  H23B 7943   3.346   4.496   8.144  0.6336  0.6458 -1.8664
   74CHL1   C24 7944   3.394   4.297   8.189 -0.1727  0.3992  1.2726
   74CHL1  H24A 7945   3.283   4.291   8.193 -0.1771 -0.0514  0.5397
   74CHL1  H24B 7946   3.419   4.207   8.129  1.7141  1.8248 -0.1708
   74CHL1   C25 7947   3.443   4.278   8.326  0.3101 -0.0511 -0.3519
   74CHL1   H25 7948   3.553   4.272   8.342  0.0457  0.7061  2.3106
   74CHL1   C26 7949   3.391   4.387   8.428 -0.2391 -0.5245  1.0634
   74CHL1  H26A 7950   3.433   4.376   8.530 -0.7440  0.9786  1.4584
   74CHL1  H26B 7951   3.417   4.489   8.394 -0.4481 -0.9221 -0.3444
   74CHL1  H26C 7952   3.280   4.385   8.436 -0.3070  0.9797  0.8610
   74CHL1   C27 7953   3.387   4.145   8.381 -1.2304 -0.7451 -0.1914
   74CHL1  H27A 7954   3.424   4.064   8.314  2.0936 -0.0103  0.5611
   74CHL1  H27B 7955   3.420   4.128   8.486  1.9667 -1.9219 -1.2521
   74CHL1  H27C 7956   3.277   4.151   8.380 -1.4088 -1.3152  3.2258
   75CHL1    C3 7957   6.158   0.733   6.723  0.3876 -0.5833  0.0645
   75CHL1    H3 7958   6.262   0.768   6.739  0.9505 -2.4219  0.6807
   75CHL1    O3 7959   6.135   0.740   6.580  0.6728 -0.2044 -0.2034
   75CHL1   H3' 7960   6.214   0.723   6.530 -0.1529 -1.5111 -1.1271
   75CHL1    C4 7961   6.144   0.591   6.781  0.1826 -0.4942 -0.3624
   75CHL1   H4A 7962   6.037   0.560   6.775  0.3421 -1.4175  1.1425
   75CHL1   H4B 7963   6.201   0.515   6.723  1.6856  0.2306  0.1261
   75CHL1    C5 7964   6.181   0.582   6.925  0.3572  0.4383 -1.0847
   75CHL1    C6 7965   6.281   0.506   6.979  0.0490  0.7855  0.5017
   75CHL1    H6 7966   6.329   0.438   6.907  0.5412  0.2569  1.3192
   75CHL1    C7 7967   6.309   0.485   7.122 -0.2297 -0.5059 -0.4185
   75CHL1   H7A 7968   6.314   0.376   7.142 -0.5712 -0.4383  0.0333
   75CHL1   H7B 7969   6.401   0.523   7.171  0.6406 -2.5182 -0.4010
   75CHL1    C8 7970   6.190   0.533   7.208  0.1359  0.5802 -0.1186
   75CHL1    H8 7971   6.115   0.452   7.192  1.2681 -0.4865 -0.2422
   75CHL1   C14 7972   6.224   0.534   7.358  0.1255 -0.2615 -0.2669
   75CHL1   H14 7973   6.309   0.602   7.382  1.1447 -2.4375  3.1790
   75CHL1   C15 7974   6.264   0.401   7.413  0.0192  0.0588  0.0021
   75CHL1  H15A 7975   6.191   0.320   7.391  2.0056 -1.4166 -1.5567
   75CHL1  H15B 7976   6.366   0.377   7.378  0.1489  0.5776  0.0187
   75CHL1   C16 7977   6.255   0.414   7.570 -0.1644  0.1013  0.7094
   75CHL1  H16A 7978   6.222   0.318   7.617  0.9655 -0.2596  0.7879
   75CHL1  H16B 7979   6.354   0.432   7.616  0.3701 -2.0688  0.5468
   75CHL1   C17 7980   6.171   0.541   7.597  0.1645 -0.1452 -0.0988
   75CHL1   H17 7981   6.242   0.625   7.615  0.3551 -0.3240 -0.0095
   75CHL1   C13 7982   6.109   0.581   7.451 -0.4050  0.2267  0.3564
   75CHL1   C18 7983   5.986   0.490   7.436  0.1796  0.4963  0.0459
   75CHL1  H18A 7984   5.999   0.385   7.470 -0.0501  0.1804 -0.8214
   75CHL1  H18B 7985   5.912   0.530   7.509 -0.7115  0.3149 -0.7407
   75CHL1  H18C 7986   5.944   0.489   7.333  1.0355 -1.9551 -0.3636
   75CHL1   C12 7987   6.070   0.725   7.416 -0.4938 -0.6372 -0.8528
   75CHL1  H12A 7988   5.986   0.757   7.482  1.8291  1.6401  1.2151
   75CHL1  H12B 7989   6.149   0.797   7.447  0.2574 -0.9426 -2.0102
   75CHL1   C11 7990   6.042   0.749   7.267 -0.6653 -0.3534  0.0345
   75CHL1  H11A 7991   5.936   0.717   7.252 -1.2359  0.8610  1.3356
   75CHL1  H11B 7992   6.033   0.855   7.234 -2.1571  0.0737  1.6655
   75CHL1    C9 7993   6.140   0.672   7.164 -0.2094 -0.1087  0.0225
   75CHL1    H9 7994   6.236   0.728   7.168 -0.0543 -0.2997 -0.7954
   75CHL1   C10 7995   6.090   0.675   7.015 -0.7710 -0.3767 -0.6261
   75CHL1   C19 7996   5.947   0.624   7.013  0.6194  0.3000  0.1445
   75CHL1  H19A 7997   5.873   0.684   7.069  2.2947  2.3919  0.2284
   75CHL1  H19B 7998   5.913   0.625   6.907  0.3704  0.4131  0.2257
   75CHL1  H19C 7999   5.955   0.518   7.045 -0.6955 -0.4209 -1.7765
   75CHL1    C1 8000   6.087   0.819   6.957 -0.2645  0.0203  0.5262
   75CHL1   H1A 8001   6.010   0.877   7.012 -1.4481 -1.0015 -0.0011
   75CHL1   H1B 8002   6.185   0.866   6.978 -1.7353  3.0374  1.1617
   75CHL1    C2 8003   6.055   0.819   6.798 -0.4018  0.4147  0.2099
   75CHL1   H2A 8004   6.060   0.927   6.771  1.6534  0.1112 -0.8995
   75CHL1   H2B 8005   5.954   0.776   6.789 -0.2305 -0.3900  1.7945
   75CHL1   C20 8006   6.089   0.529   7.733  0.0931 -0.1302  0.2231
   75CHL1   H20 8007   6.006   0.460   7.711 -0.4061 -0.0524  1.7276
   75CHL1   C21 8008   6.026   0.671   7.751  0.2500 -0.1675 -0.0337
   75CHL1  H21A 8009   6.102   0.751   7.756  1.2950 -1.0605 -1.1102
   75CHL1  H21B 8010   5.960   0.669   7.841 -1.4767  1.9484 -1.1471
   75CHL1  H21C 8011   5.963   0.711   7.668  1.2560 -2.6445 -2.1441
   75CHL1   C22 8012   6.177   0.491   7.852  0.2106  0.5936 -0.4591
   75CHL1  H22A 8013   6.231   0.395   7.836 -0.5480 -0.2038  1.3388
   75CHL1  H22B 8014   6.254   0.569   7.868 -0.6795  1.6371 -1.1132
   75CHL1   C23 8015   6.094   0.478   7.983  0.2487  0.6213 -0.5584
   75CHL1  H23A 8016   6.044   0.573   8.012 -0.7925  0.7674 -2.6603
   75CHL1  H23B 8017   6.015   0.400   7.985 -0.1686  0.9794  2.7742
   75CHL1   C24 8018   6.185   0.443   8.103  1.3078  0.0423 -0.3114
   75CHL1  H24A 8019   6.255   0.529   8.108 -1.1972  2.1626  1.2148
   75CHL1  H24B 8020   6.128   0.443   8.198 -0.4590  2.1594 -1.2615
   75CHL1   C25 8021   6.262   0.309   8.104  0.3644  0.1437 -0.1068
   75CHL1   H25 8022   6.336   0.304   8.021  1.6351 -0.3627  1.0370
   75CHL1   C26 8023   6.347   0.295   8.228 -1.2655  0.0587 -0.5420
   75CHL1  H26A 8024   6.289   0.316   8.321 -0.8923  0.7375 -0.4605
   75CHL1  H26B 8025   6.401   0.198   8.232  0.6882  1.0990 -0.6012
   75CHL1  H26C 8026   6.430   0.366   8.214 -0.1477 -1.5053 -2.2701
   75CHL1   C27 8027   6.177   0.188   8.101 -0.0945 -0.2694  0.1616
   75CHL1  H27A 8028   6.118   0.168   8.193 -1.4923 -0.5079 -0.7655
   75CHL1  H27B 8029   6.104   0.212   8.021 -0.5109  2.6230  1.2887
   75CHL1  H27C 8030   6.224   0.090   8.078 -2.3734 -2.1695  2.8906
   76CHL1    C3 8031   2.214   2.887   7.417 -0.4128 -0.1837  0.7077
   76CHL1    H3 8032   2.234   2.779   7.400 -0.9390  0.0728 -2.1240
   76CHL1    O3 8033   2.157   2.940   7.299 -0.8196 -0.6374 -0.3965
   76CHL1   H3' 8034   2.069   2.965   7.327 -0.8583 -0.0881 -1.0009
   76CHL1    C4 8035   2.108   2.900   7.532 -0.5910  0.3192  0.0783
   76CHL1   H4A 8036   2.073   3.005   7.539  3.3885  1.7953  0.4857
   76CHL1   H4B 8037   2.018   2.848   7.491  0.3336 -0.5285 -0.9433
   76CHL1    C5 8038   2.160   2.846   7.666 -0.3165 -0.1613  0.3531
   76CHL1    C6 8039   2.097   2.749   7.731  0.3753  0.2324  0.1414
   76CHL1    H6 8040   2.005   2.703   7.692  1.8002 -2.1918 -0.6473
   76CHL1    C7 8041   2.140   2.701   7.867  0.2901 -0.2415  0.0458
   76CHL1   H7A 8042   2.048   2.687   7.928 -0.8207  0.0483 -1.5032
   76CHL1   H7B 8043   2.197   2.607   7.852  0.6407  0.3655 -2.9133
   76CHL1    C8 8044   2.245   2.796   7.929 -0.3790 -0.0751  0.4437
   76CHL1    H8 8045   2.195   2.891   7.958  0.8107  0.0501  2.2762
   76CHL1   C14 8046   2.309   2.727   8.051  0.1738  0.2846  0.1880
   76CHL1   H14 8047   2.381   2.650   8.015  1.2148  1.1569  0.3555
   76CHL1   C15 8048   2.209   2.662   8.135  0.7296 -0.3913 -1.0779
   76CHL1  H15A 8049   2.130   2.736   8.160  0.1360 -1.3096 -0.1304
   76CHL1  H15B 8050   2.157   2.568   8.105 -1.0327 -0.2858  1.3734
   76CHL1   C16 8051   2.269   2.660   8.274  0.2018  0.7171 -0.5128
   76CHL1  H16A 8052   2.208   2.732   8.333  0.5626  0.4974  0.1509
   76CHL1  H16B 8053   2.278   2.556   8.314  0.2029  0.9970  0.2426
   76CHL1   C17 8054   2.412   2.714   8.259 -0.3698 -0.2056  0.2520
   76CHL1   H17 8055   2.471   2.630   8.216 -1.1091  0.0892 -1.4160
   76CHL1   C13 8056   2.398   2.809   8.137  0.6261 -0.1639  0.5657
   76CHL1   C18 8057   2.327   2.942   8.179 -0.3294 -0.7462 -0.8100
   76CHL1  H18A 8058   2.393   3.006   8.241 -1.5174  0.4275 -0.6867
   76CHL1  H18B 8059   2.309   2.995   8.083 -1.9345 -1.6285 -1.0368
   76CHL1  H18C 8060   2.235   2.926   8.239 -0.0744  1.7233  0.3548
   76CHL1   C12 8061   2.518   2.847   8.046  0.7066 -0.4848 -0.7295
   76CHL1  H12A 8062   2.567   2.936   8.091 -1.6859  0.8519 -0.6050
   76CHL1  H12B 8063   2.577   2.753   8.052  0.7901 -0.3355  1.6827
   76CHL1   C11 8064   2.479   2.898   7.900  0.9347  1.0280  0.3808
   76CHL1  H11A 8065   2.457   3.005   7.923 -0.1856  0.5345  1.7555
   76CHL1  H11B 8066   2.564   2.886   7.830  0.7648 -1.1976  0.4813
   76CHL1    C9 8067   2.354   2.831   7.827  0.4294 -0.4302  0.0491
   76CHL1    H9 8068   2.393   2.733   7.792 -1.3389 -0.7873 -1.0434
   76CHL1   C10 8069   2.296   2.906   7.706  0.4427 -0.3567  0.2447
   76CHL1   C19 8070   2.267   3.053   7.744 -0.3895 -0.1486  0.2460
   76CHL1  H19A 8071   2.356   3.115   7.766 -1.6446  1.2187  1.6634
   76CHL1  H19B 8072   2.216   3.111   7.664  1.1968 -0.0042 -0.7220
   76CHL1  H19C 8073   2.208   3.066   7.837 -0.1136  1.2463  0.2539
   76CHL1    C1 8074   2.403   2.908   7.595  0.6711 -0.2367  0.8528
   76CHL1   H1A 8075   2.497   2.963   7.619  1.8765 -0.9246 -1.8775
   76CHL1   H1B 8076   2.438   2.805   7.576  4.5362  1.0374  0.0382
   76CHL1    C2 8077   2.347   2.961   7.456  0.0099  0.1276 -0.1816
   76CHL1   H2A 8078   2.428   2.922   7.390 -0.7067  1.0222 -1.6536
   76CHL1   H2B 8079   2.348   3.073   7.457  2.7325  0.1956  1.9362
   76CHL1   C20 8080   2.479   2.767   8.379  0.4066  0.2018 -0.0567
   76CHL1   H20 8081   2.430   2.862   8.410  0.6193  0.7954 -1.4939
   76CHL1   C21 8082   2.621   2.804   8.351 -0.0098 -0.5377 -0.3439
   76CHL1  H21A 8083   2.629   2.885   8.276 -2.0697  1.6604  1.6582
   76CHL1  H21B 8084   2.692   2.722   8.328  2.0970  0.9754  0.4662
   76CHL1  H21C 8085   2.672   2.857   8.434  0.2825  1.4802 -1.7440
   76CHL1   C22 8086   2.474   2.673   8.508  0.7239 -0.0260  0.2825
   76CHL1  H22A 8087   2.379   2.616   8.506  0.0992  1.0067 -1.3056
   76CHL1  H22B 8088   2.545   2.589   8.489 -2.9824 -3.5103  0.3731
   76CHL1   C23 8089   2.515   2.734   8.642 -0.7524  0.1250 -0.0970
   76CHL1  H23A 8090   2.624   2.754   8.631 -0.8144  0.5690  0.0654
   76CHL1  H23B 8091   2.463   2.830   8.661  2.6259  1.9805  0.6138
   76CHL1   C24 8092   2.492   2.642   8.764 -0.1940  0.3853  0.2487
   76CHL1  H24A 8093   2.387   2.657   8.795  0.7565  1.0808  3.4921
   76CHL1  H24B 8094   2.505   2.540   8.723 -0.3578  1.1636 -1.8925
   76CHL1   C25 8095   2.593   2.659   8.879 -0.3757  0.0976 -0.3449
   76CHL1   H25 8096   2.690   2.612   8.853 -0.1654 -0.0788  0.7257
   76CHL1   C26 8097   2.631   2.811   8.906  0.0335  0.0491 -0.0621
   76CHL1  H26A 8098   2.698   2.846   8.824  1.5472 -1.2888  0.5564
   76CHL1  H26B 8099   2.548   2.879   8.932  1.5259  2.1085 -0.4346
   76CHL1  H26C 8100   2.691   2.812   8.999  0.7235 -0.5888 -0.4868
   76CHL1   C27 8101   2.546   2.588   9.002 -0.7189  0.2827  0.0556
   76CHL1  H27A 8102   2.631   2.603   9.073 -1.6111 -0.0005  1.2094
   76CHL1  H27B 8103   2.464   2.656   9.033 -1.8532 -0.2713 -1.6279
   76CHL1  H27C 8104   2.521   2.480   8.992  2.3521 -0.4947 -0.3768
   77CHL1    C3 8105   2.625   6.649   6.939 -0.0850 -0.0272 -0.7145
   77CHL1    H3 8106   2.532   6.688   6.986  1.2883  1.3379  0.9885
   77CHL1    O3 8107   2.621   6.688   6.802 -0.2894  0.0103 -0.6156
   77CHL1   H3' 8108   2.705   6.662   6.761 -0.8083  2.6424 -3.8195
   77CHL1    C4 8109   2.746   6.722   7.001  0.0171 -0.6362 -1.1627
   77CHL1   H4A 8110   2.840   6.695   6.948  2.6872 -1.4479  3.4442
   77CHL1   H4B 8111   2.730   6.832   7.005 -1.2104 -0.8417  0.6972
   77CHL1    C5 8112   2.768   6.677   7.142  0.4195  0.8078  0.0339
   77CHL1    C6 8113   2.783   6.762   7.250 -0.3929 -0.3321 -0.7291
   77CHL1    H6 8114   2.781   6.871   7.231 -0.0279  0.2084  1.9078
   77CHL1    C7 8115   2.805   6.721   7.395 -0.2608 -0.9422 -0.2595
   77CHL1   H7A 8116   2.874   6.786   7.452 -1.4994  1.1416 -1.0107
   77CHL1   H7B 8117   2.715   6.728   7.459 -0.1070 -0.2822 -0.1151
   77CHL1    C8 8118   2.860   6.577   7.401 -0.3937 -0.5532 -0.3392
   77CHL1    H8 8119   2.965   6.566   7.366 -0.2471 -2.3055  0.5086
   77CHL1   C14 8120   2.846   6.544   7.551  0.2433 -0.0322  0.1638
   77CHL1   H14 8121   2.736   6.546   7.566  0.2134  0.9172 -0.0924
   77CHL1   C15 8122   2.919   6.628   7.658  0.2972  0.1211  0.7220
   77CHL1  H15A 8123   3.014   6.664   7.613 -1.1540  4.1675  0.3954
   77CHL1  H15B 8124   2.873   6.728   7.677  1.4783  0.5712  1.3333
   77CHL1   C16 8125   2.934   6.540   7.780 -0.5619 -0.9814 -0.0649
   77CHL1  H16A 8126   3.041   6.521   7.802 -0.7813  0.1918  2.2152
   77CHL1  H16B 8127   2.886   6.583   7.870 -0.4488  0.3395 -0.6085
   77CHL1   C17 8128   2.880   6.398   7.741  0.5477  0.1421  0.5023
   77CHL1   H17 8129   2.771   6.401   7.760  0.9668  2.9126  3.3531
   77CHL1   C13 8130   2.887   6.394   7.585  0.0690 -0.1256  0.3079
   77CHL1   C18 8131   3.044   6.375   7.554  0.8424  0.1113  0.7826
   77CHL1  H18A 8132   3.100   6.457   7.603 -0.8620  1.2305  0.9256
   77CHL1  H18B 8133   3.084   6.283   7.602  0.0743 -0.0119  1.1952
   77CHL1  H18C 8134   3.065   6.388   7.445  0.4439 -0.7281  0.5993
   77CHL1   C12 8135   2.798   6.300   7.504 -0.1354  0.1383  0.3545
   77CHL1  H12A 8136   2.828   6.193   7.505 -0.7220 -0.1228 -2.6335
   77CHL1  H12B 8137   2.697   6.307   7.550 -0.4443 -0.4395 -0.2310
   77CHL1   C11 8138   2.799   6.337   7.355  0.5284 -0.3337 -0.3590
   77CHL1  H11A 8139   2.905   6.324   7.323 -0.2044  1.5794 -4.1500
   77CHL1  H11B 8140   2.735   6.263   7.303 -3.0412  0.4531  2.5548
   77CHL1    C9 8141   2.764   6.483   7.327  0.0529 -0.1813  0.9385
   77CHL1    H9 8142   2.664   6.501   7.372  0.0917 -0.2319  1.0455
   77CHL1   C10 8143   2.761   6.525   7.173 -0.2471 -0.0723  0.4093
   77CHL1   C19 8144   2.892   6.481   7.104  0.5098 -0.1276  0.4926
   77CHL1  H19A 8145   2.979   6.545   7.131  0.9821  0.5528 -2.3270
   77CHL1  H19B 8146   2.920   6.377   7.132  1.1407  0.3227  1.5943
   77CHL1  H19C 8147   2.888   6.483   6.993 -1.5476  0.2411  0.5372
   77CHL1    C1 8148   2.651   6.455   7.092  0.3747  0.4830  0.3073
   77CHL1   H1A 8149   2.664   6.345   7.101  0.3718  0.4360 -0.1975
   77CHL1   H1B 8150   2.555   6.464   7.146  0.6060 -1.0976  1.0497
   77CHL1    C2 8151   2.626   6.500   6.942 -0.5258 -0.3166 -0.3664
   77CHL1   H2A 8152   2.534   6.455   6.899 -0.8695  0.9380 -0.9766
   77CHL1   H2B 8153   2.702   6.449   6.878 -0.0428 -0.5784  0.4007
   77CHL1   C20 8154   2.931   6.285   7.834 -0.0589  0.2190 -0.2311
   77CHL1   H20 8155   3.036   6.262   7.806  0.9269  1.4087  2.1920
   77CHL1   C21 8156   2.824   6.171   7.811 -0.2460 -0.4182 -0.4339
   77CHL1  H21A 8157   2.722   6.205   7.783  0.0906  1.5264  0.5604
   77CHL1  H21B 8158   2.817   6.105   7.901  1.4328  2.9390  2.3905
   77CHL1  H21C 8159   2.857   6.105   7.728  0.2701 -1.1104  0.2953
   77CHL1   C22 8160   2.948   6.322   7.988 -0.8277  0.2872  0.9410
   77CHL1  H22A 8161   3.012   6.413   7.991  0.2279 -0.4401  1.1268
   77CHL1  H22B 8162   2.844   6.339   8.020 -1.1225  4.6967 -1.5818
   77CHL1   C23 8163   3.011   6.207   8.079 -0.0128 -0.7933  1.0944
   77CHL1  H23A 8164   2.994   6.223   8.187  0.4084 -0.7576  1.1555
   77CHL1  H23B 8165   2.959   6.111   8.057 -0.4048 -0.0953 -1.3988
   77CHL1   C24 8166   3.162   6.183   8.046  0.2507 -0.0140  0.6025
   77CHL1  H24A 8167   3.170   6.106   7.967 -0.9553  0.2067  0.2342
   77CHL1  H24B 8168   3.208   6.281   8.023 -0.3605  0.0338 -0.4727
   77CHL1   C25 8169   3.232   6.146   8.180  1.0502  0.0037  0.0064
   77CHL1   H25 8170   3.171   6.063   8.224 -0.9040  1.2017 -0.3027
   77CHL1   C26 8171   3.373   6.094   8.157  0.1609  0.4709 -0.5021
   77CHL1  H26A 8172   3.429   6.077   8.252  2.1234 -0.8425 -1.7972
   77CHL1  H26B 8173   3.362   5.995   8.107  0.0188  0.1794  0.0837
   77CHL1  H26C 8174   3.433   6.172   8.105  1.1518  0.6214  0.7935
   77CHL1   C27 8175   3.236   6.266   8.283 -0.3549  0.4354  0.5217
   77CHL1  H27A 8176   3.256   6.223   8.384 -0.2483 -0.7267  0.0192
   77CHL1  H27B 8177   3.315   6.342   8.262 -2.7934  2.8699 -0.4354
   77CHL1  H27C 8178   3.140   6.322   8.282  0.2632  1.6682 -2.7281
   78CHL1    C3 8179   5.928   2.158   6.657 -0.0128  0.4217  0.2995
   78CHL1    H3 8180   6.031   2.198   6.675 -0.0291  0.5985  0.0150
   78CHL1    O3 8181   5.899   2.192   6.525  0.0655  0.1334  0.2972
   78CHL1   H3' 8182   5.803   2.187   6.519  0.1013 -1.5317  0.6317
   78CHL1    C4 8183   5.922   2.009   6.674 -0.1723  0.8557 -0.1924
   78CHL1   H4A 8184   5.821   1.976   6.640 -1.3557  3.7235  0.1872
   78CHL1   H4B 8185   5.994   1.965   6.602 -1.8279 -2.9750  0.2343
   78CHL1    C5 8186   5.951   1.969   6.817 -0.3382 -0.8632  0.5744
   78CHL1    C6 8187   6.049   1.886   6.854  0.9968  0.1455  0.0166
   78CHL1    H6 8188   6.104   1.830   6.777  0.0018 -0.6184 -0.1578
   78CHL1    C7 8189   6.080   1.847   6.994 -0.0991 -0.2417  0.1709
   78CHL1   H7A 8190   6.101   1.739   7.008  1.8480 -0.4909 -3.4035
   78CHL1   H7B 8191   6.177   1.888   7.030 -0.3211  0.3547  0.1151
   78CHL1    C8 8192   5.961   1.886   7.091  0.1446  0.3536  0.3515
   78CHL1    H8 8193   5.884   1.807   7.085  1.1995 -0.6346 -0.9876
   78CHL1   C14 8194   6.012   1.875   7.233 -0.3399  0.3796  0.0251
   78CHL1   H14 8195   6.106   1.934   7.237  0.0816 -0.3606  2.0760
   78CHL1   C15 8196   6.046   1.740   7.290 -0.0332  0.2144  0.6221
   78CHL1  H15A 8197   5.983   1.653   7.262  1.0419  0.3017 -2.3343
   78CHL1  H15B 8198   6.148   1.733   7.247  0.1119  1.9468  0.6128
   78CHL1   C16 8199   6.053   1.757   7.443 -0.0131  0.7569  0.0183
   78CHL1  H16A 8200   6.006   1.677   7.504  1.8191  0.2018  0.7729
   78CHL1  H16B 8201   6.156   1.761   7.485 -0.3988  0.7386  1.0023
   78CHL1   C17 8202   5.992   1.895   7.471 -0.3989  0.1849  0.1058
   78CHL1   H17 8203   6.083   1.958   7.475  0.8124 -1.4685 -0.4696
   78CHL1   C13 8204   5.912   1.933   7.336 -0.2069  0.0247 -0.0057
   78CHL1   C18 8205   5.781   1.853   7.340 -0.4705  0.1679 -0.1999
   78CHL1  H18A 8206   5.721   1.842   7.246  1.0851  0.8512 -1.3146
   78CHL1  H18B 8207   5.811   1.756   7.385  0.3359  0.9282  0.9513
   78CHL1  H18C 8208   5.711   1.889   7.419 -0.1660 -0.2132  0.2437
   78CHL1   C12 8209   5.900   2.079   7.302 -0.1015 -0.6347 -0.0807
   78CHL1  H12A 8210   5.838   2.127   7.380 -0.0422  0.9270 -0.9450
   78CHL1  H12B 8211   6.001   2.126   7.301  0.2660 -1.2786  2.4066
   78CHL1   C11 8212   5.829   2.090   7.168 -0.4484 -0.9056 -0.4030
   78CHL1  H11A 8213   5.730   2.041   7.180  0.5767 -2.6212  1.8340
   78CHL1  H11B 8214   5.813   2.198   7.152 -0.6706 -1.0049 -0.8612
   78CHL1    C9 8215   5.925   2.029   7.057  0.1905 -0.1611  0.7038
   78CHL1    H9 8216   6.018   2.089   7.065  0.4409 -0.5689  0.9314
   78CHL1   C10 8217   5.861   2.043   6.918 -0.0823 -0.6278  0.3467
   78CHL1   C19 8218   5.710   1.982   6.915 -0.0199  0.0866 -0.2915
   78CHL1  H19A 8219   5.694   1.885   6.967 -0.0380 -0.3694 -1.1338
   78CHL1  H19B 8220   5.644   2.058   6.963  2.0616  1.9408 -0.2178
   78CHL1  H19C 8221   5.666   1.971   6.814  0.7042  1.0457 -0.7353
   78CHL1    C1 8222   5.864   2.200   6.889  0.4985  0.4366 -0.1865
   78CHL1   H1A 8223   5.787   2.248   6.953  0.4981 -0.9914  0.9447
   78CHL1   H1B 8224   5.963   2.246   6.912  0.6851 -0.5720  1.1669
   78CHL1    C2 8225   5.829   2.233   6.744  0.1678 -0.8429 -0.0262
   78CHL1   H2A 8226   5.822   2.342   6.727  0.1831 -1.0965 -1.8245
   78CHL1   H2B 8227   5.730   2.189   6.718  0.5242 -0.6303 -1.8770
   78CHL1   C20 8228   5.939   1.914   7.615  0.3366  0.2583  0.2508
   78CHL1   H20 8229   5.848   1.850   7.612  0.7216 -0.2604 -1.1666
   78CHL1   C21 8230   5.902   2.059   7.651 -0.2808 -0.2799 -0.1866
   78CHL1  H21A 8231   5.862   2.063   7.754 -0.6126 -0.0561 -0.3221
   78CHL1  H21B 8232   5.815   2.092   7.590 -0.0041  1.2183  0.2017
   78CHL1  H21C 8233   5.977   2.139   7.632  0.8529 -1.7952 -2.6017
   78CHL1   C22 8234   6.047   1.854   7.714  0.1836 -0.1926 -0.6329
   78CHL1  H22A 8235   6.046   1.744   7.701  3.8388 -1.1318  4.4113
   78CHL1  H22B 8236   6.153   1.886   7.707 -0.1334  1.4520  1.2623
   78CHL1   C23 8237   6.025   1.871   7.867 -0.7879  0.7648  0.2124
   78CHL1  H23A 8238   5.918   1.865   7.894 -0.7831  1.8443  0.5202
   78CHL1  H23B 8239   6.066   1.782   7.920 -1.4427 -0.2888 -0.9990
   78CHL1   C24 8240   6.093   2.001   7.923 -0.1420  0.1760  0.3118
   78CHL1  H24A 8241   6.199   1.983   7.895 -0.0514  0.5127  0.4329
   78CHL1  H24B 8242   6.061   2.089   7.863  1.0550  0.4287  0.0069
   78CHL1   C25 8243   6.069   2.036   8.068 -0.1302  0.7026  0.7029
   78CHL1   H25 8244   6.140   2.121   8.076 -0.3537  1.3476 -2.6914
   78CHL1   C26 8245   5.935   2.095   8.112  0.6513 -0.0598 -0.0283
   78CHL1  H26A 8246   5.859   2.014   8.108  1.2184 -0.5655 -1.0098
   78CHL1  H26B 8247   5.935   2.121   8.220 -3.9375 -0.1617  0.2156
   78CHL1  H26C 8248   5.909   2.181   8.046 -0.0508 -1.3311 -1.4696
   78CHL1   C27 8249   6.113   1.922   8.160 -0.3133 -0.4233 -1.3884
   78CHL1  H27A 8250   6.219   1.893   8.146  0.1280 -0.2182  1.0999
   78CHL1  H27B 8251   6.113   1.969   8.261 -1.2910 -1.0542 -1.0813
   78CHL1  H27C 8252   6.045   1.835   8.158  1.0445 -1.5227 -3.2597
   79CHL1    C3 8253   2.684   1.863   7.111  0.6661  0.2241  0.1636
   79CHL1    H3 8254   2.755   1.940   7.147 -0.7553  0.8601  1.7346
   79CHL1    O3 8255   2.667   1.868   6.974  0.3744  0.4092 -0.5200
   79CHL1   H3' 8256   2.594   1.807   6.962  0.7825 -0.4414  1.0181
   79CHL1    C4 8257   2.730   1.717   7.132 -0.0017  0.2742  0.5964
   79CHL1   H4A 8258   2.667   1.636   7.090  1.6132 -1.4516  1.4130
   79CHL1   H4B 8259   2.825   1.702   7.077 -0.8290 -2.1308 -0.2870
   79CHL1    C5 8260   2.755   1.693   7.277 -0.5242 -1.0666  0.0378
   79CHL1    C6 8261   2.880   1.667   7.333 -0.1480  0.2019  0.1766
   79CHL1    H6 8262   2.965   1.654   7.264  0.1729  1.2370  0.3439
   79CHL1    C7 8263   2.919   1.657   7.479 -0.5330 -0.4851  0.1263
   79CHL1   H7A 8264   2.981   1.568   7.506 -0.3289 -0.7092 -1.0132
   79CHL1   H7B 8265   2.974   1.745   7.518  1.7057 -2.4119  1.6478
   79CHL1    C8 8266   2.783   1.627   7.562 -0.4663  0.1633  0.2423
   79CHL1    H8 8267   2.763   1.519   7.546 -0.4720  0.0407  1.0478
   79CHL1   C14 8268   2.810   1.651   7.712  0.0782  0.8390 -0.2952
   79CHL1   H14 8269   2.825   1.760   7.729 -2.6578  1.6896 -2.6179
   79CHL1   C15 8270   2.932   1.575   7.769  0.1669 -0.0870  0.1151
   79CHL1  H15A 8271   2.935   1.471   7.731  1.3306  0.3215 -0.9696
   79CHL1  H15B 8272   3.033   1.612   7.742 -1.1621  2.1857 -2.1033
   79CHL1   C16 8273   2.906   1.566   7.913  0.6992  0.4140 -0.3038
   79CHL1  H16A 8274   2.923   1.467   7.960  0.1785  1.1124  1.4478
   79CHL1  H16B 8275   2.981   1.623   7.973 -0.3321 -0.0178  1.4820
   79CHL1   C17 8276   2.760   1.626   7.934 -0.0272  0.2507 -0.1487
   79CHL1   H17 8277   2.766   1.736   7.953  1.8765  0.2426 -0.4467
   79CHL1   C13 8278   2.692   1.611   7.802  0.3860 -0.0781 -0.4395
   79CHL1   C18 8279   2.649   1.459   7.783 -0.4296  0.7535 -0.2262
   79CHL1  H18A 8280   2.730   1.391   7.817 -0.1428  0.8204 -0.7635
   79CHL1  H18B 8281   2.558   1.432   7.841 -0.0865  0.1752  0.0528
   79CHL1  H18C 8282   2.634   1.449   7.673  0.0258  1.6805 -0.3825
   79CHL1   C12 8283   2.574   1.712   7.770  0.4432  0.3561 -0.3169
   79CHL1  H12A 8284   2.480   1.684   7.822  2.1907 -0.3186  2.7051
   79CHL1  H12B 8285   2.602   1.814   7.802  4.4889 -1.0751  1.4254
   79CHL1   C11 8286   2.541   1.710   7.614  0.5503 -0.3144 -0.2875
   79CHL1  H11A 8287   2.487   1.615   7.595  0.3590 -0.8286  2.4500
   79CHL1  H11B 8288   2.474   1.794   7.585 -0.1493 -1.2724 -1.5048
   79CHL1    C9 8289   2.670   1.720   7.521 -0.1853  0.2765 -0.3339
   79CHL1    H9 8290   2.710   1.822   7.542  0.6626 -0.3618  1.3161
   79CHL1   C10 8291   2.630   1.714   7.366 -0.5002  0.2999  0.3962
   79CHL1   C19 8292   2.546   1.579   7.344  0.3593 -0.5705  0.2972
   79CHL1  H19A 8293   2.446   1.587   7.392  0.9826 -1.4946  1.8221
   79CHL1  H19B 8294   2.531   1.552   7.238 -2.1373  0.2613  0.3759
   79CHL1  H19C 8295   2.602   1.494   7.388 -2.0290 -1.1981  2.2978
   79CHL1    C1 8296   2.560   1.857   7.334  0.0630  0.1706  0.0377
   79CHL1   H1A 8297   2.456   1.859   7.373  0.0125 -1.3919  0.0537
   79CHL1   H1B 8298   2.623   1.939   7.374  2.5544 -2.1630  1.2045
   79CHL1    C2 8299   2.547   1.876   7.177  0.0416 -0.6332 -0.5005
   79CHL1   H2A 8300   2.515   1.981   7.167  2.7835  0.2757 -0.6136
   79CHL1   H2B 8301   2.467   1.813   7.133 -1.0762  0.3190  0.1506
   79CHL1   C20 8302   2.704   1.574   8.065  0.0499  0.3093  0.3806
   79CHL1   H20 8303   2.696   1.463   8.064  1.6252  0.1361 -1.8696
   79CHL1   C21 8304   2.565   1.630   8.094 -0.5336  0.1883  0.2685
   79CHL1  H21A 8305   2.567   1.740   8.079  0.5861 -0.0502 -1.8069
   79CHL1  H21B 8306   2.518   1.608   8.192 -1.3765  0.8435  0.0214
   79CHL1  H21C 8307   2.501   1.586   8.014 -0.8775 -0.5808  0.9505
   79CHL1   C22 8308   2.807   1.599   8.185  0.4674 -0.1638  0.5833
   79CHL1  H22A 8309   2.911   1.568   8.161  0.0693 -0.0256 -1.5472
   79CHL1  H22B 8310   2.805   1.710   8.198  0.8233 -0.1373  0.4211
   79CHL1   C23 8311   2.774   1.540   8.319 -0.7659 -0.4804 -0.2757
   79CHL1  H23A 8312   2.680   1.586   8.358 -0.5141 -0.5779  0.4613
   79CHL1  H23B 8313   2.751   1.431   8.322 -2.1586 -0.2052 -0.1507
   79CHL1   C24 8314   2.868   1.574   8.435 -0.0510 -0.3541 -0.4228
   79CHL1  H24A 8315   2.976   1.571   8.408  0.1913  1.2828  0.2825
   79CHL1  H24B 8316   2.852   1.679   8.466 -1.8556 -0.9361  0.7396
   79CHL1   C25 8317   2.847   1.490   8.567  0.4847 -0.0961  0.0513
   79CHL1   H25 8318   2.896   1.390   8.558 -0.4300 -0.4158 -2.4149
   79CHL1   C26 8319   2.925   1.571   8.675  0.6659  0.0006  0.4999
   79CHL1  H26A 8320   2.891   1.677   8.677  1.9696  0.5146 -1.5402
   79CHL1  H26B 8321   2.911   1.520   8.773 -1.0144  0.2174  0.4039
   79CHL1  H26C 8322   3.034   1.557   8.655  0.4050 -0.2168 -0.8624
   79CHL1   C27 8323   2.706   1.466   8.608  0.6797  0.3384  1.0094
   79CHL1  H27A 8324   2.686   1.434   8.713 -1.3864  0.4689  0.7084
   79CHL1  H27B 8325   2.645   1.559   8.596 -1.8741 -1.1443  1.8174
   79CHL1  H27C 8326   2.655   1.398   8.536 -1.3399  0.8729  1.8535
   80CHL1    C3 8327   1.361   5.713   7.052 -0.7576 -0.3287  0.2569
   80CHL1    H3 8328   1.355   5.604   7.077  0.9129 -0.9511 -1.7668
   80CHL1    O3 8329   1.333   5.734   6.916 -0.6090  0.9023 -0.0479
   80CHL1   H3' 8330   1.402   5.683   6.873  0.3189 -1.0207  3.3616
   80CHL1    C4 8331   1.268   5.795   7.130  0.6320 -0.4110 -0.0612
   80CHL1   H4A 8332   1.257   5.900   7.097  1.4804  0.3246  1.8281
   80CHL1   H4B 8333   1.165   5.758   7.113 -0.3535  2.7080 -1.4916
   80CHL1    C5 8334   1.301   5.792   7.281 -0.1380  0.3525  0.2219
   80CHL1    C6 8335   1.217   5.731   7.362  0.1539  0.2620  0.1262
   80CHL1    H6 8336   1.117   5.696   7.333 -0.2925  1.9241 -0.5010
   80CHL1    C7 8337   1.242   5.712   7.507 -0.1649  0.2216  0.7001
   80CHL1   H7A 8338   1.152   5.720   7.572  1.4560 -0.2703  3.1554
   80CHL1   H7B 8339   1.264   5.603   7.513 -0.6732  0.1481  1.4479
   80CHL1    C8 8340   1.362   5.784   7.556 -0.1165 -0.7704 -0.6399
   80CHL1    H8 8341   1.342   5.894   7.562  1.8465 -0.2865 -1.9733
   80CHL1   C14 8342   1.406   5.721   7.687 -0.3314 -0.1172  0.2832
   80CHL1   H14 8343   1.442   5.620   7.661  1.4485 -0.0374  2.1310
   80CHL1   C15 8344   1.302   5.690   7.790  0.1130  0.0134 -0.1559
   80CHL1  H15A 8345   1.229   5.774   7.786 -0.4876 -0.4426  0.8589
   80CHL1  H15B 8346   1.240   5.600   7.771  0.8158 -0.1533 -1.9279
   80CHL1   C16 8347   1.373   5.696   7.929 -0.5103 -0.3329  1.0539
   80CHL1  H16A 8348   1.336   5.786   7.983  0.8456  0.3914  0.7984
   80CHL1  H16B 8349   1.359   5.596   7.976 -2.8520  0.0570  1.3036
   80CHL1   C17 8350   1.526   5.709   7.890 -0.5516 -0.0882  0.1844
   80CHL1   H17 8351   1.547   5.607   7.852 -1.6362 -0.5581  0.7892
   80CHL1   C13 8352   1.523   5.790   7.756 -0.4981 -0.1963 -0.1266
   80CHL1   C18 8353   1.491   5.944   7.771  0.1535 -0.4463  0.3913
   80CHL1  H18A 8354   1.404   5.955   7.840 -0.6337  0.9171 -0.7576
   80CHL1  H18B 8355   1.580   5.990   7.818 -0.8739  0.7562  1.2299
   80CHL1  H18C 8356   1.478   5.995   7.673 -0.1631 -1.0194  0.1253
   80CHL1   C12 8357   1.642   5.780   7.666 -0.9800 -0.1393 -1.1356
   80CHL1  H12A 8358   1.723   5.843   7.708 -2.3315  1.0188 -0.1499
   80CHL1  H12B 8359   1.685   5.678   7.675 -0.2976  0.2538  0.5401
   80CHL1   C11 8360   1.619   5.828   7.525 -0.8366 -0.4286 -0.1940
   80CHL1  H11A 8361   1.628   5.938   7.517 -1.8852 -0.3873 -0.9608
   80CHL1  H11B 8362   1.713   5.785   7.483  0.2771 -1.0775  2.7222
   80CHL1    C9 8363   1.483   5.779   7.464 -0.0253 -0.0695  0.1394
   80CHL1    H9 8364   1.495   5.669   7.452 -0.3024 -0.0418 -0.4741
   80CHL1   C10 8365   1.444   5.835   7.318 -0.4271 -0.9327  0.2780
   80CHL1   C19 8366   1.453   5.997   7.321 -0.4931  0.2357  0.5232
   80CHL1  H19A 8367   1.551   6.044   7.341 -0.8300  1.3864 -0.3813
   80CHL1  H19B 8368   1.419   6.041   7.225  1.4939  2.3348  0.7058
   80CHL1  H19C 8369   1.382   6.021   7.404  1.4023 -0.2309  2.3668
   80CHL1    C1 8370   1.545   5.766   7.218  0.3817  0.3604  0.1327
   80CHL1   H1A 8371   1.648   5.798   7.244 -0.0503  0.6907  1.4842
   80CHL1   H1B 8372   1.526   5.661   7.249  1.0395 -0.1327 -1.0681
   80CHL1    C2 8373   1.509   5.756   7.070  0.5695  0.5937 -0.1948
   80CHL1   H2A 8374   1.579   5.699   7.005 -0.1822  1.3297 -1.7017
   80CHL1   H2B 8375   1.510   5.860   7.030  1.5810 -0.0867 -2.0589
   80CHL1   C20 8376   1.623   5.736   8.008  0.5627  0.6716  0.5835
   80CHL1   H20 8377   1.716   5.765   7.954 -0.2651  0.2952 -1.1325
   80CHL1   C21 8378   1.637   5.603   8.085  0.5432 -0.1701  0.1895
   80CHL1  H21A 8379   1.689   5.625   8.181  0.2974 -0.0346  0.2938
   80CHL1  H21B 8380   1.703   5.535   8.028  1.1399  0.0269  0.6344
   80CHL1  H21C 8381   1.534   5.564   8.099  1.5582 -2.4775  1.8576
   80CHL1   C22 8382   1.582   5.857   8.093 -0.0239 -0.7891 -0.8427
   80CHL1  H22A 8383   1.554   5.942   8.027 -0.2411  1.5426  2.0560
   80CHL1  H22B 8384   1.493   5.833   8.154  0.1113 -2.9874 -1.4213
   80CHL1   C23 8385   1.676   5.913   8.204 -0.4209  1.2973  0.1108
   80CHL1  H23A 8386   1.724   5.842   8.275  0.1528  1.7473  0.1863
   80CHL1  H23B 8387   1.763   5.956   8.150 -0.0549  1.8552  1.0996
   80CHL1   C24 8388   1.617   6.036   8.280  0.3674  0.0371 -0.7185
   80CHL1  H24A 8389   1.560   6.111   8.222  0.0785 -0.9177 -1.6986
   80CHL1  H24B 8390   1.539   5.999   8.350  2.5914 -0.5541  1.6368
   80CHL1   C25 8391   1.722   6.113   8.357 -0.0865 -0.4327 -0.1216
   80CHL1   H25 8392   1.817   6.123   8.301  0.5873 -0.1746  1.0190
   80CHL1   C26 8393   1.673   6.264   8.393  0.2711  0.3452 -0.2947
   80CHL1  H26A 8394   1.588   6.257   8.465  0.7637  1.2387  0.3956
   80CHL1  H26B 8395   1.763   6.309   8.441 -0.1878 -1.4518  2.4699
   80CHL1  H26C 8396   1.630   6.316   8.305 -1.3882  1.3947  1.0666
   80CHL1   C27 8397   1.750   6.034   8.487 -0.2237  0.0463  0.1491
   80CHL1  H27A 8398   1.651   6.021   8.536 -0.5571 -1.4113 -0.8524
   80CHL1  H27B 8399   1.794   5.933   8.474 -0.4549 -0.1658  0.9756
   80CHL1  H27C 8400   1.814   6.090   8.558  1.0225 -1.2777  0.1105
   81CHL1    C3 8401   0.751   4.037   6.889  0.0075  1.0602  0.4385
   81CHL1    H3 8402   0.852   4.082   6.899  1.0362 -1.1829  0.8016
   81CHL1    O3 8403   0.731   4.019   6.751 -0.0501 -0.1153  0.0818
   81CHL1   H3' 8404   0.641   3.986   6.745 -0.7405  1.1543  2.2068
   81CHL1    C4 8405   0.751   3.910   6.964  0.1122 -0.1218 -0.0340
   81CHL1   H4A 8406   0.662   3.846   6.942  0.2263 -0.0533 -0.7052
   81CHL1   H4B 8407   0.843   3.855   6.935  0.6180  0.1847  0.9444
   81CHL1    C5 8408   0.749   3.935   7.113 -0.5038 -0.0427 -0.8212
   81CHL1    C6 8409   0.841   3.874   7.187  0.3728 -0.1782  0.3628
   81CHL1    H6 8410   0.914   3.807   7.138 -0.6505 -0.9930 -0.1011
   81CHL1    C7 8411   0.852   3.889   7.334 -0.1202 -0.2549  0.4817
   81CHL1   H7A 8412   0.862   3.790   7.383  0.0812  1.7198  4.8932
   81CHL1   H7B 8413   0.943   3.946   7.362 -1.9644  3.5582 -0.5905
   81CHL1    C8 8414   0.729   3.958   7.399 -1.0623  0.6981  0.3157
   81CHL1    H8 8415   0.651   3.879   7.405 -0.2518 -0.1783 -0.3193
   81CHL1   C14 8416   0.762   4.019   7.540 -0.5159 -0.1987  0.1853
   81CHL1   H14 8417   0.838   4.100   7.530  2.0837 -2.4362  0.5010
   81CHL1   C15 8418   0.813   3.922   7.646  0.7746 -0.0447 -0.1197
   81CHL1  H15A 8419   0.743   3.835   7.649 -0.0270  0.6074  0.6525
   81CHL1  H15B 8420   0.917   3.891   7.622  1.0494  1.7308 -1.3946
   81CHL1   C16 8421   0.811   4.007   7.778 -0.4605 -0.3179  0.5073
   81CHL1  H16A 8422   0.773   3.944   7.861  0.7131 -0.5736  0.8732
   81CHL1  H16B 8423   0.910   4.053   7.798 -0.2834  0.0832 -1.1934
   81CHL1   C17 8424   0.715   4.131   7.744 -0.2633  0.0477 -0.1359
   81CHL1   H17 8425   0.772   4.223   7.717  2.3290 -1.4724 -0.2196
   81CHL1   C13 8426   0.652   4.092   7.613 -0.5849  0.3807 -0.0409
   81CHL1   C18 8427   0.532   3.995   7.635 -0.6567 -0.2528  0.3705
   81CHL1  H18A 8428   0.439   4.052   7.658  0.0385  1.2738 -0.4871
   81CHL1  H18B 8429   0.509   3.936   7.544 -1.0076  0.6739 -0.1491
   81CHL1  H18C 8430   0.546   3.937   7.729 -1.9147 -0.3006  0.5433
   81CHL1   C12 8431   0.620   4.214   7.519 -0.1392  0.3417 -0.5290
   81CHL1  H12A 8432   0.541   4.287   7.548 -0.9270 -1.1102  1.1460
   81CHL1  H12B 8433   0.711   4.278   7.508  0.0177  0.2380  0.0905
   81CHL1   C11 8434   0.574   4.160   7.381 -0.5193 -0.1769  0.9655
   81CHL1  H11A 8435   0.474   4.115   7.400 -0.2937 -1.7632 -1.2419
   81CHL1  H11B 8436   0.561   4.246   7.312  1.3433 -0.5898  0.0355
   81CHL1    C9 8437   0.681   4.070   7.309  0.4065  0.0701 -0.3682
   81CHL1    H9 8438   0.775   4.128   7.297  0.3964  0.8691  2.5620
   81CHL1   C10 8439   0.644   4.036   7.159  0.0964  0.6982 -0.7390
   81CHL1   C19 8440   0.510   3.963   7.163  0.3204  0.0419  1.2137
   81CHL1  H19A 8441   0.428   4.025   7.205 -2.8373 -1.9094 -1.5786
   81CHL1  H19B 8442   0.477   3.932   7.062 -1.5622  0.9766  1.4983
   81CHL1  H19C 8443   0.522   3.864   7.213 -0.6734  0.1126  1.6196
   81CHL1    C1 8444   0.635   4.161   7.065  0.0115 -0.0093  0.6384
   81CHL1   H1A 8445   0.548   4.227   7.085  0.8783  1.2867  0.2757
   81CHL1   H1B 8446   0.724   4.226   7.081  1.0094 -0.7984 -1.3185
   81CHL1    C2 8447   0.635   4.131   6.920  0.1406  0.3635 -0.1556
   81CHL1   H2A 8448   0.648   4.229   6.868  0.7937  1.0310  1.2352
   81CHL1   H2B 8449   0.540   4.076   6.901  0.2019  0.2541 -0.1424
   81CHL1   C20 8450   0.628   4.177   7.861 -0.0031 -0.0293 -1.3287
   81CHL1   H20 8451   0.562   4.090   7.886 -0.3801 -0.2054 -2.8580
   81CHL1   C21 8452   0.533   4.295   7.837 -0.1667 -0.8768  0.4448
   81CHL1  H21A 8453   0.489   4.332   7.932 -1.3400 -0.0509 -0.3888
   81CHL1  H21B 8454   0.454   4.265   7.765  0.3755 -0.5043 -0.3230
   81CHL1  H21C 8455   0.587   4.383   7.796 -0.3959 -1.0799 -0.3285
   81CHL1   C22 8456   0.720   4.196   7.985  0.4180 -1.0704 -0.1350
   81CHL1  H22A 8457   0.826   4.169   7.970  0.8806  0.9305 -0.7468
   81CHL1  H22B 8458   0.713   4.306   8.000  0.3235 -0.9100 -1.2638
   81CHL1   C23 8459   0.665   4.119   8.106  0.7918  0.2279  1.0966
   81CHL1  H23A 8460   0.554   4.119   8.116  0.7409 -1.1963  0.6806
   81CHL1  H23B 8461   0.693   4.013   8.089  0.4431  0.5178 -1.9548
   81CHL1   C24 8462   0.726   4.159   8.237 -0.1274  0.2706 -0.0934
   81CHL1  H24A 8463   0.836   4.146   8.239 -0.2753 -1.1433  0.4488
   81CHL1  H24B 8464   0.709   4.269   8.238 -0.2907  0.2619 -1.0487
   81CHL1   C25 8465   0.660   4.097   8.369 -0.6149 -0.0946  0.2279
   81CHL1   H25 8466   0.734   4.115   8.449  1.2956  1.5553 -1.7698
   81CHL1   C26 8467   0.525   4.163   8.410  0.4599  0.0046  0.3763
   81CHL1  H26A 8468   0.543   4.273   8.419  1.0928  0.0471 -1.1747
   81CHL1  H26B 8469   0.451   4.135   8.332  1.9519 -2.5873 -0.2051
   81CHL1  H26C 8470   0.489   4.121   8.507 -1.4058  1.3553  0.3313
   81CHL1   C27 8471   0.634   3.948   8.361 -0.0097 -0.0000  0.0121
   81CHL1  H27A 8472   0.723   3.885   8.338  1.6791  1.5772  1.8892
   81CHL1  H27B 8473   0.602   3.914   8.462  1.6413 -3.4880 -0.4661
   81CHL1  H27C 8474   0.557   3.913   8.290  0.3592  1.8059 -1.3505
   82CHL1    C3 8475   1.614   0.208   7.044  1.1706 -0.5686  0.0597
   82CHL1    H3 8476   1.641   0.308   7.084 -1.7113 -0.0119  0.8252
   82CHL1    O3 8477   1.668   0.192   6.913  0.1937  0.2573 -0.2119
   82CHL1   H3' 8478   1.762   0.176   6.916  0.0201 -1.0918 -1.0522
   82CHL1    C4 8479   1.667   0.100   7.135 -0.0116 -0.1264 -0.1410
   82CHL1   H4A 8480   1.633   0.006   7.087 -0.1508 -0.9187  1.4290
   82CHL1   H4B 8481   1.777   0.115   7.143  0.2652 -2.4124  1.3005
   82CHL1    C5 8482   1.614   0.115   7.275  0.5832 -0.3461  0.9590
   82CHL1    C6 8483   1.682   0.126   7.380 -0.9218  0.1964 -0.2871
   82CHL1    H6 8484   1.791   0.121   7.372 -0.7088  1.1321  1.5352
   82CHL1    C7 8485   1.639   0.114   7.526 -0.2087  0.0409  0.2016
   82CHL1   H7A 8486   1.694   0.033   7.579 -0.1335  1.2425  2.0375
   82CHL1   H7B 8487   1.667   0.204   7.586  1.7866  0.3615 -1.1086
   82CHL1    C8 8488   1.484   0.078   7.528  0.1583 -0.3009  0.2478
   82CHL1    H8 8489   1.476  -0.032   7.519 -0.3788 -0.2669  0.3070
   82CHL1   C14 8490   1.427   0.129   7.665 -0.1329  0.4164  0.5726
   82CHL1   H14 8491   1.433   0.240   7.663 -0.3144  0.4501 -1.9754
   82CHL1   C15 8492   1.507   0.090   7.784  0.0729  0.2860 -0.3978
   82CHL1  H15A 8493   1.532  -0.018   7.785  0.8334  0.4371 -1.0688
   82CHL1  H15B 8494   1.606   0.131   7.813  1.4651 -3.4548  0.7608
   82CHL1   C16 8495   1.403   0.123   7.892  0.1434 -0.7340  0.2920
   82CHL1  H16A 8496   1.399   0.031   7.955  2.4125 -1.3123 -0.3184
   82CHL1  H16B 8497   1.417   0.207   7.964 -2.0371  0.0988 -0.1936
   82CHL1   C17 8498   1.265   0.152   7.830  0.8679 -0.1503 -0.8470
   82CHL1   H17 8499   1.273   0.262   7.832 -0.0922 -0.0767 -0.7132
   82CHL1   C13 8500   1.277   0.100   7.688  0.1410  0.1497 -0.0597
   82CHL1   C18 8501   1.255  -0.052   7.677  0.2252 -0.0339  0.0988
   82CHL1  H18A 8502   1.321  -0.095   7.755  1.4471  0.1157 -0.8314
   82CHL1  H18B 8503   1.148  -0.080   7.693  0.1354 -1.0864 -1.9924
   82CHL1  H18C 8504   1.278  -0.098   7.578  0.5908 -1.1611  0.6860
   82CHL1   C12 8505   1.199   0.186   7.585 -0.7437 -0.6137  0.4445
   82CHL1  H12A 8506   1.089   0.175   7.593 -0.8858  0.6867  0.4803
   82CHL1  H12B 8507   1.225   0.291   7.608 -1.1931 -0.6020  0.9196
   82CHL1   C11 8508   1.248   0.153   7.442  0.1888  0.3926  0.2471
   82CHL1  H11A 8509   1.215   0.051   7.413  1.8297 -0.0696 -0.0964
   82CHL1  H11B 8510   1.199   0.223   7.371 -3.6258 -1.1139  1.1485
   82CHL1    C9 8511   1.404   0.149   7.421  0.2043  0.0099  0.4313
   82CHL1    H9 8512   1.427   0.257   7.432 -1.8808  0.3729  1.7749
   82CHL1   C10 8513   1.458   0.111   7.277 -0.4710 -0.6467  0.4922
   82CHL1   C19 8514   1.414  -0.032   7.251 -0.3625  0.3582  0.0539
   82CHL1  H19A 8515   1.448  -0.075   7.155  0.2305  0.6767  0.1186
   82CHL1  H19B 8516   1.457  -0.100   7.327 -1.5718 -0.4580  0.0297
   82CHL1  H19C 8517   1.304  -0.046   7.257 -0.1509 -0.7739  3.2611
   82CHL1    C1 8518   1.402   0.213   7.175 -0.6399  0.2219  0.3271
   82CHL1   H1A 8519   1.291   0.212   7.167 -0.5550  0.2521 -1.0456
   82CHL1   H1B 8520   1.441   0.309   7.216  2.2297 -0.8448  0.3043
   82CHL1    C2 8521   1.463   0.204   7.035  0.4497 -0.1678 -0.3371
   82CHL1   H2A 8522   1.436   0.286   6.966 -0.0963  0.3564  0.4954
   82CHL1   H2B 8523   1.418   0.114   6.989 -2.7741  1.6186 -0.9226
   82CHL1   C20 8524   1.150   0.106   7.916  0.4308 -0.6074 -0.3673
   82CHL1   H20 8525   1.154  -0.003   7.936 -2.8909 -0.7122  0.3767
   82CHL1   C21 8526   1.013   0.135   7.851 -0.1071  0.2570  0.3658
   82CHL1  H21A 8527   0.930   0.118   7.923  0.2207 -3.2290  0.1118
   82CHL1  H21B 8528   0.996   0.081   7.755 -3.2721  0.1569  0.8666
   82CHL1  H21C 8529   0.998   0.242   7.825 -2.1770 -0.3123 -0.9927
   82CHL1   C22 8530   1.156   0.170   8.061 -0.3928 -0.6159 -0.2106
   82CHL1  H22A 8531   1.252   0.136   8.105 -1.0052 -2.7370 -0.4273
   82CHL1  H22B 8532   1.159   0.281   8.055 -0.9561 -0.4819  1.4662
   82CHL1   C23 8533   1.052   0.121   8.145 -0.0165 -0.3640 -0.0852
   82CHL1  H23A 8534   0.959   0.179   8.126  0.1329  0.7826  2.3770
   82CHL1  H23B 8535   1.042   0.012   8.132  0.4128 -0.2244 -1.8432
   82CHL1   C24 8536   1.083   0.173   8.281 -0.2586 -0.3861  0.3470
   82CHL1  H24A 8537   1.180   0.128   8.313  0.9907  0.8123 -1.5733
   82CHL1  H24B 8538   1.094   0.283   8.276 -3.4778  0.0031 -0.2991
   82CHL1   C25 8539   0.981   0.145   8.392 -0.0084 -0.3965 -0.8256
   82CHL1   H25 8540   0.890   0.198   8.359  0.2364  1.1491  0.8399
   82CHL1   C26 8541   0.953  -0.005   8.419  0.1895  0.5731  0.8031
   82CHL1  H26A 8542   1.047  -0.048   8.460  1.9081  1.1318 -2.2312
   82CHL1  H26B 8543   0.864  -0.013   8.484 -0.1053 -0.4978  0.2871
   82CHL1  H26C 8544   0.922  -0.052   8.323 -2.3836  2.6637  0.4868
   82CHL1   C27 8545   1.028   0.205   8.525 -0.5273 -0.0176 -0.0578
   82CHL1  H27A 8546   0.976   0.168   8.616 -0.0689  0.9490  0.6190
   82CHL1  H27B 8547   1.136   0.180   8.529 -0.4291 -0.0552 -1.9316
   82CHL1  H27C 8548   1.041   0.315   8.523  2.4202 -0.2470  0.9459
   83CHL1    C3 8549   3.408   6.555   6.984  0.2460  0.4265  0.0786
   83CHL1    H3 8550   3.505   6.507   7.009 -0.3814 -0.9200  0.0332
   83CHL1    O3 8551   3.369   6.545   6.844  0.1797 -0.2073 -0.5521
   83CHL1   H3' 8552   3.450   6.553   6.794  0.8631  1.1922  0.6720
   83CHL1    C4 8553   3.296   6.491   7.078 -0.6286 -0.4055 -0.3741
   83CHL1   H4A 8554   3.198   6.539   7.055 -0.1580  0.4668 -0.6102
   83CHL1   H4B 8555   3.279   6.388   7.041  0.4258 -0.0211 -2.0173
   83CHL1    C5 8556   3.338   6.508   7.228 -0.3809  0.6186  0.3455
   83CHL1    C6 8557   3.349   6.400   7.307  0.0812  0.1221 -0.0750
   83CHL1    H6 8558   3.322   6.301   7.268 -0.5314  0.8182 -1.4938
   83CHL1    C7 8559   3.393   6.413   7.451  0.6355 -0.7743  0.2689
   83CHL1   H7A 8560   3.336   6.337   7.509 -1.8747 -0.6308 -1.8754
   83CHL1   H7B 8561   3.499   6.380   7.446  0.4568 -1.9247  2.6032
   83CHL1    C8 8562   3.371   6.555   7.509  0.3967  0.2465 -0.1372
   83CHL1    H8 8563   3.262   6.568   7.523  0.2976 -0.0465 -0.6111
   83CHL1   C14 8564   3.431   6.563   7.651  0.7236 -0.3420 -0.1847
   83CHL1   H14 8565   3.541   6.557   7.645  0.6988  0.6054 -2.6274
   83CHL1   C15 8566   3.375   6.452   7.745 -0.1599 -0.0525  0.2379
   83CHL1  H15A 8567   3.264   6.458   7.735 -0.1152 -0.2854 -0.5042
   83CHL1  H15B 8568   3.394   6.345   7.724  1.9631 -0.0264  1.7498
   83CHL1   C16 8569   3.414   6.500   7.885 -0.7227 -0.3547  0.6500
   83CHL1  H16A 8570   3.329   6.513   7.955 -0.6133 -0.3691  0.7865
   83CHL1  H16B 8571   3.492   6.431   7.926  0.0096  0.0018 -0.1253
   83CHL1   C17 8572   3.477   6.643   7.861 -0.0687 -0.2279 -0.5622
   83CHL1   H17 8573   3.583   6.611   7.859 -0.2305 -0.7746 -0.6479
   83CHL1   C13 8574   3.420   6.689   7.723 -0.2155 -0.0256  0.1763
   83CHL1   C18 8575   3.274   6.741   7.741 -0.5497  0.0877 -0.1769
   83CHL1  H18A 8576   3.211   6.733   7.649 -2.1515 -0.4478  0.9306
   83CHL1  H18B 8577   3.229   6.675   7.818  0.8054 -2.9637 -1.7897
   83CHL1  H18C 8578   3.273   6.847   7.772 -1.0138  0.5389 -1.6464
   83CHL1   C12 8579   3.502   6.794   7.638  0.6174  0.3974  0.5474
   83CHL1  H12A 8580   3.495   6.896   7.682 -0.3756  0.4134  0.3844
   83CHL1  H12B 8581   3.601   6.747   7.620 -0.6968 -2.0939 -0.7019
   83CHL1   C11 8582   3.461   6.787   7.485  0.0150 -0.5531  0.1672
   83CHL1  H11A 8583   3.369   6.849   7.495  1.2215  1.1339  1.4404
   83CHL1  H11B 8584   3.536   6.849   7.432 -0.7863  3.3996  3.1896
   83CHL1    C9 8585   3.435   6.646   7.416  0.2573  0.0633  1.0306
   83CHL1    H9 8586   3.539   6.608   7.408 -0.5120 -2.1855  1.0216
   83CHL1   C10 8587   3.369   6.650   7.273  0.3285  0.6520  0.2920
   83CHL1   C19 8588   3.231   6.717   7.277 -0.3283 -0.5343  0.4108
   83CHL1  H19A 8589   3.165   6.697   7.190  2.6841 -1.5866 -1.8079
   83CHL1  H19B 8590   3.174   6.684   7.366 -0.2650  1.0114  1.0473
   83CHL1  H19C 8591   3.246   6.825   7.296 -0.8019 -0.3853 -0.0330
   83CHL1    C1 8592   3.463   6.714   7.170  0.0396  0.4233  0.1624
   83CHL1   H1A 8593   3.503   6.814   7.198 -0.0807  0.2729  0.8827
   83CHL1   H1B 8594   3.551   6.647   7.179 -1.0797 -1.4649 -1.9161
   83CHL1    C2 8595   3.415   6.701   7.022 -0.4746  0.7589  0.2944
   83CHL1   H2A 8596   3.486   6.745   6.949  1.3592 -1.4156  0.6716
   83CHL1   H2B 8597   3.317   6.753   7.014  0.1953  2.4177  2.2438
   83CHL1   C20 8598   3.457   6.745   7.973  0.0386  0.4999 -0.2292
   83CHL1   H20 8599   3.361   6.799   7.961 -0.2628 -0.2025 -1.1444
   83CHL1   C21 8600   3.582   6.838   7.972  0.4291 -0.5141  0.1653
   83CHL1  H21A 8601   3.561   6.935   8.021  1.2202  0.1184 -0.6880
   83CHL1  H21B 8602   3.614   6.871   7.870  0.4308 -1.0921 -0.0243
   83CHL1  H21C 8603   3.676   6.798   8.017  1.5284 -0.6784 -2.1224
   83CHL1   C22 8604   3.430   6.683   8.116 -0.8579 -0.5024 -0.0302
   83CHL1  H22A 8605   3.330   6.634   8.112 -0.2963 -1.6596 -0.1619
   83CHL1  H22B 8606   3.508   6.606   8.135 -2.4068 -2.2015 -0.2154
   83CHL1   C23 8607   3.431   6.780   8.233 -0.4828 -0.0202 -0.0219
   83CHL1  H23A 8608   3.532   6.827   8.230  0.3693 -1.7204  0.8233
   83CHL1  H23B 8609   3.346   6.847   8.209 -0.3088 -0.3906 -1.7470
   83CHL1   C24 8610   3.414   6.711   8.376  0.7549 -0.5373  0.4538
   83CHL1  H24A 8611   3.315   6.659   8.378  0.0600  0.7371  0.4460
   83CHL1  H24B 8612   3.496   6.636   8.380  2.1318  0.9352  0.9171
   83CHL1   C25 8613   3.432   6.807   8.497 -0.6052 -0.5490 -0.8262
   83CHL1   H25 8614   3.522   6.868   8.476  0.5563 -2.4954 -1.7587
   83CHL1   C26 8615   3.295   6.877   8.528 -0.6810 -0.2499 -0.0729
   83CHL1  H26A 8616   3.266   6.936   8.439  0.9203 -0.4420 -0.7521
   83CHL1  H26B 8617   3.220   6.803   8.562  0.8827 -0.6380  2.8318
   83CHL1  H26C 8618   3.299   6.956   8.606 -2.3967  1.7657 -1.9135
   83CHL1   C27 8619   3.477   6.719   8.622  0.1301 -0.1141  0.2458
   83CHL1  H27A 8620   3.417   6.626   8.634 -0.2655  0.1344  0.2017
   83CHL1  H27B 8621   3.582   6.686   8.607  0.0789  0.1032 -0.6539
   83CHL1  H27C 8622   3.464   6.777   8.716  0.6603  1.1827 -0.4424
   84CHL1    C3 8623   5.127   3.069   6.903  0.1680 -0.0184 -0.6335
   84CHL1    H3 8624   5.024   3.106   6.883 -0.4115 -2.2422 -2.1360
   84CHL1    O3 8625   5.208   3.088   6.790 -0.1821 -0.0372  0.3080
   84CHL1   H3' 8626   5.177   3.169   6.749  0.6799  0.4451  0.5875
   84CHL1    C4 8627   5.198   3.156   7.016  0.3429  0.5575 -0.3686
   84CHL1   H4A 8628   5.309   3.154   7.015  0.3395 -0.5120 -0.3324
   84CHL1   H4B 8629   5.183   3.262   6.990 -0.9310  0.6549  0.6550
   84CHL1    C5 8630   5.142   3.124   7.155 -0.5770  0.0654  0.2586
   84CHL1    C6 8631   5.092   3.224   7.228  0.2441  0.4436 -0.6007
   84CHL1    H6 8632   5.104   3.329   7.197  2.7723  0.2954 -0.3943
   84CHL1    C7 8633   5.036   3.193   7.365 -0.6669  0.3301  0.2750
   84CHL1   H7A 8634   5.080   3.271   7.431  1.5170 -0.1054 -0.5891
   84CHL1   H7B 8635   4.925   3.204   7.361 -1.1159 -3.0293  0.6448
   84CHL1    C8 8636   5.067   3.054   7.422  0.3470  0.0122 -0.4023
   84CHL1    H8 8637   5.172   3.050   7.459 -0.0275  0.1501  0.7406
   84CHL1   C14 8638   4.982   3.021   7.542  0.0525  0.0966 -0.2084
   84CHL1   H14 8639   4.881   3.025   7.495  0.3152  0.7601 -0.7294
   84CHL1   C15 8640   4.996   3.119   7.665 -0.2913  0.2576  0.5266
   84CHL1  H15A 8641   5.104   3.117   7.692  0.1197 -1.3924 -1.0520
   84CHL1  H15B 8642   4.961   3.220   7.636 -0.0265 -0.5699 -3.2642
   84CHL1   C16 8643   4.921   3.049   7.776  0.1544 -0.6642  0.2731
   84CHL1  H16A 8644   4.987   3.046   7.866  1.5629  0.1678 -0.6938
   84CHL1  H16B 8645   4.821   3.093   7.798 -0.1820 -1.3421  0.1434
   84CHL1   C17 8646   4.901   2.897   7.728 -0.6735  0.4663 -0.6316
   84CHL1   H17 8647   4.798   2.900   7.686 -0.7060  0.9101 -0.5243
   84CHL1   C13 8648   4.996   2.879   7.602 -1.0376  0.2371 -0.3224
   84CHL1   C18 8649   5.148   2.854   7.648 -0.3184 -0.1857 -0.3464
   84CHL1  H18A 8650   5.168   2.913   7.740  0.6608 -0.5216 -0.3363
   84CHL1  H18B 8651   5.163   2.748   7.677 -1.9479 -0.5217 -0.5964
   84CHL1  H18C 8652   5.219   2.871   7.564  1.1019 -0.7210  0.7223
   84CHL1   C12 8653   4.959   2.776   7.499  0.3311 -0.6787 -0.3085
   84CHL1  H12A 8654   4.984   2.672   7.529  1.7604 -0.3111 -0.1660
   84CHL1  H12B 8655   4.849   2.770   7.481  0.2690 -0.5462  0.0168
   84CHL1   C11 8656   5.034   2.806   7.362  0.8027 -0.5673  0.9639
   84CHL1  H11A 8657   5.138   2.769   7.373  1.3097  0.6947  0.6780
   84CHL1  H11B 8658   4.992   2.732   7.290  0.4958 -0.4731  1.0458
   84CHL1    C9 8659   5.040   2.952   7.312  0.3859 -0.1415  0.4004
   84CHL1    H9 8660   4.935   2.978   7.285  0.2285 -1.6014 -0.5171
   84CHL1   C10 8661   5.131   2.970   7.187  0.4387 -0.1691 -0.3986
   84CHL1   C19 8662   5.264   2.913   7.215 -0.4454  0.5302 -0.2523
   84CHL1  H19A 8663   5.340   2.927   7.135  0.6412  0.5979  0.7629
   84CHL1  H19B 8664   5.301   2.931   7.319 -2.3596 -0.2896  0.6109
   84CHL1  H19C 8665   5.253   2.803   7.203 -2.4011  0.9042 -2.8570
   84CHL1    C1 8666   5.071   2.892   7.076  0.3705  0.3912  0.6175
   84CHL1   H1A 8667   5.075   2.782   7.089  2.0798  0.1722 -1.3334
   84CHL1   H1B 8668   4.963   2.916   7.063  0.4445  1.5712  1.9192
   84CHL1    C2 8669   5.132   2.925   6.941  0.7679  0.2398  0.2149
   84CHL1   H2A 8670   5.086   2.858   6.865 -2.4914  0.9918  1.3621
   84CHL1   H2B 8671   5.236   2.891   6.955  0.3537 -0.5197  1.5812
   84CHL1   C20 8672   4.900   2.793   7.843  0.0118 -0.3442  0.3017
   84CHL1   H20 8673   5.002   2.798   7.886 -0.1013  0.4639  0.4870
   84CHL1   C21 8674   4.889   2.646   7.783  0.1314 -0.2081 -0.4068
   84CHL1  H21A 8675   4.894   2.561   7.854 -1.2298 -0.3867 -0.4921
   84CHL1  H21B 8676   4.980   2.625   7.723  1.5916  2.1678  0.8404
   84CHL1  H21C 8677   4.802   2.643   7.713 -1.0483  2.9652  0.7580
   84CHL1   C22 8678   4.801   2.833   7.952 -0.1411  0.0891  0.1137
   84CHL1  H22A 8679   4.849   2.924   7.994  0.0281 -0.2134  0.5881
   84CHL1  H22B 8680   4.706   2.864   7.904 -0.0783  0.3801  0.1786
   84CHL1   C23 8681   4.785   2.725   8.056  0.5399  0.6734 -0.4879
   84CHL1  H23A 8682   4.730   2.634   8.028 -0.9063  0.2426  3.2202
   84CHL1  H23B 8683   4.888   2.686   8.075  0.2629 -1.1415 -2.4177
   84CHL1   C24 8684   4.752   2.779   8.199  0.2057  0.3195  0.1557
   84CHL1  H24A 8685   4.811   2.862   8.245 -3.0226  1.1483  3.2629
   84CHL1  H24B 8686   4.650   2.824   8.201  0.5935  1.2490 -0.2355
   84CHL1   C25 8687   4.725   2.672   8.305 -0.6169 -0.0624  0.9954
   84CHL1   H25 8688   4.659   2.601   8.252 -1.4643  1.8462 -0.6544
   84CHL1   C26 8689   4.841   2.587   8.347 -0.3097 -0.4511  0.2668
   84CHL1  H26A 8690   4.896   2.549   8.258  1.6159  2.4372  0.0873
   84CHL1  H26B 8691   4.920   2.651   8.393  0.5606 -0.8785 -0.5821
   84CHL1  H26C 8692   4.815   2.502   8.414 -1.1661 -0.5710 -0.2125
   84CHL1   C27 8693   4.656   2.739   8.424  0.3782  0.8359 -0.5795
   84CHL1  H27A 8694   4.573   2.803   8.388  1.9224  2.5896 -1.1705
   84CHL1  H27B 8695   4.620   2.662   8.496 -2.2235 -0.2174 -2.8509
   84CHL1  H27C 8696   4.728   2.805   8.477  0.8555 -0.3426  0.2975
   85CHL1    C3 8697   3.940   1.136   6.997 -0.0641 -0.6101 -0.5181
   85CHL1    H3 8698   3.962   1.030   7.019 -1.4961 -0.4535  2.0142
   85CHL1    O3 8699   3.956   1.168   6.859  0.2041 -0.1713 -0.0983
   85CHL1   H3' 8700   3.950   1.263   6.854 -0.7710 -0.2505 -0.8155
   85CHL1    C4 8701   3.800   1.171   7.034  0.1673  0.4634 -0.0413
   85CHL1   H4A 8702   3.771   1.275   7.008 -0.1997 -0.0571 -1.8432
   85CHL1   H4B 8703   3.723   1.121   6.972 -0.1072 -0.6554  1.1592
   85CHL1    C5 8704   3.770   1.139   7.183  0.1521  0.5445  0.0777
   85CHL1    C6 8705   3.681   1.044   7.219 -0.0803 -0.2941 -0.0724
   85CHL1    H6 8706   3.621   1.002   7.137  1.0917  1.4414 -1.9047
   85CHL1    C7 8707   3.641   1.013   7.359 -0.2600 -0.3719  0.7038
   85CHL1   H7A 8708   3.531   1.023   7.364 -0.1532  0.5046  1.6605
   85CHL1   H7B 8709   3.670   0.906   7.365  0.0170 -0.6039 -2.8382
   85CHL1    C8 8710   3.706   1.112   7.460  0.2457  0.5103  0.2345
   85CHL1    H8 8711   3.649   1.206   7.446  2.7901  2.2144  0.6174
   85CHL1   C14 8712   3.706   1.061   7.604  0.7460 -0.1279  0.4452
   85CHL1   H14 8713   3.772   0.972   7.599  0.8952  0.0517 -2.9285
   85CHL1   C15 8714   3.585   0.993   7.663 -0.6192  0.3388 -0.7598
   85CHL1  H15A 8715   3.500   1.060   7.636  0.2278  2.0151  0.5406
   85CHL1  H15B 8716   3.569   0.889   7.628 -0.1888  0.4918 -1.4351
   85CHL1   C16 8717   3.606   1.004   7.815 -0.0305  0.6495  0.1289
   85CHL1  H16A 8718   3.516   1.058   7.850 -0.9950 -1.1774  0.5642
   85CHL1  H16B 8719   3.621   0.910   7.871  0.7027 -0.1084 -1.2705
   85CHL1   C17 8720   3.747   1.074   7.836  0.1706  0.0507  0.3485
   85CHL1   H17 8721   3.830   1.000   7.827  1.6240  1.4277  1.8043
   85CHL1   C13 8722   3.764   1.156   7.704  0.3753 -0.8311  0.0563
   85CHL1   C18 8723   3.681   1.282   7.723  0.3337  0.5235 -0.1327
   85CHL1  H18A 8724   3.683   1.349   7.634 -1.1202  0.5829 -0.1410
   85CHL1  H18B 8725   3.575   1.263   7.750  0.3394 -0.4231 -0.7417
   85CHL1  H18C 8726   3.743   1.337   7.797 -1.7749  1.0185  1.3434
   85CHL1   C12 8727   3.911   1.191   7.664 -0.0305 -0.1947  0.4444
   85CHL1  H12A 8728   3.950   1.272   7.729  0.0785  0.2926 -0.2080
   85CHL1  H12B 8729   3.968   1.096   7.670 -0.6533 -0.5338  1.1980
   85CHL1   C11 8730   3.930   1.241   7.526  0.4555 -0.7478 -0.0467
   85CHL1  H11A 8731   3.891   1.346   7.525 -0.0813 -0.9510 -0.6126
   85CHL1  H11B 8732   4.038   1.254   7.505  0.4208  0.7622  0.5410
   85CHL1    C9 8733   3.851   1.159   7.426  0.3063  0.1774  0.3268
   85CHL1    H9 8734   3.900   1.060   7.433  0.1128  0.2051  2.9212
   85CHL1   C10 8735   3.866   1.209   7.278  0.6023 -0.6665  0.3049
   85CHL1   C19 8736   3.830   1.361   7.267  0.1653  0.3495 -0.0276
   85CHL1  H19A 8737   3.825   1.385   7.159  0.2559 -1.2820 -0.4153
   85CHL1  H19B 8738   3.732   1.381   7.316  0.8829  1.2029  1.1336
   85CHL1  H19C 8739   3.905   1.427   7.316 -0.8115  1.2079  0.3486
   85CHL1    C1 8740   4.019   1.200   7.228  0.3332 -0.5258 -0.2585
   85CHL1   H1A 8741   4.067   1.279   7.289 -0.2623 -1.4398  1.4849
   85CHL1   H1B 8742   4.060   1.099   7.250  1.2013 -0.5836 -1.9901
   85CHL1    C2 8743   4.040   1.224   7.078  0.0546  0.3767  0.5658
   85CHL1   H2A 8744   4.144   1.207   7.043 -0.6408  0.1788 -1.4993
   85CHL1   H2B 8745   4.024   1.330   7.047  0.5502 -0.3278 -2.3361
   85CHL1   C20 8746   3.768   1.135   7.981 -0.6876 -0.2659  0.0216
   85CHL1   H20 8747   3.691   1.213   7.998 -0.3187  0.1440 -0.1702
   85CHL1   C21 8748   3.902   1.202   8.003 -0.0641  0.1442 -0.2445
   85CHL1  H21A 8749   3.981   1.124   8.003 -0.4682 -0.2980 -1.5426
   85CHL1  H21B 8750   3.896   1.237   8.108 -4.9830 -3.0473  0.8729
   85CHL1  H21C 8751   3.925   1.279   7.926 -0.6246  1.2634  0.6627
   85CHL1   C22 8752   3.748   1.029   8.103  0.0726  0.5270  0.8009
   85CHL1  H22A 8753   3.640   1.003   8.096  0.1935 -0.6026  2.4093
   85CHL1  H22B 8754   3.814   0.942   8.081 -0.3643  0.6693 -1.3113
   85CHL1   C23 8755   3.764   1.073   8.249 -0.1898  0.4666  0.0645
   85CHL1  H23A 8756   3.873   1.077   8.271 -0.4516  1.8744  1.3118
   85CHL1  H23B 8757   3.736   1.179   8.269 -0.4381  0.8546 -2.1613
   85CHL1   C24 8758   3.680   0.988   8.350  0.2176 -0.2544 -0.6324
   85CHL1  H24A 8759   3.574   1.001   8.319  0.6170  1.4003 -1.4538
   85CHL1  H24B 8760   3.704   0.886   8.314 -0.1947 -0.7111  0.3655
   85CHL1   C25 8761   3.707   1.010   8.501  0.4959 -0.1326  0.2726
   85CHL1   H25 8762   3.815   1.027   8.520  0.4128 -0.6566  1.2679
   85CHL1   C26 8763   3.629   1.130   8.558 -0.3451 -0.4299  0.7396
   85CHL1  H26A 8764   3.671   1.147   8.659  3.5577 -1.0713 -0.5864
   85CHL1  H26B 8765   3.646   1.212   8.484  1.5556 -2.3827 -1.1578
   85CHL1  H26C 8766   3.521   1.106   8.558 -0.9410  1.8109 -1.2804
   85CHL1   C27 8767   3.662   0.895   8.595 -1.0796 -0.1842 -0.0539
   85CHL1  H27A 8768   3.739   0.815   8.603 -0.5755  0.2929 -0.0490
   85CHL1  H27B 8769   3.652   0.929   8.701  1.6897  0.0750  0.2179
   85CHL1  H27C 8770   3.572   0.847   8.551 -0.1853 -1.1827 -0.8394
   86CHL1    C3 8771   1.433   3.637   7.148  0.2397  0.1890 -0.6222
   86CHL1    H3 8772   1.538   3.638   7.183 -0.3029 -0.2980  1.1534
   86CHL1    O3 8773   1.439   3.633   7.008  0.8835  0.4411  0.0332
   86CHL1   H3' 8774   1.347   3.610   6.991  0.8185 -0.2263  1.2222
   86CHL1    C4 8775   1.363   3.511   7.191  0.9240  0.9006 -0.3527
   86CHL1   H4A 8776   1.256   3.507   7.161  0.7543 -1.3064  0.3329
   86CHL1   H4B 8777   1.415   3.420   7.154  4.3868  2.2777  0.6535
   86CHL1    C5 8778   1.355   3.508   7.348  0.2422  0.5983 -0.3819
   86CHL1    C6 8779   1.399   3.402   7.415 -1.0014 -0.0594 -0.3217
   86CHL1    H6 8780   1.437   3.315   7.359 -1.0835 -1.2200  1.3507
   86CHL1    C7 8781   1.377   3.388   7.564  0.1928 -0.7655  0.0733
   86CHL1   H7A 8782   1.356   3.282   7.586  0.4040 -1.0784 -1.1373
   86CHL1   H7B 8783   1.474   3.405   7.615 -0.6032  0.0923  1.3565
   86CHL1    C8 8784   1.265   3.485   7.618 -0.2230 -0.1068  0.1544
   86CHL1    H8 8785   1.168   3.460   7.570 -0.3066  1.1024 -0.3534
   86CHL1   C14 8786   1.259   3.500   7.767  0.3618  0.0810  0.0133
   86CHL1   H14 8787   1.352   3.543   7.811 -1.0409  3.4664 -0.0765
   86CHL1   C15 8788   1.256   3.369   7.837 -0.2129  1.0407 -0.1072
   86CHL1  H15A 8789   1.177   3.308   7.788 -1.5562  0.9551  2.0085
   86CHL1  H15B 8790   1.348   3.309   7.855 -1.4258 -1.0943 -0.6141
   86CHL1   C16 8791   1.206   3.395   7.973  0.4968 -0.2921 -0.6591
   86CHL1  H16A 8792   1.115   3.332   7.986  1.5396 -1.4125  1.7293
   86CHL1  H16B 8793   1.274   3.379   8.059 -0.5443 -1.7363 -0.0628
   86CHL1   C17 8794   1.167   3.548   7.977 -0.1864  0.1085  0.1652
   86CHL1   H17 8795   1.259   3.603   8.006  0.1741 -1.9407  3.3822
   86CHL1   C13 8796   1.152   3.587   7.831  0.3418  0.7052 -0.1921
   86CHL1   C18 8797   1.013   3.555   7.778  0.3230 -0.8668 -0.3986
   86CHL1  H18A 8798   0.953   3.648   7.787  0.7799 -0.5347 -0.7322
   86CHL1  H18B 8799   1.012   3.533   7.670  0.2184  0.8398 -0.7805
   86CHL1  H18C 8800   0.971   3.468   7.833  0.2576 -1.5122 -1.4641
   86CHL1   C12 8801   1.194   3.730   7.795  0.0520  0.1434 -0.2608
   86CHL1  H12A 8802   1.127   3.815   7.820 -1.4489 -0.9205 -0.5664
   86CHL1  H12B 8803   1.290   3.752   7.846 -0.8386 -1.1770  2.1627
   86CHL1   C11 8804   1.206   3.744   7.640  0.6238  0.3037 -0.3574
   86CHL1  H11A 8805   1.103   3.746   7.597  0.2392  0.1061  0.5260
   86CHL1  H11B 8806   1.261   3.837   7.615  1.1172  0.7424  2.0829
   86CHL1    C9 8807   1.291   3.630   7.569  0.2229  0.0336  0.3514
   86CHL1    H9 8808   1.392   3.660   7.606 -1.1235  0.8685  3.7138
   86CHL1   C10 8809   1.287   3.632   7.412 -0.8591  0.0730  0.3329
   86CHL1   C19 8810   1.142   3.634   7.359  0.7246 -0.4096 -0.2803
   86CHL1  H19A 8811   1.089   3.726   7.393  2.1319  0.3877 -0.1776
   86CHL1  H19B 8812   1.122   3.638   7.250  0.2690  1.0554 -0.1632
   86CHL1  H19C 8813   1.084   3.544   7.390 -0.4538  0.3998 -0.0305
   86CHL1    C1 8814   1.362   3.756   7.358 -0.2593 -0.4243  0.4258
   86CHL1   H1A 8815   1.310   3.847   7.396 -1.2700 -0.3740 -0.9950
   86CHL1   H1B 8816   1.465   3.766   7.397 -0.4691 -0.2558  0.9473
   86CHL1    C2 8817   1.380   3.760   7.207  0.1781 -1.2356 -0.1089
   86CHL1   H2A 8818   1.447   3.845   7.181 -1.5474  0.3063  0.2853
   86CHL1   H2B 8819   1.278   3.783   7.169 -1.4860 -1.8380  3.5310
   86CHL1   C20 8820   1.056   3.576   8.079 -1.1407  0.0729 -0.1027
   86CHL1   H20 8821   0.965   3.534   8.030 -0.1901 -2.2728  0.0110
   86CHL1   C21 8822   1.036   3.731   8.083  0.0054  0.2346 -0.5150
   86CHL1  H21A 8823   1.010   3.758   7.979 -0.5441  1.9880  0.0416
   86CHL1  H21B 8824   1.129   3.769   8.132 -0.6716  0.5012  0.6033
   86CHL1  H21C 8825   0.952   3.771   8.143 -0.1866 -0.6174 -0.1974
   86CHL1   C22 8826   1.086   3.517   8.219 -0.0599 -0.6789  0.5054
   86CHL1  H22A 8827   1.109   3.409   8.225  2.3555 -0.1996  0.6894
   86CHL1  H22B 8828   1.179   3.574   8.241 -0.2938 -0.2276  0.3418
   86CHL1   C23 8829   0.975   3.548   8.318 -0.1019 -0.1249 -0.9507
   86CHL1  H23A 8830   0.926   3.647   8.304  0.0472  0.3351  1.3380
   86CHL1  H23B 8831   0.888   3.484   8.290  2.4715 -3.4077 -2.1607
   86CHL1   C24 8832   1.018   3.524   8.461 -0.2203  1.2272 -0.0474
   86CHL1  H24A 8833   1.125   3.552   8.476 -0.0735  0.4475  0.4243
   86CHL1  H24B 8834   0.952   3.576   8.533 -0.3313 -0.3604  1.0568
   86CHL1   C25 8835   1.025   3.372   8.500  0.6964 -0.5292  0.3348
   86CHL1   H25 8836   1.116   3.325   8.458 -0.2203  0.0803 -2.5406
   86CHL1   C26 8837   1.040   3.354   8.653  0.0798 -0.6154 -0.6044
   86CHL1  H26A 8838   1.064   3.247   8.672 -0.0290 -0.4454  0.5624
   86CHL1  H26B 8839   1.134   3.408   8.679  0.3536 -0.9942 -0.7908
   86CHL1  H26C 8840   0.952   3.390   8.710  0.7741 -0.2275  0.2518
   86CHL1   C27 8841   0.907   3.285   8.453  0.1722  0.8179  0.0101
   86CHL1  H27A 8842   0.925   3.252   8.349  1.0195 -0.8285  0.6404
   86CHL1  H27B 8843   0.889   3.198   8.520  0.4397  1.1489  0.5203
   86CHL1  H27C 8844   0.815   3.348   8.451 -0.9376 -0.7351 -2.6833
   87CHL1    C3 8845   6.331   3.506   6.989  0.0489  0.3570 -0.0014
   87CHL1    H3 8846   6.310   3.615   6.987  1.2490  0.5943 -1.9351
   87CHL1    O3 8847   6.329   3.464   6.855  0.1080 -0.2273 -0.3417
   87CHL1   H3' 8848   6.304   3.542   6.805  1.2430 -0.1202 -0.7645
   87CHL1    C4 8849   6.472   3.478   7.039 -0.1165  0.0615  0.2849
   87CHL1   H4A 8850   6.485   3.369   7.023  0.5915  0.3594 -1.3630
   87CHL1   H4B 8851   6.548   3.536   6.981  0.0360 -0.2563  0.1664
   87CHL1    C5 8852   6.488   3.506   7.190  0.1637 -0.4811 -0.5499
   87CHL1    C6 8853   6.589   3.588   7.231 -0.6587 -0.0398 -0.5522
   87CHL1    H6 8854   6.671   3.619   7.164  1.7674 -0.6098  1.9775
   87CHL1    C7 8855   6.622   3.622   7.377  0.5476 -0.3521  0.0118
   87CHL1   H7A 8856   6.731   3.614   7.400  1.0675  0.8563 -1.8060
   87CHL1   H7B 8857   6.600   3.726   7.408  1.3707  0.4191 -1.8212
   87CHL1    C8 8858   6.535   3.535   7.477  0.5751  0.1576 -0.3057
   87CHL1    H8 8859   6.585   3.435   7.479  1.1380  0.3922 -1.4741
   87CHL1   C14 8860   6.524   3.605   7.613 -0.0048  0.6251 -0.0592
   87CHL1   H14 8861   6.469   3.701   7.599 -0.1095  0.9405  2.2549
   87CHL1   C15 8862   6.651   3.650   7.694  0.3826  0.2245 -0.5881
   87CHL1  H15A 8863   6.727   3.569   7.689  0.3826  0.2691 -1.3946
   87CHL1  H15B 8864   6.685   3.740   7.638 -0.0023  0.3014 -0.7011
   87CHL1   C16 8865   6.604   3.672   7.839  0.6562 -0.1079  0.6314
   87CHL1  H16A 8866   6.654   3.605   7.911 -0.5815 -2.1466 -0.3385
   87CHL1  H16B 8867   6.614   3.779   7.870 -2.9316  0.2931  0.7555
   87CHL1   C17 8868   6.448   3.636   7.842 -0.0011  0.0038 -0.2040
   87CHL1   H17 8869   6.386   3.727   7.831 -0.4724 -0.1372  1.0572
   87CHL1   C13 8870   6.438   3.538   7.720 -0.0457 -0.1795 -0.2386
   87CHL1   C18 8871   6.501   3.406   7.767  0.0730  0.4455 -0.8362
   87CHL1  H18A 8872   6.431   3.345   7.828  1.7259  0.1662  0.8902
   87CHL1  H18B 8873   6.536   3.347   7.679  1.1016 -0.9143  0.4229
   87CHL1  H18C 8874   6.593   3.415   7.829 -0.7828 -2.1914  1.0008
   87CHL1   C12 8875   6.293   3.521   7.664  0.5601  0.2932 -0.6463
   87CHL1  H12A 8876   6.235   3.460   7.736  2.8555  0.4157  1.4512
   87CHL1  H12B 8877   6.256   3.626   7.660 -0.7168 -0.1356 -0.4813
   87CHL1   C11 8878   6.292   3.456   7.529 -0.0174  0.1775  0.4702
   87CHL1  H11A 8879   6.305   3.346   7.540 -0.8783  0.1109  0.9347
   87CHL1  H11B 8880   6.193   3.459   7.477  1.3860 -1.5203 -2.5463
   87CHL1    C9 8881   6.390   3.513   7.425  0.1370 -0.3496  0.7788
   87CHL1    H9 8882   6.369   3.620   7.403 -0.6149 -0.4978  0.7755
   87CHL1   C10 8883   6.381   3.445   7.279 -0.1193  0.1001  0.2376
   87CHL1   C19 8884   6.414   3.293   7.284  0.5498 -0.0652  0.1002
   87CHL1  H19A 8885   6.513   3.280   7.332  1.3711 -0.6977 -1.6587
   87CHL1  H19B 8886   6.331   3.248   7.342 -2.4455  1.3392 -2.7140
   87CHL1  H19C 8887   6.412   3.256   7.179 -2.0200 -1.4019  0.5525
   87CHL1    C1 8888   6.241   3.480   7.217  0.0220 -0.0280 -1.5431
   87CHL1   H1A 8889   6.159   3.434   7.277  1.9569 -0.6620  0.7771
   87CHL1   H1B 8890   6.222   3.587   7.240  2.2422  0.2079 -0.5364
   87CHL1    C2 8891   6.222   3.448   7.068  0.8279  0.2534 -0.2212
   87CHL1   H2A 8892   6.129   3.505   7.046 -0.9462 -1.4839  2.2564
   87CHL1   H2B 8893   6.210   3.340   7.049  1.0504 -0.0714  1.3449
   87CHL1   C20 8894   6.412   3.589   7.991  1.0087  0.9662  0.1045
   87CHL1   H20 8895   6.482   3.508   8.019  0.4799 -0.3230 -2.0368
   87CHL1   C21 8896   6.265   3.545   8.007 -0.1192  0.4697 -0.1375
   87CHL1  H21A 8897   6.239   3.533   8.114  0.9594  0.5361  0.1407
   87CHL1  H21B 8898   6.252   3.448   7.954 -1.2226  0.4404  0.1700
   87CHL1  H21C 8899   6.191   3.622   7.975 -0.3003  0.5001  0.3468
   87CHL1   C22 8900   6.438   3.700   8.100 -0.0214  0.4028  0.4040
   87CHL1  H22A 8901   6.539   3.743   8.083  0.2944 -0.6243 -0.4544
   87CHL1  H22B 8902   6.360   3.778   8.093 -3.4639 -2.8599 -0.9768
   87CHL1   C23 8903   6.439   3.651   8.248  0.3954  0.1075  1.0348
   87CHL1  H23A 8904   6.333   3.630   8.271  0.9248 -1.5053  2.2376
   87CHL1  H23B 8905   6.493   3.557   8.274  1.1024  0.7473  1.9821
   87CHL1   C24 8906   6.506   3.751   8.342 -0.0773  0.4431  0.4185
   87CHL1  H24A 8907   6.614   3.722   8.343  0.4625  2.2755 -1.0570
   87CHL1  H24B 8908   6.498   3.848   8.290 -1.9236 -0.4373 -1.0283
   87CHL1   C25 8909   6.453   3.766   8.485 -0.6097  0.7320 -0.1176
   87CHL1   H25 8910   6.343   3.783   8.478 -0.8527 -0.6366  0.0670
   87CHL1   C26 8911   6.477   3.639   8.555  0.7573 -0.1063 -0.7337
   87CHL1  H26A 8912   6.577   3.595   8.536  0.5142 -0.2126 -1.8030
   87CHL1  H26B 8913   6.470   3.651   8.666 -2.3420  0.4583 -0.9239
   87CHL1  H26C 8914   6.411   3.560   8.515  1.1810 -0.6375 -0.3966
   87CHL1   C27 8915   6.533   3.879   8.554  0.0048  0.0905 -0.3746
   87CHL1  H27A 8916   6.526   3.869   8.664 -0.9085 -1.0561 -0.5055
   87CHL1  H27B 8917   6.639   3.874   8.523 -0.2176 -0.5833 -1.0676
   87CHL1  H27C 8918   6.488   3.976   8.524 -2.5152 -0.8038  0.2120
   88CHL1    C3 8919   4.907   0.569   7.027  0.1279  0.5497 -0.3276
   88CHL1    H3 8920   4.861   0.479   7.074 -2.7653  1.6601 -0.8445
   88CHL1    O3 8921   4.888   0.567   6.883 -0.3531 -0.1020  0.0264
   88CHL1   H3' 8922   4.897   0.659   6.858 -0.9702 -0.3324 -1.1329
   88CHL1    C4 8923   4.849   0.708   7.081 -0.7706 -0.3985 -0.1662
   88CHL1   H4A 8924   4.897   0.789   7.023 -0.6043  0.1527  0.7211
   88CHL1   H4B 8925   4.744   0.711   7.046 -0.0303 -0.8498 -2.6230
   88CHL1    C5 8926   4.885   0.734   7.224 -0.1647 -0.0359  0.0596
   88CHL1    C6 8927   4.788   0.776   7.308 -0.5722 -0.1279 -0.4917
   88CHL1    H6 8928   4.686   0.802   7.274 -0.8070  0.4599  0.6163
   88CHL1    C7 8929   4.805   0.812   7.449 -0.1294 -0.1439 -0.4081
   88CHL1   H7A 8930   4.771   0.915   7.476 -1.9671 -0.6404 -0.6352
   88CHL1   H7B 8931   4.738   0.743   7.504 -0.3432  0.2020 -0.2277
   88CHL1    C8 8932   4.949   0.812   7.496 -0.0497  0.0232  0.4751
   88CHL1    H8 8933   4.998   0.908   7.469  0.4896 -0.5300 -0.5886
   88CHL1   C14 8934   4.952   0.773   7.647  0.0660 -0.5149 -0.4862
   88CHL1   H14 8935   4.919   0.668   7.659 -0.5542 -0.0198  3.1257
   88CHL1   C15 8936   4.872   0.861   7.755 -0.1294  0.5677  0.3919
   88CHL1  H15A 8937   4.889   0.967   7.729  1.5596  0.9053  2.5557
   88CHL1  H15B 8938   4.765   0.835   7.766 -0.1270  1.0525  1.6881
   88CHL1   C16 8939   4.935   0.837   7.888  0.2822  0.0530 -0.0637
   88CHL1  H16A 8940   4.971   0.938   7.916 -0.6249  0.1234  0.9202
   88CHL1  H16B 8941   4.873   0.790   7.967  0.1208 -0.3499 -0.4269
   88CHL1   C17 8942   5.071   0.760   7.858 -0.0193 -0.0489 -0.0856
   88CHL1   H17 8943   5.037   0.654   7.867 -0.2595 -0.1004 -1.4228
   88CHL1   C13 8944   5.094   0.776   7.708  0.2596 -0.1400  0.5670
   88CHL1   C18 8945   5.156   0.917   7.687 -0.7603 -0.1363  0.5815
   88CHL1  H18A 8946   5.259   0.898   7.723 -1.5407 -0.7240  2.7217
   88CHL1  H18B 8947   5.172   0.948   7.582 -2.9774 -2.8496 -0.6982
   88CHL1  H18C 8948   5.120   1.001   7.750  1.8598  1.2287  0.3975
   88CHL1   C12 8949   5.175   0.664   7.637 -0.6272 -0.6015  0.2531
   88CHL1  H12A 8950   5.277   0.672   7.681 -0.4425  1.1801 -0.4273
   88CHL1  H12B 8951   5.146   0.559   7.658  2.3170 -1.4851  0.3045
   88CHL1   C11 8952   5.180   0.685   7.483 -0.3014 -0.2538 -0.8889
   88CHL1  H11A 8953   5.252   0.765   7.454  0.4923 -0.8115 -0.5175
   88CHL1  H11B 8954   5.219   0.587   7.445  0.1800 -0.7441  0.7916
   88CHL1    C9 8955   5.037   0.709   7.427  0.1196 -0.1309 -0.0502
   88CHL1    H9 8956   4.980   0.618   7.453 -2.6940  1.6470  0.4257
   88CHL1   C10 8957   5.035   0.716   7.273  0.4717 -0.3319 -0.0606
   88CHL1   C19 8958   5.123   0.834   7.230 -0.1118  0.8396 -0.2764
   88CHL1  H19A 8959   5.120   0.845   7.119  2.1538 -0.9127 -0.5903
   88CHL1  H19B 8960   5.093   0.924   7.287  2.0431  0.7861  1.0480
   88CHL1  H19C 8961   5.228   0.808   7.252  0.0084  1.5815  0.0389
   88CHL1    C1 8962   5.084   0.586   7.206 -0.2513  0.7570 -0.0294
   88CHL1   H1A 8963   5.194   0.569   7.199 -0.5754 -0.7648 -3.1990
   88CHL1   H1B 8964   5.058   0.496   7.267 -0.8010 -0.0579 -1.4053
   88CHL1    C2 8965   5.055   0.561   7.056  0.7802  0.2625 -0.2771
   88CHL1   H2A 8966   5.098   0.465   7.019  2.3100  1.1117 -0.8178
   88CHL1   H2B 8967   5.106   0.643   7.001  0.4201  0.0567 -0.9297
   88CHL1   C20 8968   5.193   0.777   7.948  0.2140 -0.4374 -0.2584
   88CHL1   H20 8969   5.259   0.858   7.910  0.1428 -0.4241 -0.3561
   88CHL1   C21 8970   5.267   0.641   7.959  0.2562  0.0903 -0.3869
   88CHL1  H21A 8971   5.218   0.582   8.039 -0.7353 -0.2585 -1.2325
   88CHL1  H21B 8972   5.377   0.649   7.972  0.6410 -2.8844 -1.1026
   88CHL1  H21C 8973   5.244   0.580   7.869 -1.5728 -0.4230  0.3691
   88CHL1   C22 8974   5.159   0.836   8.083  0.4005  0.9684 -0.7595
   88CHL1  H22A 8975   5.100   0.929   8.071  0.9446  1.5750  0.9946
   88CHL1  H22B 8976   5.085   0.771   8.135  2.6207 -0.4755  0.7577
   88CHL1   C23 8977   5.272   0.866   8.189  0.1809 -0.3018  0.7949
   88CHL1  H23A 8978   5.330   0.773   8.208  1.0454  0.2854  1.0713
   88CHL1  H23B 8979   5.335   0.940   8.136 -1.9533  1.3726  0.4768
   88CHL1   C24 8980   5.205   0.934   8.314 -0.6900  0.2912 -0.0380
   88CHL1  H24A 8981   5.209   1.044   8.304  0.4886  0.3477  0.8537
   88CHL1  H24B 8982   5.101   0.900   8.335 -0.4103 -0.1362  0.7287
   88CHL1   C25 8983   5.299   0.929   8.438  1.0112  0.6762  0.2936
   88CHL1   H25 8984   5.391   0.977   8.399  1.4786 -1.2218 -1.0327
   88CHL1   C26 8985   5.240   1.029   8.542  0.1704 -0.2730  0.5966
   88CHL1  H26A 8986   5.135   1.000   8.560  0.0399 -0.1270  0.0974
   88CHL1  H26B 8987   5.288   1.035   8.642  2.5045  2.8214 -0.5275
   88CHL1  H26C 8988   5.235   1.130   8.496 -1.3794 -0.2813  0.7181
   88CHL1   C27 8989   5.314   0.786   8.493  0.1715  0.2099 -0.0134
   88CHL1  H27A 8990   5.356   0.771   8.595  1.0848 -0.3851 -0.4690
   88CHL1  H27B 8991   5.208   0.753   8.502  0.0344  0.8816  0.9875
   88CHL1  H27C 8992   5.375   0.733   8.418  2.3550  0.9918  1.1285
   89CHL1    C3 8993   1.080   4.254   7.043 -0.1774 -0.5052  0.0767
   89CHL1    H3 8994   0.975   4.227   7.068 -1.0917  1.5855 -1.2618
   89CHL1    O3 8995   1.084   4.278   6.902 -0.0031  0.2765  0.4722
   89CHL1   H3' 8996   1.176   4.296   6.884 -0.3420  0.5402 -1.1633
   89CHL1    C4 8997   1.127   4.390   7.102 -0.1295  0.8445 -0.7824
   89CHL1   H4A 8998   1.229   4.403   7.058  0.2749 -0.8480 -0.4325
   89CHL1   H4B 8999   1.070   4.479   7.069 -0.9818  0.5550 -0.1121
   89CHL1    C5 9000   1.136   4.375   7.254 -0.2056  0.2630  0.1228
   89CHL1    C6 9001   1.052   4.454   7.330  0.0927  0.9061  0.0560
   89CHL1    H6 9002   0.984   4.526   7.282 -0.2833  1.1795  0.9782
   89CHL1    C7 9003   1.032   4.442   7.476  0.2913  1.0109  0.1249
   89CHL1   H7A 9004   1.034   4.545   7.519  1.6448  0.9622  0.2106
   89CHL1   H7B 9005   0.934   4.391   7.487  0.0316  1.4870  0.0798
   89CHL1    C8 9006   1.150   4.363   7.535 -0.1338 -0.6194 -0.3132
   89CHL1    H8 9007   1.238   4.431   7.532 -0.2889 -0.3884  0.2041
   89CHL1   C14 9008   1.120   4.332   7.675  0.1064  0.6286 -0.4834
   89CHL1   H14 9009   1.039   4.255   7.676  0.7335 -0.1995  2.9771
   89CHL1   C15 9010   1.053   4.438   7.764 -0.3919  0.0117 -0.0068
   89CHL1  H15A 9011   1.099   4.538   7.754 -0.1497  0.3031  3.1935
   89CHL1  H15B 9012   0.942   4.444   7.756 -0.3615 -0.0788 -0.5768
   89CHL1   C16 9013   1.089   4.391   7.903 -0.3723  0.6326  0.0063
   89CHL1  H16A 9014   1.169   4.452   7.951  0.1629 -0.7223  0.8983
   89CHL1  H16B 9015   1.007   4.379   7.977  1.4452  0.0933  2.0526
   89CHL1   C17 9016   1.162   4.254   7.884  0.5735  0.3375  0.1324
   89CHL1   H17 9017   1.082   4.179   7.864 -0.1868  1.1478  0.0928
   89CHL1   C13 9018   1.236   4.268   7.749 -0.5084 -0.7311  0.3847
   89CHL1   C18 9019   1.353   4.364   7.772 -0.1991 -0.3727 -0.5267
   89CHL1  H18A 9020   1.434   4.312   7.828 -1.7562 -3.0496 -0.6074
   89CHL1  H18B 9021   1.407   4.398   7.681  2.6791  0.3281  1.2949
   89CHL1  H18C 9022   1.318   4.456   7.823 -0.9360 -0.7837 -0.2836
   89CHL1   C12 9023   1.276   4.139   7.673 -0.1984  0.6740  0.1019
   89CHL1  H12A 9024   1.369   4.091   7.709 -0.2919  0.0863 -0.4275
   89CHL1  H12B 9025   1.191   4.068   7.680 -0.6493  1.0646 -1.1872
   89CHL1   C11 9026   1.306   4.163   7.529 -0.4385 -0.2210 -0.2541
   89CHL1  H11A 9027   1.406   4.212   7.531  0.2444 -1.5577  1.1811
   89CHL1  H11B 9028   1.333   4.070   7.474  1.4707  1.4826 -2.3884
   89CHL1    C9 9029   1.192   4.234   7.458  0.0267  0.9022  0.2810
   89CHL1    H9 9030   1.101   4.172   7.469  1.3056 -0.6129  4.3114
   89CHL1   C10 9031   1.222   4.261   7.307  0.7120 -0.5585 -0.7077
   89CHL1   C19 9032   1.371   4.306   7.293  0.0010  0.9716  0.0666
   89CHL1  H19A 9033   1.445   4.229   7.325 -0.0419  0.3263 -1.2909
   89CHL1  H19B 9034   1.388   4.326   7.185  0.3415 -3.9621 -1.0180
   89CHL1  H19C 9035   1.393   4.404   7.341  1.2887  0.0143  1.5237
   89CHL1    C1 9036   1.193   4.122   7.233  0.5130 -0.2191 -0.3446
   89CHL1   H1A 9037   1.263   4.042   7.265  0.4334 -0.3945 -0.6098
   89CHL1   H1B 9038   1.095   4.082   7.267  0.2582  1.1859  0.6979
   89CHL1    C2 9039   1.177   4.141   7.082 -0.5504 -0.5263  0.2681
   89CHL1   H2A 9040   1.149   4.047   7.031  1.2434 -1.4785  0.9508
   89CHL1   H2B 9041   1.280   4.158   7.044 -0.1387 -0.3085  1.4462
   89CHL1   C20 9042   1.241   4.203   8.003  1.1355  0.2127 -0.0962
   89CHL1   H20 9043   1.300   4.286   8.047 -1.2335  1.0633  1.6520
   89CHL1   C21 9044   1.330   4.077   7.982  0.0383  0.0736  0.3550
   89CHL1  H21A 9045   1.264   3.990   7.959  0.7042  0.1514 -2.1150
   89CHL1  H21B 9046   1.387   4.048   8.073 -0.4506  0.8707  0.9295
   89CHL1  H21C 9047   1.407   4.092   7.903 -0.6384 -0.7971 -0.4942
   89CHL1   C22 9048   1.140   4.159   8.118 -0.2895 -0.6491 -0.3327
   89CHL1  H22A 9049   1.066   4.240   8.133  0.8314  0.2121  0.7965
   89CHL1  H22B 9050   1.088   4.065   8.090 -0.0191 -0.4668 -1.5163
   89CHL1   C23 9051   1.207   4.128   8.255  0.1151 -0.3217  0.0053
   89CHL1  H23A 9052   1.284   4.049   8.239  0.3793 -0.0735  0.0354
   89CHL1  H23B 9053   1.256   4.218   8.299 -0.5167 -1.1473  2.5180
   89CHL1   C24 9054   1.097   4.071   8.355 -0.1332 -0.8505  0.0436
   89CHL1  H24A 9055   1.012   4.143   8.349 -1.0912 -2.0345 -1.2038
   89CHL1  H24B 9056   1.063   3.972   8.318  1.6042 -0.9906 -1.2882
   89CHL1   C25 9057   1.152   4.048   8.493  0.0582 -0.3618 -0.3882
   89CHL1   H25 9058   1.180   4.147   8.536  1.1737 -0.8167 -0.0395
   89CHL1   C26 9059   1.052   3.972   8.579  0.2133  0.2427 -0.7618
   89CHL1  H26A 9060   1.109   3.964   8.675  0.2462 -1.0676 -0.8830
   89CHL1  H26B 9061   0.964   4.040   8.583 -1.0891 -1.4302  0.1257
   89CHL1  H26C 9062   1.018   3.871   8.549  2.4987 -0.6667 -0.4791
   89CHL1   C27 9063   1.280   3.974   8.501 -0.3337 -0.4995  0.0785
   89CHL1  H27A 9064   1.324   3.949   8.600 -0.2882 -2.2845 -0.3558
   89CHL1  H27B 9065   1.282   3.880   8.441  0.4277 -0.2657 -0.2701
   89CHL1  H27C 9066   1.366   4.026   8.455 -0.1179  0.7835  1.8528
   90CHL1    C3 9067   6.565   6.409   6.921 -0.7367  0.1538 -0.0890
   90CHL1    H3 9068   6.460   6.425   6.951 -0.0157  2.2424  1.5758
   90CHL1    O3 9069   6.577   6.454   6.786  0.5289  0.1390 -0.1255
   90CHL1   H3' 9070   6.594   6.548   6.787  1.8808 -0.0970  0.5788
   90CHL1    C4 9071   6.658   6.501   7.012  0.7413 -0.1641 -0.1696
   90CHL1   H4A 9072   6.758   6.497   6.963  1.0234 -1.0399  0.4503
   90CHL1   H4B 9073   6.619   6.605   7.009  2.7828  0.6192 -1.7537
   90CHL1    C5 9074   6.662   6.449   7.150 -0.1168  0.0889  0.4465
   90CHL1    C6 9075   6.643   6.528   7.252 -0.2438  0.1214  0.5931
   90CHL1    H6 9076   6.620   6.635   7.238  0.2187  0.1025 -0.4515
   90CHL1    C7 9077   6.639   6.487   7.393  0.0819 -0.3420 -0.1280
   90CHL1   H7A 9078   6.702   6.559   7.450  0.2490  0.5699 -1.4425
   90CHL1   H7B 9079   6.536   6.478   7.432 -1.5621  0.9296 -3.7748
   90CHL1    C8 9080   6.707   6.345   7.415  0.1215 -0.6573  0.0771
   90CHL1    H8 9081   6.815   6.354   7.394  0.1699 -1.4049 -0.0152
   90CHL1   C14 9082   6.667   6.288   7.551 -0.3923 -0.8426 -0.4537
   90CHL1   H14 9083   6.556   6.279   7.549 -0.8123  2.6696  0.4589
   90CHL1   C15 9084   6.700   6.376   7.677 -0.8382  0.4763  0.8921
   90CHL1  H15A 9085   6.802   6.420   7.667  0.7778 -2.8253  1.3418
   90CHL1  H15B 9086   6.623   6.453   7.696 -2.6963 -0.9461 -0.4648
   90CHL1   C16 9087   6.689   6.274   7.788  0.2449  0.0342 -0.3524
   90CHL1  H16A 9088   6.777   6.278   7.856 -0.1443  0.9680  0.1106
   90CHL1  H16B 9089   6.600   6.297   7.850 -1.0275 -0.6583 -1.8551
   90CHL1   C17 9090   6.682   6.133   7.734 -0.5907 -0.7484 -0.7776
   90CHL1   H17 9091   6.575   6.108   7.715 -0.5344  0.2797 -2.6456
   90CHL1   C13 9092   6.727   6.151   7.585  0.6172 -0.5005  0.4737
   90CHL1   C18 9093   6.883   6.157   7.584  0.6589 -0.8654 -0.0097
   90CHL1  H18A 9094   6.921   6.186   7.483  0.7843  0.4853  0.4112
   90CHL1  H18B 9095   6.935   6.221   7.657 -1.4319 -0.1593  0.9349
   90CHL1  H18C 9096   6.917   6.054   7.608 -1.2330 -1.3988  0.5565
   90CHL1   C12 9097   6.672   6.057   7.476 -0.0619  0.9882 -0.1479
   90CHL1  H12A 9098   6.710   5.954   7.496 -0.3460  1.2766  2.0461
   90CHL1  H12B 9099   6.563   6.037   7.484  0.1070  0.2414  0.4328
   90CHL1   C11 9100   6.701   6.110   7.335  0.2699  0.3683  0.9525
   90CHL1  H11A 9101   6.810   6.112   7.314  0.3827 -0.6124  1.3927
   90CHL1  H11B 9102   6.653   6.038   7.265 -1.2471  2.1314  0.1123
   90CHL1    C9 9103   6.653   6.255   7.303 -0.2953 -0.1789 -0.3182
   90CHL1    H9 9104   6.544   6.246   7.319  0.1201 -0.7450  2.8221
   90CHL1   C10 9105   6.690   6.303   7.162  0.0496  0.5203 -0.5411
   90CHL1   C19 9106   6.839   6.291   7.136 -0.0127 -0.0390  0.5562
   90CHL1  H19A 9107   6.862   6.316   7.030  1.0666  1.7181  1.1604
   90CHL1  H19B 9108   6.909   6.355   7.194  0.3280 -0.5496  0.7176
   90CHL1  H19C 9109   6.877   6.187   7.147 -1.0494 -0.3970  0.8120
   90CHL1    C1 9110   6.614   6.209   7.063  0.6671  0.1067 -0.6323
   90CHL1   H1A 9111   6.652   6.105   7.056  1.3835 -0.2066  4.2961
   90CHL1   H1B 9112   6.510   6.202   7.103  1.0678  2.0813  0.9541
   90CHL1    C2 9113   6.611   6.266   6.921 -0.2706  0.0493 -0.3438
   90CHL1   H2A 9114   6.545   6.202   6.857  0.7224 -0.5623 -0.7825
   90CHL1   H2B 9115   6.712   6.266   6.874  0.5024  0.6039  1.2466
   90CHL1   C20 9116   6.759   6.029   7.819 -0.7331  0.0158  0.6029
   90CHL1   H20 9117   6.869   6.049   7.813 -0.4715 -1.6800 -1.8207
   90CHL1   C21 9118   6.756   5.883   7.765  0.6844  0.7296  0.2963
   90CHL1  H21A 9119   6.648   5.862   7.761  0.8870 -1.1609  2.7780
   90CHL1  H21B 9120   6.810   5.804   7.821  1.5135 -1.7868 -3.6173
   90CHL1  H21C 9121   6.806   5.882   7.665  2.2921  1.2947  1.0452
   90CHL1   C22 9122   6.708   6.023   7.964  0.5569 -0.8357  0.2427
   90CHL1  H22A 9123   6.718   6.130   7.992 -0.5329 -0.4612 -0.6893
   90CHL1  H22B 9124   6.601   5.996   7.981  0.7040 -0.5276  1.7894
   90CHL1   C23 9125   6.795   5.935   8.055  0.7272 -0.6135 -0.0191
   90CHL1  H23A 9126   6.798   5.827   8.029  2.7689 -0.5264 -0.3126
   90CHL1  H23B 9127   6.902   5.959   8.034  1.1144  1.0565  3.2532
   90CHL1   C24 9128   6.767   5.961   8.201  0.4814  0.0037 -0.0421
   90CHL1  H24A 9129   6.788   6.068   8.222 -1.3861  0.5164 -0.5834
   90CHL1  H24B 9130   6.657   5.946   8.213  0.6659 -0.7018  0.8290
   90CHL1   C25 9131   6.825   5.872   8.317  1.4090 -0.1595 -0.3708
   90CHL1   H25 9132   6.798   5.768   8.289  1.4490  0.5738 -3.5260
   90CHL1   C26 9133   6.982   5.887   8.307  1.0110  0.4807  0.2180
   90CHL1  H26A 9134   6.995   5.997   8.307 -1.1303  0.8022  1.7659
   90CHL1  H26B 9135   7.019   5.832   8.397 -0.0735  0.6917  0.8142
   90CHL1  H26C 9136   7.013   5.838   8.212 -1.7988 -3.4561  1.0603
   90CHL1   C27 9137   6.769   5.908   8.452  0.0709  0.5893 -0.2882
   90CHL1  H27A 9138   6.789   6.013   8.482  1.6991  0.6212 -1.3485
   90CHL1  H27B 9139   6.661   5.888   8.464  0.2531  0.1541  0.7759
   90CHL1  H27C 9140   6.800   5.848   8.540 -0.6619  2.8520  1.6055
   91CHL1    C3 9141   2.259   2.224   7.178 -0.5461  0.7280  0.0941
   91CHL1    H3 9142   2.253   2.113   7.182  0.7750  0.6626  0.5703
   91CHL1    O3 9143   2.239   2.256   7.039  0.4143 -0.0612 -0.1426
   91CHL1   H3' 9144   2.255   2.351   7.035  0.1868 -0.0674 -2.1659
   91CHL1    C4 9145   2.152   2.293   7.260 -0.0579  0.3438  0.5241
   91CHL1   H4A 9146   2.164   2.401   7.238  1.0027 -0.2242 -2.0802
   91CHL1   H4B 9147   2.052   2.254   7.228  0.4798 -0.9145  0.3020
   91CHL1    C5 9148   2.178   2.269   7.410 -0.0209 -0.1289  0.3607
   91CHL1    C6 9149   2.079   2.213   7.492 -0.4542  0.1471  0.3086
   91CHL1    H6 9150   1.989   2.187   7.433  0.8868 -1.3055 -1.2111
   91CHL1    C7 9151   2.097   2.175   7.637 -0.6755  0.5089 -0.1667
   91CHL1   H7A 9152   2.002   2.204   7.688 -1.5427 -1.5986 -0.4519
   91CHL1   H7B 9153   2.101   2.065   7.649 -3.7972  0.3324  0.2983
   91CHL1    C8 9154   2.217   2.244   7.699 -0.3406  0.4317 -0.5645
   91CHL1    H8 9155   2.211   2.354   7.708 -0.9053  0.4268 -0.8614
   91CHL1   C14 9156   2.260   2.170   7.827 -0.0414 -0.6828  0.7020
   91CHL1   H14 9157   2.291   2.070   7.789  1.9278 -0.3068  1.2091
   91CHL1   C15 9158   2.152   2.144   7.938 -0.3566 -0.4278  0.1268
   91CHL1  H15A 9159   2.104   2.241   7.964  1.4965  1.0257 -1.5211
   91CHL1  H15B 9160   2.074   2.070   7.912  1.1939 -2.3371  0.6965
   91CHL1   C16 9161   2.235   2.115   8.063  0.4997 -0.8547 -0.3068
   91CHL1  H16A 9162   2.221   2.183   8.150  0.7256 -0.7413 -0.3577
   91CHL1  H16B 9163   2.219   2.008   8.089 -0.3925 -0.4775  0.7539
   91CHL1   C17 9164   2.386   2.127   8.022  0.7557  0.1519 -0.2191
   91CHL1   H17 9165   2.417   2.025   7.990 -0.9412  0.1446 -1.9512
   91CHL1   C13 9166   2.388   2.212   7.899  0.1099  0.4725 -0.4405
   91CHL1   C18 9167   2.389   2.357   7.947  0.5086  0.2478  0.2583
   91CHL1  H18A 9168   2.318   2.374   8.030  0.2935 -4.1241  1.2576
   91CHL1  H18B 9169   2.494   2.378   7.976  0.3680  0.8175  0.3459
   91CHL1  H18C 9170   2.363   2.424   7.862  1.5677 -1.8706 -1.8754
   91CHL1   C12 9171   2.508   2.183   7.804  0.1681 -0.4310  0.5260
   91CHL1  H12A 9172   2.592   2.251   7.828 -0.6492  1.6470 -2.0449
   91CHL1  H12B 9173   2.528   2.074   7.807 -0.2465 -0.4987  1.0823
   91CHL1   C11 9174   2.470   2.240   7.667 -0.6170  0.5474  0.0355
   91CHL1  H11A 9175   2.489   2.350   7.674  2.3779  0.1661 -0.4990
   91CHL1  H11B 9176   2.548   2.210   7.594 -2.1391  0.6262 -1.6777
   91CHL1    C9 9177   2.334   2.211   7.602 -0.1963  0.3374 -0.9117
   91CHL1    H9 9178   2.337   2.102   7.582 -2.5808 -0.2922  1.5445
   91CHL1   C10 9179   2.318   2.290   7.467  1.1812 -0.0186 -0.1852
   91CHL1   C19 9180   2.332   2.445   7.478  0.5625  0.8268  0.5052
   91CHL1  H19A 9181   2.307   2.506   7.389 -0.0955 -1.4879 -0.9636
   91CHL1  H19B 9182   2.271   2.479   7.565  2.5165  2.3047  1.4034
   91CHL1  H19C 9183   2.436   2.467   7.512  1.3920 -1.0526 -0.7065
   91CHL1    C1 9184   2.424   2.238   7.371 -0.1687 -0.1513  0.4472
   91CHL1   H1A 9185   2.524   2.282   7.391  0.1777 -0.6211 -0.2266
   91CHL1   H1B 9186   2.433   2.128   7.381  1.2591 -0.1703 -0.6474
   91CHL1    C2 9187   2.404   2.270   7.223  0.2656  0.0083  0.1886
   91CHL1   H2A 9188   2.483   2.224   7.160  0.6927  1.8246 -0.6697
   91CHL1   H2B 9189   2.408   2.379   7.203  0.4935  0.5342  2.8515
   91CHL1   C20 9190   2.471   2.163   8.142 -0.6542 -0.5159 -0.0280
   91CHL1   H20 9191   2.468   2.269   8.176  3.4533 -0.4027  0.5579
   91CHL1   C21 9192   2.623   2.137   8.107 -0.7785  0.0073  0.3588
   91CHL1  H21A 9193   2.658   2.207   8.028 -0.7748  0.4569  0.7554
   91CHL1  H21B 9194   2.654   2.038   8.068  1.6479  1.5476 -1.9392
   91CHL1  H21C 9195   2.687   2.163   8.194 -1.0346 -1.1666  0.9248
   91CHL1   C22 9196   2.435   2.088   8.277 -0.4227  0.3218  0.5132
   91CHL1  H22A 9197   2.354   2.143   8.331 -0.2807 -0.0520  1.1153
   91CHL1  H22B 9198   2.393   1.992   8.239 -0.3092  0.9584 -1.3135
   91CHL1   C23 9199   2.543   2.058   8.380 -0.7762 -0.8608 -0.7976
   91CHL1  H23A 9200   2.631   2.004   8.340  0.4149  0.0698  0.4508
   91CHL1  H23B 9201   2.581   2.160   8.403 -2.4364 -0.8140  2.0852
   91CHL1   C24 9202   2.498   2.001   8.513 -0.1850 -0.0639 -0.2290
   91CHL1  H24A 9203   2.457   2.081   8.578 -1.4517 -1.2569  0.4947
   91CHL1  H24B 9204   2.421   1.924   8.488  2.4048 -2.2818 -2.1131
   91CHL1   C25 9205   2.613   1.913   8.576  0.1928  0.9709 -0.3606
   91CHL1   H25 9206   2.640   1.836   8.501  0.7474  0.2117  0.5880
   91CHL1   C26 9207   2.742   1.988   8.604  0.1230 -0.5736 -0.2787
   91CHL1  H26A 9208   2.786   2.040   8.517 -0.0859  0.2887  0.1133
   91CHL1  H26B 9209   2.726   2.057   8.690 -0.6162 -0.8981 -0.1496
   91CHL1  H26C 9210   2.826   1.920   8.632 -1.1776 -1.8008  0.8307
   91CHL1   C27 9211   2.561   1.848   8.703 -0.0990 -0.2894 -0.8430
   91CHL1  H27A 9212   2.550   1.935   8.771  1.4121 -0.7736  0.0725
   91CHL1  H27B 9213   2.467   1.790   8.693 -1.6633  1.7217  1.2527
   91CHL1  H27C 9214   2.648   1.796   8.748  0.3983  2.3724  1.5622
   92CHL1    C3 9215   4.217   2.399   6.917  0.0492  0.5214 -0.4543
   92CHL1    H3 9216   4.282   2.311   6.899 -0.3234  0.0802  0.2964
   92CHL1    O3 9217   4.183   2.466   6.802 -0.7033  0.2759  0.6467
   92CHL1   H3' 9218   4.268   2.496   6.770  0.3779 -0.3663  2.7177
   92CHL1    C4 9219   4.074   2.366   6.983 -0.7023 -0.2300  1.0710
   92CHL1   H4A 9220   4.018   2.461   6.976  0.1163  0.3409  1.9481
   92CHL1   H4B 9221   4.025   2.298   6.911 -0.8931 -0.0955  1.0752
   92CHL1    C5 9222   4.083   2.307   7.120  0.2317  0.1706 -0.0850
   92CHL1    C6 9223   4.026   2.193   7.146 -0.1113  0.4566  0.1197
   92CHL1    H6 9224   3.949   2.149   7.081 -0.3593  0.9427  0.0823
   92CHL1    C7 9225   4.038   2.140   7.284 -0.5650  0.1420 -0.7306
   92CHL1   H7A 9226   3.936   2.112   7.318 -1.2147  2.9329 -0.1126
   92CHL1   H7B 9227   4.097   2.046   7.283 -1.0675 -0.2736  1.6303
   92CHL1    C8 9228   4.093   2.228   7.395  0.4708  0.0306 -0.0176
   92CHL1    H8 9229   4.009   2.295   7.423 -1.7907 -2.9144  0.7054
   92CHL1   C14 9230   4.138   2.148   7.517 -0.2691 -0.1113 -0.2060
   92CHL1   H14 9231   4.228   2.096   7.478 -0.1042 -0.5461  0.7292
   92CHL1   C15 9232   4.038   2.047   7.580  0.0699  0.4665 -0.4926
   92CHL1  H15A 9233   3.939   2.098   7.584 -1.0249 -1.5603 -0.2115
   92CHL1  H15B 9234   4.026   1.952   7.524 -2.0493 -0.0001  0.6272
   92CHL1   C16 9235   4.079   2.029   7.723  0.2178  0.9080 -0.1418
   92CHL1  H16A 9236   3.994   2.062   7.788 -0.7361 -0.5621 -0.6030
   92CHL1  H16B 9237   4.099   1.926   7.759 -0.9715  0.4881 -0.6378
   92CHL1   C17 9238   4.202   2.127   7.740  0.2184 -0.2836  0.2180
   92CHL1   H17 9239   4.288   2.064   7.712 -0.0006 -0.4735 -0.0304
   92CHL1   C13 9240   4.185   2.234   7.632  0.9236 -0.1271 -0.5715
   92CHL1   C18 9241   4.076   2.334   7.688  0.4867 -0.2720 -0.1596
   92CHL1  H18A 9242   4.047   2.410   7.613  2.6606 -0.2793 -1.0960
   92CHL1  H18B 9243   3.984   2.277   7.712  1.6806 -1.6420  1.4129
   92CHL1  H18C 9244   4.098   2.386   7.784  0.9077 -1.6836  0.5387
   92CHL1   C12 9245   4.304   2.312   7.583  0.1650 -0.2001 -0.2753
   92CHL1  H12A 9246   4.358   2.374   7.658  1.2663 -3.1041  1.4847
   92CHL1  H12B 9247   4.377   2.235   7.552 -0.2030 -2.0076  2.8966
   92CHL1   C11 9248   4.275   2.394   7.457  0.4745 -0.3341  0.5652
   92CHL1  H11A 9249   4.203   2.475   7.482 -1.8333 -1.9112 -0.6147
   92CHL1  H11B 9250   4.374   2.440   7.436  0.3391  0.0520  0.7486
   92CHL1    C9 9251   4.214   2.303   7.344 -0.6108 -0.3471 -0.2314
   92CHL1    H9 9252   4.294   2.231   7.317 -1.3658 -0.9465 -0.9307
   92CHL1   C10 9253   4.179   2.384   7.215 -0.6845  0.2842  0.2742
   92CHL1   C19 9254   4.086   2.510   7.252  0.0208 -0.4072  0.0592
   92CHL1  H19A 9255   4.137   2.579   7.323 -0.7323  0.0145  0.2048
   92CHL1  H19B 9256   4.061   2.573   7.164 -1.3043 -0.3914  0.4226
   92CHL1  H19C 9257   3.992   2.469   7.294  0.3919 -1.5033 -0.1389
   92CHL1    C1 9258   4.317   2.426   7.152  0.0617  0.5491 -0.3390
   92CHL1   H1A 9259   4.364   2.502   7.217 -0.4253 -1.8458  3.1271
   92CHL1   H1B 9260   4.375   2.332   7.136 -3.3251 -1.6641 -0.7454
   92CHL1    C2 9261   4.302   2.490   7.014  0.3340 -0.0500  0.0480
   92CHL1   H2A 9262   4.396   2.507   6.958 -1.7061 -0.3231 -3.8455
   92CHL1   H2B 9263   4.255   2.591   7.022  0.8624  0.1312  0.9457
   92CHL1   C20 9264   4.218   2.168   7.892  0.1045  0.5044  0.5790
   92CHL1   H20 9265   4.124   2.221   7.917 -1.4495 -0.0427 -3.3568
   92CHL1   C21 9266   4.341   2.258   7.924 -0.1590  0.1827  0.0385
   92CHL1  H21A 9267   4.435   2.201   7.907 -1.2029 -0.5782 -4.5469
   92CHL1  H21B 9268   4.340   2.289   8.031  3.5523 -2.3162  1.0007
   92CHL1  H21C 9269   4.343   2.347   7.858  1.1102  0.2651  0.1729
   92CHL1   C22 9270   4.228   2.046   7.982  0.3141  0.1771 -0.4273
   92CHL1  H22A 9271   4.138   1.984   7.963 -0.2393  0.9082 -0.2164
   92CHL1  H22B 9272   4.318   1.982   7.965 -1.0643 -1.7472 -0.7982
   92CHL1   C23 9273   4.235   2.082   8.133  0.5478  0.0443  0.1793
   92CHL1  H23A 9274   4.339   2.100   8.167  0.5052  1.7910 -0.4928
   92CHL1  H23B 9275   4.163   2.167   8.141  1.2273  0.6004  0.4556
   92CHL1   C24 9276   4.175   1.961   8.211  0.5483 -0.2208  0.8726
   92CHL1  H24A 9277   4.072   1.940   8.176  0.7982  0.9277 -0.6484
   92CHL1  H24B 9278   4.239   1.874   8.184 -2.2397 -1.5805 -1.9191
   92CHL1   C25 9279   4.162   1.997   8.367 -0.1676  0.4954 -0.1328
   92CHL1   H25 9280   4.268   2.015   8.396 -0.7253 -0.5859  3.0352
   92CHL1   C26 9281   4.070   2.113   8.397  0.6113 -0.3030 -0.3970
   92CHL1  H26A 9282   4.061   2.129   8.507 -1.3410 -1.4975 -0.3283
   92CHL1  H26B 9283   4.096   2.198   8.329  1.9491 -0.2388  0.1731
   92CHL1  H26C 9284   3.965   2.090   8.370  0.0789 -2.1640  2.7406
   92CHL1   C27 9285   4.121   1.872   8.442  0.3475  0.0245  0.5416
   92CHL1  H27A 9286   4.022   1.838   8.402 -0.2225  0.6088  1.4221
   92CHL1  H27B 9287   4.192   1.789   8.427 -0.1933 -0.1410 -1.4185
   92CHL1  H27C 9288   4.097   1.887   8.549 -1.4976  0.6792  0.0908
   93CHL1    C3 9289   3.935   6.562   6.995  0.7184 -0.1525 -0.0885
   93CHL1    H3 9290   3.998   6.470   7.001  1.4324  0.3078 -0.3888
   93CHL1    O3 9291   3.893   6.560   6.856  0.3614 -0.4924  0.2530
   93CHL1   H3' 9292   3.889   6.466   6.840  0.8646 -0.2187 -1.7396
   93CHL1    C4 9293   3.812   6.550   7.093 -0.7200 -0.4013 -0.1907
   93CHL1   H4A 9294   3.738   6.628   7.064 -1.1359 -1.1141 -1.1611
   93CHL1   H4B 9295   3.775   6.448   7.067 -0.2832 -0.4569 -0.6082
   93CHL1    C5 9296   3.856   6.553   7.234  0.2502 -0.5616 -0.0888
   93CHL1    C6 9297   3.820   6.462   7.325 -0.6801  0.2941 -0.1701
   93CHL1    H6 9298   3.760   6.376   7.295  1.7657 -1.1515 -1.2326
   93CHL1    C7 9299   3.845   6.482   7.473 -0.0964 -0.4935 -0.6318
   93CHL1   H7A 9300   3.755   6.466   7.537  0.9845  0.1402  1.1244
   93CHL1   H7B 9301   3.919   6.406   7.504  1.5311  0.8930 -0.9837
   93CHL1    C8 9302   3.892   6.630   7.512  0.6036  0.3172  0.1515
   93CHL1    H8 9303   3.799   6.692   7.513  0.3679 -0.0172  1.8281
   93CHL1   C14 9304   3.956   6.629   7.652  0.6328  0.0235 -1.1540
   93CHL1   H14 9305   4.050   6.571   7.642  0.5208 -0.7482  1.4253
   93CHL1   C15 9306   3.890   6.557   7.770  0.1428 -0.5757  0.9703
   93CHL1  H15A 9307   3.782   6.563   7.744  0.8872  1.4284 -2.1583
   93CHL1  H15B 9308   3.923   6.451   7.776  1.3899 -0.4456 -2.1048
   93CHL1   C16 9309   3.937   6.638   7.892 -0.4249  0.1560 -0.2438
   93CHL1  H16A 9310   3.851   6.690   7.939  1.7947  1.6216  2.5215
   93CHL1  H16B 9311   3.966   6.574   7.978 -2.8050 -1.2662 -0.4200
   93CHL1   C17 9312   4.039   6.745   7.841  0.1224  0.0251  0.3326
   93CHL1   H17 9313   4.130   6.682   7.831  0.2963  0.3695 -0.3202
   93CHL1   C13 9314   4.002   6.769   7.691  0.5605 -0.0936  0.2372
   93CHL1   C18 9315   3.881   6.856   7.693  0.0705  0.3069  0.1617
   93CHL1  H18A 9316   3.844   6.874   7.590 -0.6596 -0.1256  0.3425
   93CHL1  H18B 9317   3.805   6.816   7.763 -0.2685 -2.1449 -1.4954
   93CHL1  H18C 9318   3.901   6.953   7.744 -0.8180  0.0983  0.9382
   93CHL1   C12 9319   4.117   6.811   7.593  0.4300  0.0752 -0.3895
   93CHL1  H12A 9320   4.151   6.913   7.620 -3.2614  1.4566 -0.3430
   93CHL1  H12B 9321   4.190   6.728   7.592  0.1111 -0.2259 -2.2108
   93CHL1   C11 9322   4.061   6.821   7.453  0.1436 -0.4166 -0.5445
   93CHL1  H11A 9323   3.987   6.904   7.443 -0.4417 -0.9490 -0.6629
   93CHL1  H11B 9324   4.148   6.844   7.387 -0.2269 -0.3792 -1.0296
   93CHL1    C9 9325   4.001   6.684   7.412  0.3711  0.7451  0.5009
   93CHL1    H9 9326   4.089   6.617   7.401 -0.8484 -0.4812 -2.9593
   93CHL1   C10 9327   3.935   6.683   7.268 -0.4106  0.4197 -0.9883
   93CHL1   C19 9328   3.833   6.804   7.263 -0.0479 -0.4788 -0.1940
   93CHL1  H19A 9329   3.883   6.901   7.280 -2.0922  1.1492 -2.5614
   93CHL1  H19B 9330   3.796   6.814   7.158 -0.5677  2.8943  0.2062
   93CHL1  H19C 9331   3.754   6.795   7.341  0.7241 -1.4582  0.4921
   93CHL1    C1 9332   4.050   6.693   7.168 -0.5401  0.6430  0.2717
   93CHL1   H1A 9333   4.104   6.790   7.170 -0.7244  0.8623 -2.1501
   93CHL1   H1B 9334   4.123   6.612   7.191 -1.4910 -0.7337 -1.2994
   93CHL1    C2 9335   4.009   6.689   7.024  0.2280  0.5645  0.0100
   93CHL1   H2A 9336   4.092   6.688   6.950 -0.0381 -3.7955 -0.4968
   93CHL1   H2B 9337   3.943   6.776   7.003  0.4060  1.2581  2.0611
   93CHL1   C20 9338   4.057   6.866   7.940 -1.3373  0.0551 -0.0981
   93CHL1   H20 9339   3.973   6.936   7.922 -0.1263  0.7606 -4.0377
   93CHL1   C21 9340   4.188   6.949   7.912  0.0427  0.5186  0.1427
   93CHL1  H21A 9341   4.279   6.894   7.944 -0.7766 -0.3033  1.1397
   93CHL1  H21B 9342   4.164   7.036   7.977 -3.0108 -1.7023  2.2411
   93CHL1  H21C 9343   4.189   6.983   7.806  1.3581  1.3682  0.3999
   93CHL1   C22 9344   4.054   6.818   8.087 -0.4691 -0.1240  0.5932
   93CHL1  H22A 9345   3.949   6.784   8.097 -0.9615  1.1519 -0.0316
   93CHL1  H22B 9346   4.124   6.731   8.094 -0.2846 -0.2253 -1.8153
   93CHL1   C23 9347   4.087   6.929   8.190 -0.0539 -0.3204  0.9370
   93CHL1  H23A 9348   4.190   6.969   8.181  0.5686 -1.9795  0.4809
   93CHL1  H23B 9349   4.027   7.022   8.181  1.6644  0.8002  0.5992
   93CHL1   C24 9350   4.074   6.880   8.331  0.3434 -0.2099  1.0644
   93CHL1  H24A 9351   4.137   6.791   8.352 -0.4051 -0.1026  4.3768
   93CHL1  H24B 9352   4.111   6.951   8.408 -2.9279  3.2019 -0.1809
   93CHL1   C25 9353   3.930   6.841   8.372  0.3459  0.3306  0.1753
   93CHL1   H25 9354   3.912   6.743   8.322  0.4004 -0.2009  1.1599
   93CHL1   C26 9355   3.932   6.803   8.516  0.8168 -0.7600 -0.1556
   93CHL1  H26A 9356   3.948   6.899   8.569  1.3742 -0.9689  0.0644
   93CHL1  H26B 9357   3.833   6.769   8.554  1.6148 -2.4620  0.5363
   93CHL1  H26C 9358   4.011   6.729   8.540  1.2524  0.4067  2.3727
   93CHL1   C27 9359   3.833   6.955   8.351  1.0668  0.9016 -0.1507
   93CHL1  H27A 9360   3.737   6.941   8.405  0.8487  1.0219 -0.5063
   93CHL1  H27B 9361   3.867   7.056   8.383  0.7316  1.0962 -0.4096
   93CHL1  H27C 9362   3.793   6.975   8.250 -0.2287  0.8763  0.3348
   94CHL1    C3 9363   6.210   4.024   6.933  0.4002 -0.1848  0.1894
   94CHL1    H3 9364   6.117   4.084   6.943  0.2899 -0.6688  2.9164
   94CHL1    O3 9365   6.221   3.989   6.798 -0.4514 -0.4466 -0.3931
   94CHL1   H3' 9366   6.254   3.899   6.802 -2.0425 -1.0539  0.0004
   94CHL1    C4 9367   6.332   4.102   6.987  0.1644  0.0666  0.7376
   94CHL1   H4A 9368   6.421   4.047   6.951 -2.1178 -2.5148 -1.4361
   94CHL1   H4B 9369   6.334   4.197   6.929 -0.6494  0.1456  0.8170
   94CHL1    C5 9370   6.326   4.119   7.135  0.1138  0.0517 -0.7335
   94CHL1    C6 9371   6.335   4.240   7.191 -0.1036  0.3281 -0.1669
   94CHL1    H6 9372   6.361   4.326   7.129 -0.4503 -1.3151 -2.7186
   94CHL1    C7 9373   6.324   4.258   7.339  0.3828 -0.2605 -0.2092
   94CHL1   H7A 9374   6.405   4.331   7.362  0.4006  0.2774 -1.8572
   94CHL1   H7B 9375   6.222   4.292   7.365  0.3910 -0.6697  0.3746
   94CHL1    C8 9376   6.342   4.136   7.425  0.1116  0.1926  0.2196
   94CHL1    H8 9377   6.452   4.119   7.423  0.2752  0.8995  1.5869
   94CHL1   C14 9378   6.298   4.165   7.571 -0.2315  0.9753 -0.2812
   94CHL1   H14 9379   6.190   4.192   7.566 -0.6024 -0.1991  0.8669
   94CHL1   C15 9380   6.368   4.283   7.640 -0.3004  0.7408 -0.0991
   94CHL1  H15A 9381   6.475   4.258   7.620  0.0044 -0.3915  2.5928
   94CHL1  H15B 9382   6.347   4.388   7.609  0.4542  1.6316  2.2181
   94CHL1   C16 9383   6.341   4.269   7.791  0.3804 -0.1733  0.4268
   94CHL1  H16A 9384   6.436   4.275   7.848  0.4759 -0.7065  0.3306
   94CHL1  H16B 9385   6.267   4.345   7.822 -0.9368  0.2645 -3.3149
   94CHL1   C17 9386   6.271   4.127   7.801 -0.0555 -0.2490  0.0307
   94CHL1   H17 9387   6.160   4.138   7.799 -0.1671 -1.3588 -0.3775
   94CHL1   C13 9388   6.308   4.049   7.673 -0.0067 -0.8114  0.4502
   94CHL1   C18 9389   6.460   4.002   7.680  0.5288 -0.2589  0.5454
   94CHL1  H18A 9390   6.481   3.931   7.763  0.8554 -0.4838  0.2703
   94CHL1  H18B 9391   6.486   3.969   7.577 -2.7949 -1.3768 -0.0522
   94CHL1  H18C 9392   6.525   4.089   7.702  0.9499 -0.3699 -0.2038
   94CHL1   C12 9393   6.226   3.932   7.624  0.3447 -0.0617  0.4398
   94CHL1  H12A 9394   6.235   3.842   7.689  1.3737 -1.4555 -1.5448
   94CHL1  H12B 9395   6.122   3.971   7.633 -0.4571 -2.2827  1.7085
   94CHL1   C11 9396   6.251   3.902   7.471  0.2316  0.6989 -0.2836
   94CHL1  H11A 9397   6.350   3.852   7.470 -0.1664 -0.1132 -1.6477
   94CHL1  H11B 9398   6.176   3.825   7.444  1.1038  0.1532 -1.2051
   94CHL1    C9 9399   6.257   4.027   7.371 -0.3665 -0.3078  0.7296
   94CHL1    H9 9400   6.152   4.063   7.369 -0.0564  0.6262 -1.0161
   94CHL1   C10 9401   6.295   3.993   7.218  0.0190  0.1484  0.1148
   94CHL1   C19 9402   6.419   3.902   7.215 -0.3010  0.1827 -0.0805
   94CHL1  H19A 9403   6.388   3.804   7.257  0.2472 -0.1761 -0.4939
   94CHL1  H19B 9404   6.463   3.892   7.113 -0.8885  2.1636 -0.5755
   94CHL1  H19C 9405   6.500   3.948   7.276 -1.2752  0.8431  0.7403
   94CHL1    C1 9406   6.174   3.918   7.159  0.7729 -0.4986 -0.0300
   94CHL1   H1A 9407   6.155   3.826   7.217 -1.0893  0.7243  1.4339
   94CHL1   H1B 9408   6.085   3.981   7.182  0.4246 -0.8322 -0.4591
   94CHL1    C2 9409   6.166   3.894   7.011 -0.5733 -1.1311 -0.9094
   94CHL1   H2A 9410   6.065   3.864   6.977 -1.7177  0.9864  0.4053
   94CHL1   H2B 9411   6.248   3.826   6.979 -0.1985 -1.0076 -0.2471
   94CHL1   C20 9412   6.298   4.047   7.932  0.1521  0.3083  0.2049
   94CHL1   H20 9413   6.384   3.979   7.916 -0.3063 -0.0168 -1.0089
   94CHL1   C21 9414   6.179   3.962   7.963 -0.2546  0.7857  0.4393
   94CHL1  H21A 9415   6.199   3.908   8.058  4.3152  2.5775  0.7723
   94CHL1  H21B 9416   6.159   3.893   7.879  0.4437 -1.5113  2.0826
   94CHL1  H21C 9417   6.090   4.026   7.982 -1.1103  0.4541 -2.0650
   94CHL1   C22 9418   6.321   4.130   8.066 -0.9348  0.5649  0.8518
   94CHL1  H22A 9419   6.354   4.069   8.153  0.5567  0.2416  0.0836
   94CHL1  H22B 9420   6.414   4.186   8.042 -1.8660  1.3806 -0.9994
   94CHL1   C23 9421   6.221   4.232   8.102 -0.6195  0.2702  0.1859
   94CHL1  H23A 9422   6.191   4.288   8.010 -0.2405 -0.3138 -0.3015
   94CHL1  H23B 9423   6.128   4.172   8.117 -0.7492  0.5277  0.4200
   94CHL1   C24 9424   6.247   4.325   8.221 -0.3385  0.5796 -0.1730
   94CHL1  H24A 9425   6.257   4.267   8.316 -2.2416  1.2238  0.4599
   94CHL1  H24B 9426   6.342   4.378   8.197 -1.6435  2.4218 -1.4874
   94CHL1   C25 9427   6.134   4.430   8.240 -0.5917  0.4649 -0.2928
   94CHL1   H25 9428   6.170   4.496   8.322  0.0660 -0.4513  0.1887
   94CHL1   C26 9429   6.121   4.510   8.111 -0.1916  0.4800  0.3545
   94CHL1  H26A 9430   6.066   4.446   8.038  1.9071  0.4929 -1.3580
   94CHL1  H26B 9431   6.069   4.607   8.123 -0.5200  0.7846 -2.6621
   94CHL1  H26C 9432   6.220   4.535   8.067  0.3986 -2.0698  0.0991
   94CHL1   C27 9433   5.996   4.382   8.287 -0.2812  0.0189 -0.2974
   94CHL1  H27A 9434   5.952   4.328   8.201  0.2254  1.2791 -1.3840
   94CHL1  H27B 9435   5.997   4.324   8.381  0.7644 -0.1845 -0.4238
   94CHL1  H27C 9436   5.926   4.467   8.300  0.3573  0.5021  0.0334
   95CHL1    C3 9437   6.774   2.789   6.650 -0.3727  1.0056 -0.0350
   95CHL1    H3 9438   6.849   2.862   6.685 -0.3627  0.6071  0.7925
   95CHL1    O3 9439   6.793   2.774   6.510  0.0861  0.1813  0.2421
   95CHL1   H3' 9440   6.720   2.716   6.483  0.5785 -1.1990  1.7041
   95CHL1    C4 9441   6.768   2.652   6.728 -0.8020 -0.2310  0.4053
   95CHL1   H4A 9442   6.678   2.595   6.698 -0.9709  0.2332  0.0257
   95CHL1   H4B 9443   6.855   2.590   6.697 -2.2505 -1.1514 -2.1478
   95CHL1    C5 9444   6.764   2.676   6.877 -0.0687 -0.0706 -0.3358
   95CHL1    C6 9445   6.858   2.627   6.964 -0.0407  0.9121 -0.2301
   95CHL1    H6 9446   6.939   2.567   6.920 -0.9027 -0.2053 -0.3288
   95CHL1    C7 9447   6.861   2.626   7.121 -0.4513  0.0189  0.0439
   95CHL1   H7A 9448   6.874   2.522   7.156 -0.0563 -0.2925 -0.9950
   95CHL1   H7B 9449   6.948   2.680   7.164 -0.5116 -0.4488  0.7754
   95CHL1    C8 9450   6.732   2.694   7.173  0.8975 -0.2307  0.3080
   95CHL1    H8 9451   6.650   2.619   7.179  0.9432 -0.4081 -1.0256
   95CHL1   C14 9452   6.743   2.753   7.315 -0.5304 -0.1384  0.5529
   95CHL1   H14 9453   6.816   2.835   7.299 -0.1824 -0.8084 -1.6050
   95CHL1   C15 9454   6.811   2.668   7.428 -0.7240 -0.3077  0.3804
   95CHL1  H15A 9455   6.776   2.563   7.417 -0.8234 -0.3545  1.0570
   95CHL1  H15B 9456   6.921   2.671   7.411 -0.4905 -1.5597  1.4692
   95CHL1   C16 9457   6.773   2.733   7.561  0.3361 -0.4500 -0.2784
   95CHL1  H16A 9458   6.717   2.656   7.619  0.8590 -0.3555  0.3664
   95CHL1  H16B 9459   6.861   2.772   7.615 -1.5053  1.9830  1.1786
   95CHL1   C17 9460   6.685   2.854   7.524  0.4727  0.5037  0.2393
   95CHL1   H17 9461   6.753   2.941   7.517  0.5047  0.5059  0.5762
   95CHL1   C13 9462   6.627   2.821   7.376 -1.0052 -0.1684  0.2642
   95CHL1   C18 9463   6.509   2.732   7.382 -0.4507  0.0078 -0.3752
   95CHL1  H18A 9464   6.419   2.792   7.408 -0.9349 -1.4356  1.5071
   95CHL1  H18B 9465   6.490   2.670   7.292  0.2420 -3.4965  1.7146
   95CHL1  H18C 9466   6.526   2.668   7.471 -0.6519 -1.1529 -1.1533
   95CHL1   C12 9467   6.596   2.945   7.280  0.7625  0.4337 -0.7639
   95CHL1  H12A 9468   6.505   3.000   7.313  0.4716 -0.4193 -0.0935
   95CHL1  H12B 9469   6.683   3.013   7.289 -1.4285  3.3774 -0.4279
   95CHL1   C11 9470   6.564   2.899   7.138 -0.5778 -0.3559 -0.2595
   95CHL1  H11A 9471   6.473   2.834   7.145 -1.5631  1.0490  0.3903
   95CHL1  H11B 9472   6.535   2.988   7.079 -1.0677 -0.4610 -0.1826
   95CHL1    C9 9473   6.682   2.812   7.078 -0.5852 -0.3488  0.2178
   95CHL1    H9 9474   6.771   2.879   7.084 -0.8288  0.0875 -0.8203
   95CHL1   C10 9475   6.654   2.767   6.931 -0.4991 -0.1874 -0.3756
   95CHL1   C19 9476   6.531   2.676   6.933 -0.7798 -0.4144  0.3765
   95CHL1  H19A 9477   6.546   2.586   6.997 -1.0944 -0.1227  0.8629
   95CHL1  H19B 9478   6.441   2.731   6.967 -1.3206 -1.5427  0.8037
   95CHL1  H19C 9479   6.506   2.636   6.832 -2.0614  2.1623 -0.4135
   95CHL1    C1 9480   6.630   2.885   6.841 -0.1437  0.2921  0.0208
   95CHL1   H1A 9481   6.533   2.938   6.854 -0.8635 -0.6389 -1.2764
   95CHL1   H1B 9482   6.717   2.950   6.863 -0.3140  0.5927 -0.1859
   95CHL1    C2 9483   6.638   2.852   6.688 -0.1478 -0.2418 -0.4818
   95CHL1   H2A 9484   6.630   2.944   6.627  1.2645  1.1457  1.3297
   95CHL1   H2B 9485   6.558   2.779   6.663 -0.5450  0.2618 -0.6971
   95CHL1   C20 9486   6.581   2.902   7.629  0.1806  0.6960 -0.2340
   95CHL1   H20 9487   6.502   2.824   7.627  1.6202 -0.8115 -2.0820
   95CHL1   C21 9488   6.517   3.039   7.584 -0.2777  0.6302 -0.0240
   95CHL1  H21A 9489   6.599   3.110   7.559 -1.2181  1.3584 -1.1979
   95CHL1  H21B 9490   6.461   3.090   7.665 -1.9649  2.4502 -2.1832
   95CHL1  H21C 9491   6.445   3.023   7.500  0.2219 -0.4890 -0.2631
   95CHL1   C22 9492   6.644   2.912   7.771 -0.2068 -0.2374  0.3624
   95CHL1  H22A 9493   6.672   2.810   7.808  1.8223  1.2243  3.2843
   95CHL1  H22B 9494   6.734   2.977   7.767  0.8058 -1.4213  2.0447
   95CHL1   C23 9495   6.547   2.956   7.887 -0.0775 -0.6029  0.1652
   95CHL1  H23A 9496   6.499   3.054   7.865 -0.6135 -1.2029 -1.4165
   95CHL1  H23B 9497   6.454   2.896   7.895 -1.1312  1.0607  1.2805
   95CHL1   C24 9498   6.620   2.977   8.026  0.2628 -0.4547  0.8858
   95CHL1  H24A 9499   6.643   2.876   8.065  2.2717 -1.1634 -1.8172
   95CHL1  H24B 9500   6.716   3.028   8.003 -0.7467 -0.3108 -4.1988
   95CHL1   C25 9501   6.554   3.047   8.143 -1.0681 -0.2182  0.0613
   95CHL1   H25 9502   6.443   3.032   8.146 -1.3770  1.8431  0.3667
   95CHL1   C26 9503   6.599   2.993   8.278  0.2981  0.1890 -0.8429
   95CHL1  H26A 9504   6.710   2.992   8.284  0.3133  1.3893 -0.6612
   95CHL1  H26B 9505   6.565   3.056   8.363 -0.6898 -0.3821 -0.7941
   95CHL1  H26C 9506   6.564   2.888   8.288  1.8007 -0.1863  0.9746
   95CHL1   C27 9507   6.584   3.203   8.135  0.2848  0.9647  0.1623
   95CHL1  H27A 9508   6.693   3.215   8.157 -0.0794  0.6996  2.3165
   95CHL1  H27B 9509   6.567   3.246   8.034 -0.0330  0.1193 -0.1511
   95CHL1  H27C 9510   6.529   3.253   8.217  1.4370 -1.5263  2.6367
   96CHL1    C3 9511   6.447   2.374   6.639 -1.1788 -0.0146  0.1132
   96CHL1    H3 9512   6.448   2.479   6.673 -1.8875 -1.0657  3.8766
   96CHL1    O3 9513   6.461   2.357   6.497  0.2640 -0.0359 -0.3299
   96CHL1   H3' 9514   6.430   2.268   6.478  1.0876 -0.4363  0.1954
   96CHL1    C4 9515   6.563   2.284   6.697  0.0942 -0.2044 -0.6378
   96CHL1   H4A 9516   6.557   2.178   6.666 -2.1192 -0.5518  0.7158
   96CHL1   H4B 9517   6.662   2.318   6.661  1.6854 -1.7422  1.9967
   96CHL1    C5 9518   6.570   2.291   6.847 -0.6216  0.5410 -0.3822
   96CHL1    C6 9519   6.680   2.318   6.917  0.1662  0.3413  0.2391
   96CHL1    H6 9520   6.768   2.339   6.855 -1.5250  2.1456 -1.7572
   96CHL1    C7 9521   6.687   2.316   7.063  0.5142 -0.3717 -0.2483
   96CHL1   H7A 9522   6.783   2.280   7.107 -1.2623 -3.5224  1.3818
   96CHL1   H7B 9523   6.663   2.420   7.095  0.8260 -0.7745  1.3901
   96CHL1    C8 9524   6.574   2.226   7.125  0.3792 -0.8855  0.0025
   96CHL1    H8 9525   6.603   2.121   7.102  0.9255 -0.7935  0.2477
   96CHL1   C14 9526   6.578   2.256   7.276 -0.0427 -0.2813  0.2074
   96CHL1   H14 9527   6.553   2.364   7.277  0.5668 -0.1105  1.8808
   96CHL1   C15 9528   6.715   2.250   7.346 -0.0240 -0.4203 -0.2618
   96CHL1  H15A 9529   6.766   2.156   7.317 -2.6903 -1.3487 -2.4319
   96CHL1  H15B 9530   6.768   2.342   7.313 -2.9137  1.7908  0.7937
   96CHL1   C16 9531   6.675   2.247   7.490 -0.9577 -0.1730  0.5738
   96CHL1  H16A 9532   6.719   2.156   7.537  3.3562  1.7453  0.6898
   96CHL1  H16B 9533   6.711   2.336   7.545  2.4731 -0.1621 -1.3985
   96CHL1   C17 9534   6.520   2.240   7.499 -0.4362 -0.4230 -0.0055
   96CHL1   H17 9535   6.487   2.346   7.501  1.4853  0.2266 -0.0734
   96CHL1   C13 9536   6.476   2.189   7.358 -0.3413 -0.1566 -0.0419
   96CHL1   C18 9537   6.503   2.037   7.362 -0.3637  0.8006  0.0098
   96CHL1  H18A 9538   6.480   1.992   7.264  2.1092 -1.0165  0.1646
   96CHL1  H18B 9539   6.602   1.998   7.396 -1.3934 -3.5581 -1.3952
   96CHL1  H18C 9540   6.429   1.991   7.431 -1.0847  3.1816  0.9419
   96CHL1   C12 9541   6.334   2.214   7.304  0.1143 -0.3876 -0.0182
   96CHL1  H12A 9542   6.255   2.143   7.337 -0.1712 -0.5152 -0.9632
   96CHL1  H12B 9543   6.306   2.321   7.320 -0.8692  0.1356 -4.1542
   96CHL1   C11 9544   6.330   2.193   7.148 -0.0754  0.4452 -0.0859
   96CHL1  H11A 9545   6.327   2.086   7.121 -1.4159  0.7092 -1.1492
   96CHL1  H11B 9546   6.234   2.237   7.112  1.0965  2.8265 -0.5225
   96CHL1    C9 9547   6.436   2.272   7.072 -0.2826 -0.2493  0.1359
   96CHL1    H9 9548   6.421   2.381   7.085 -3.0881 -0.5568  0.2051
   96CHL1   C10 9549   6.436   2.253   6.912 -0.0842  0.4645 -0.0506
   96CHL1   C19 9550   6.410   2.099   6.889 -0.6314 -0.2186 -0.6309
   96CHL1  H19A 9551   6.308   2.069   6.922 -1.1748 -0.2114 -2.2033
   96CHL1  H19B 9552   6.407   2.077   6.780 -0.0448 -2.5754 -0.2359
   96CHL1  H19C 9553   6.487   2.036   6.939  0.7999  1.6376 -0.3844
   96CHL1    C1 9554   6.323   2.332   6.850 -0.4790  0.6543  0.2692
   96CHL1   H1A 9555   6.231   2.289   6.894  0.7489 -1.1488  1.2151
   96CHL1   H1B 9556   6.320   2.438   6.883  0.8102  1.0491 -0.8032
   96CHL1    C2 9557   6.315   2.321   6.694  0.2972 -0.1356  0.2394
   96CHL1   H2A 9558   6.230   2.380   6.653 -0.9195 -0.8344  1.6590
   96CHL1   H2B 9559   6.302   2.217   6.659 -0.2923  0.2403 -0.7118
   96CHL1   C20 9560   6.469   2.172   7.627 -0.1838  0.3594 -0.3976
   96CHL1   H20 9561   6.492   2.064   7.633 -2.9783 -0.3462 -1.0455
   96CHL1   C21 9562   6.313   2.185   7.633  0.4975 -0.3891  0.0439
   96CHL1  H21A 9563   6.270   2.126   7.549  0.5906 -2.4447  1.3798
   96CHL1  H21B 9564   6.279   2.291   7.624  1.3789 -0.1372 -0.4445
   96CHL1  H21C 9565   6.281   2.133   7.725 -0.5360 -0.8279 -0.5463
   96CHL1   C22 9566   6.537   2.238   7.746 -0.5530 -0.4400  0.2271
   96CHL1  H22A 9567   6.645   2.214   7.735 -0.5045 -0.1996  0.1765
   96CHL1  H22B 9568   6.516   2.347   7.743  0.9358 -0.1315  0.0033
   96CHL1   C23 9569   6.508   2.185   7.882 -0.4958 -0.3052  0.0392
   96CHL1  H23A 9570   6.417   2.232   7.925 -0.0509 -1.3141  2.2570
   96CHL1  H23B 9571   6.497   2.074   7.874 -1.4054 -0.3498  1.5708
   96CHL1   C24 9572   6.611   2.216   7.994  0.4299  0.7593  0.0451
   96CHL1  H24A 9573   6.694   2.146   7.971 -0.1788 -0.2531  0.8862
   96CHL1  H24B 9574   6.652   2.319   7.995  2.9073 -0.1524 -0.3632
   96CHL1   C25 9575   6.562   2.179   8.141 -0.0139 -0.3652 -0.9205
   96CHL1   H25 9576   6.470   2.234   8.171 -1.0450 -2.6699  0.4461
   96CHL1   C26 9577   6.521   2.033   8.153 -0.1941  0.0150 -0.1723
   96CHL1  H26A 9578   6.438   2.016   8.080 -0.3507 -1.4252  0.2910
   96CHL1  H26B 9579   6.616   1.979   8.134 -0.8928 -0.5298 -2.4810
   96CHL1  H26C 9580   6.476   2.015   8.253 -1.2085  0.4923 -0.5290
   96CHL1   C27 9581   6.666   2.230   8.240  0.1422 -0.0926 -0.8581
   96CHL1  H27A 9582   6.640   2.197   8.342  4.7757 -2.1967 -0.0961
   96CHL1  H27B 9583   6.765   2.182   8.229  1.0577  1.1997  1.1889
   96CHL1  H27C 9584   6.677   2.340   8.244  0.2150 -0.1515  1.1260
   97OSM      N 9585   4.340   2.555  11.160 -1.3387 -0.4651  0.7263
   97OSM    C15 9586   4.479   2.579  11.219  0.3418  0.4249  0.5901
   97OSM   H15A 9587   4.501   2.524  11.309  4.1195  1.9892  0.8104
   97OSM   H15B 9588   4.483   2.685  11.243 -3.1868  0.8960 -0.3825
   97OSM   H15C 9589   4.549   2.563  11.138 -1.2759  0.7993 -0.9403
   97OSM    C14 9590   4.247   2.598  11.275  0.2909 -0.0489 -1.1201
   97OSM   H14A 9591   4.238   2.706  11.279  1.3884  0.1485 -2.8660
   97OSM   H14B 9592   4.279   2.571  11.375 -2.5553  0.1530 -0.0594
   97OSM   H14C 9593   4.153   2.548  11.260  0.3400  0.0527 -1.8026
   97OSM    C13 9594   4.320   2.644  11.043 -0.0516 -0.1564  0.3300
   97OSM   H13A 9595   4.226   2.624  10.994  0.3258  1.6441 -1.2666
   97OSM   H13B 9596   4.389   2.614  10.964  0.6301 -1.2289  1.2991
   97OSM   H13C 9597   4.329   2.748  11.069  2.2477 -0.6326  1.7536
   97OSM    C12 9598   4.311   2.411  11.123 -0.3779 -0.4233  0.5011
   97OSM   H12A 9599   4.315   2.350  11.212  2.5083  0.1590  0.8584
   97OSM   H12B 9600   4.389   2.373  11.058  0.7617 -1.4329  2.3837
   97OSM    C11 9601   4.170   2.380  11.065 -0.9553  0.1660  0.1581
   97OSM   H11A 9602   4.162   2.273  11.037  0.3226 -0.1830  1.0083
   97OSM   H11B 9603   4.162   2.442  10.974 -0.9970  0.2608  0.2255
   97OSM      P 9604   3.938   2.473  11.101  0.1575  0.2439 -0.2768
   97OSM    O13 9605   3.839   2.463  11.211 -0.4280 -0.2339  0.5694
   97OSM    O14 9606   3.969   2.614  11.061  0.1682 -0.2919 -0.0868
   97OSM    O11 9607   3.908   2.392  10.973 -0.4519 -0.4200 -0.3315
   97OSM    O12 9608   4.070   2.397  11.165  0.1597  0.0071  0.5115
   97OSM    C1S 9609   3.832   2.434  10.860 -0.4592 -0.3470  0.1522
   97OSM    H1S 9610   3.814   2.543  10.859  0.3698 -0.2029  0.0839
   97OSM    H1T 9611   3.731   2.387  10.868 -1.8331  2.4361  0.1266
   97OSM     NF 9612   3.828   2.453  10.619  0.0534 -0.1532  0.6986
   97OSM    HNF 9613   3.767   2.393  10.567  1.2867  0.2473 -1.3546
   97OSM    C2S 9614   3.899   2.397  10.724  0.6420 -0.2225 -0.4587
   97OSM    H2S 9615   4.003   2.434  10.734  0.5997 -0.6518  2.6890
   97OSM    C3S 9616   3.912   2.238  10.706  0.4465  0.8375  0.2463
   97OSM    H3S 9617   3.812   2.192  10.711  1.4568 -1.4091  1.2976
   97OSM     O3 9618   3.975   2.176  10.816 -0.6229  0.5005  0.3552
   97OSM    HO3 9619   3.961   2.247  10.880 -3.2483  1.2690 -0.9156
   97OSM    C4S 9620   3.981   2.209  10.577  0.3691  0.5627 -0.7568
   97OSM    H4S 9621   4.082   2.254  10.573 -0.4866  2.5899 -0.9689
   97OSM    C5S 9622   3.928   2.153  10.469  0.4898  0.5770  0.0406
   97OSM    H5S 9623   3.832   2.101  10.476  1.0565 -0.2921  2.2626
   97OSM    C6S 9624   4.006   2.132  10.341 -0.0739  0.2519 -0.6027
   97OSM    H6S 9625   4.061   2.036  10.347  0.0258  0.3376 -0.0996
   97OSM    H6T 9626   4.080   2.215  10.342  0.9454 -0.5245  3.2006
   97OSM    C7S 9627   3.917   2.149  10.211 -0.1311  0.5314  0.3591
   97OSM    H7S 9628   3.840   2.228  10.226  0.1880  0.8720  0.2223
   97OSM    H7T 9629   3.862   2.055  10.190  0.6158 -0.1316  1.2963
   97OSM    C8S 9630   3.995   2.195  10.089  0.6157 -0.3224 -0.8579
   97OSM    H8S 9631   4.085   2.131  10.098 -0.4171 -1.5510  1.8357
   97OSM    H8T 9632   4.028   2.301  10.101  0.1683 -0.4287  1.9492
   97OSM    C9S 9633   3.915   2.181   9.961  0.4058  0.2455 -0.9806
   97OSM    H9S 9634   3.844   2.266   9.950  2.9319  2.7235  0.6592
   97OSM    H9T 9635   3.855   2.087   9.962  0.3868  0.2535  0.3161
   97OSM   C10S 9636   4.015   2.189   9.848 -0.4932  0.0090  0.6764
   97OSM   H10S 9637   4.111   2.141   9.877  0.2773  0.3709 -1.1701
   97OSM   H10T 9638   4.036   2.295   9.824  1.0503 -0.4723 -0.1616
   97OSM   C11S 9639   3.962   2.122   9.716 -0.0932  0.1219 -0.6105
   97OSM   H11S 9640   3.855   2.147   9.702  0.1718  1.6313 -0.1592
   97OSM   H11T 9641   3.963   2.011   9.714 -1.9519  0.0882 -2.9167
   97OSM   C12S 9642   4.035   2.177   9.596 -0.3899 -0.2544 -0.1615
   97OSM   H12S 9643   4.139   2.137   9.594  0.0014  0.5748  1.6300
   97OSM   H12T 9644   4.049   2.287   9.600  0.0291 -0.2773 -0.8214
   97OSM   C13S 9645   3.958   2.137   9.460  0.1229 -0.2791 -0.3901
   97OSM   H13S 9646   3.853   2.169   9.477  0.5068  0.1165  1.4953
   97OSM   H13T 9647   3.955   2.026   9.453 -1.6233 -0.3300  0.6214
   97OSM   C14S 9648   4.021   2.200   9.336  0.8837  0.8984 -0.1277
   97OSM   H14S 9649   4.130   2.182   9.326  0.4452 -2.4258  0.1774
   97OSM   H14T 9650   4.013   2.310   9.349  1.1086  0.9770 -0.6348
   97OSM   C15S 9651   3.951   2.148   9.207 -0.0570  0.4564  0.1094
   97OSM   H15S 9652   3.841   2.162   9.220 -0.0950 -0.9291  1.6008
   97OSM   H15T 9653   3.973   2.040   9.197 -0.1136  0.5940 -2.0709
   97OSM   C16S 9654   4.013   2.203   9.081 -0.5324 -0.6376  0.2798
   97OSM   H16S 9655   4.123   2.185   9.085 -0.5656 -0.8534  0.2009
   97OSM   H16T 9656   3.998   2.313   9.088  0.6718 -0.3643 -0.8730
   97OSM   C17S 9657   3.942   2.161   8.956  0.5980  0.3096  0.4281
   97OSM   H17S 9658   3.843   2.212   8.958  0.2573 -0.1670 -1.6802
   97OSM   H17T 9659   3.936   2.051   8.949 -3.2213  0.3723  0.4317
   97OSM   C18S 9660   4.019   2.200   8.831 -0.4071 -0.8988  0.5206
   97OSM   H18S 9661   4.046   2.307   8.842 -1.0201 -0.8862  2.1146
   97OSM   H18T 9662   3.964   2.203   8.734 -0.8145 -0.4772  0.7622
   97OSM   H18U 9663   4.111   2.141   8.807 -0.6289 -0.2579 -2.2536
   97OSM    C1F 9664   3.816   2.580  10.581 -0.0057  0.2223 -0.0924
   97OSM     OF 9665   3.885   2.671  10.635 -0.4362  0.5227  0.0163
   97OSM    C2F 9666   3.710   2.611  10.479  0.3063 -0.1109 -0.3317
   97OSM    H2F 9667   3.707   2.722  10.474  0.8066 -0.0995 -0.4385
   97OSM    H2G 9668   3.612   2.561  10.495  0.5762 -0.0584  1.7992
   97OSM    C3F 9669   3.760   2.560  10.337  0.1999 -0.0127  0.3944
   97OSM    H3F 9670   3.722   2.456  10.346 -0.2577  0.2437  1.8021
   97OSM    H3G 9671   3.868   2.564  10.312  0.3310  0.0275  0.9487
   97OSM    C4F 9672   3.678   2.621  10.221  0.0666 -0.5361  0.5603
   97OSM    H4F 9673   3.703   2.729  10.216 -2.9535  0.4156  2.8050
   97OSM    H4G 9674   3.572   2.618  10.254 -0.5602 -2.9034 -1.3905
   97OSM    C5F 9675   3.697   2.543  10.095 -0.3656 -0.4701  0.2991
   97OSM    H5F 9676   3.690   2.435  10.119  1.3436 -0.9611 -1.1540
   97OSM    H5G 9677   3.805   2.540  10.066  0.2315  0.7205  2.1608
   97OSM    C6F 9678   3.607   2.577   9.972  0.5844 -0.7445  0.8652
   97OSM    H6F 9679   3.631   2.681   9.943  0.7711 -1.1890 -0.6622
   97OSM    H6G 9680   3.501   2.573  10.006  0.1158  0.2350 -0.4496
   97OSM    C7F 9681   3.623   2.483   9.852 -0.2124 -0.6344 -0.0784
   97OSM    H7F 9682   3.661   2.386   9.891  0.6632  0.6294  2.4255
   97OSM    H7G 9683   3.719   2.513   9.805 -0.5151  1.7241  0.6913
   97OSM    C8F 9684   3.504   2.482   9.753 -0.2646 -0.0589 -0.3820
   97OSM    H8F 9685   3.412   2.453   9.806 -0.4291  1.5852  0.3050
   97OSM    H8G 9686   3.526   2.406   9.675 -0.5251  0.8965 -1.4087
   97OSM    C9F 9687   3.494   2.625   9.699  0.4571 -0.3801 -0.6579
   97OSM    H9F 9688   3.432   2.691   9.761  1.6681  1.3651 -1.2219
   97OSM   C10F 9689   3.545   2.673   9.591 -0.3282  1.1810 -0.4190
   97OSM   H10F 9690   3.516   2.777   9.568 -1.9707  1.1000  1.0726
   97OSM   C11F 9691   3.638   2.600   9.500 -0.2979 -0.0037 -0.4337
   97OSM   H11F 9692   3.679   2.508   9.548 -2.0209  0.2279  1.6605
   97OSM   H11G 9693   3.724   2.670   9.499  0.0892 -0.4338  0.5305
   97OSM   C12F 9694   3.594   2.575   9.362  0.1631 -0.7523  0.2292
   97OSM   H12F 9695   3.575   2.666   9.300 -0.3531 -0.5279  0.7032
   97OSM   H12G 9696   3.496   2.524   9.368  0.2202 -0.8593  0.2604
   97OSM   C13F 9697   3.695   2.485   9.291 -0.4265 -0.5016  0.2172
   97OSM   H13F 9698   3.684   2.384   9.337 -2.4469 -0.6752 -0.5178
   97OSM   H13G 9699   3.796   2.531   9.298 -0.1276 -0.6843 -2.0436
   97OSM   C14F 9700   3.678   2.472   9.140  1.1368 -0.7631 -0.3931
   97OSM   H14F 9701   3.771   2.442   9.085 -0.8264 -0.1767 -4.3838
   97OSM   H14G 9702   3.656   2.576   9.107  0.3395 -0.8282 -0.0857
   97OSM   C15F 9703   3.561   2.375   9.111 -0.4644 -0.2263 -0.2933
   97OSM   H15F 9704   3.466   2.410   9.158  0.4177  0.0549  1.3761
   97OSM   H15G 9705   3.585   2.274   9.150 -0.8300 -0.6109 -1.0626
   97OSM   C16F 9706   3.548   2.368   8.961 -0.2787 -0.0792 -0.3857
   97OSM   H16F 9707   3.638   2.403   8.906  2.0246 -3.1130  1.1514
   97OSM   H16G 9708   3.463   2.432   8.927 -0.3499 -1.1638 -2.4123
   97OSM   C17F 9709   3.519   2.223   8.913 -0.0169  0.2965 -1.0702
   97OSM   H17F 9710   3.438   2.180   8.976 -0.5654  1.6016 -0.8429
   97OSM   H17G 9711   3.612   2.166   8.934 -0.7751 -0.8897 -0.8226
   97OSM   C18F 9712   3.487   2.224   8.765  0.5431  0.2955 -0.3660
   97OSM   H18F 9713   3.559   2.291   8.714  1.8274 -2.1047 -1.9322
   97OSM   H18G 9714   3.383   2.255   8.742 -0.7667 -1.2899  2.7864
   97OSM   H18H 9715   3.506   2.127   8.713  1.4259  0.3357 -0.1272
   98OSM      N 9716   3.412   2.772  10.970 -0.2063  0.3547 -0.0184
   98OSM    C15 9717   3.440   2.808  11.112  0.3750  0.1709  0.1158
   98OSM   H15A 9718   3.521   2.879  11.120 -1.2039  2.0973 -0.2382
   98OSM   H15B 9719   3.448   2.717  11.170  1.6545  0.1392 -0.0847
   98OSM   H15C 9720   3.351   2.858  11.147  0.7478 -0.4906  2.1161
   98OSM    C14 9721   3.374   2.887  10.892  0.3670 -0.1001  0.5783
   98OSM   H14A 9722   3.460   2.951  10.884  1.4927 -1.3345  2.2214
   98OSM   H14B 9723   3.291   2.942  10.934  0.6530  1.2177 -0.4902
   98OSM   H14C 9724   3.337   2.862  10.793 -0.3110  0.7920  0.5856
   98OSM    C13 9725   3.538   2.706  10.914 -0.6612 -0.0961  0.1410
   98OSM   H13A 9726   3.609   2.785  10.894 -0.9153  0.0790 -0.0786
   98OSM   H13B 9727   3.521   2.656  10.820 -0.6976  2.5576 -1.3797
   98OSM   H13C 9728   3.585   2.635  10.979  0.3642  0.3628 -0.0768
   98OSM    C12 9729   3.293   2.679  10.966 -0.1793 -0.1268 -0.2805
   98OSM   H12A 9730   3.209   2.741  10.997  0.3981  0.2582  0.5620
   98OSM   H12B 9731   3.309   2.600  11.038  0.6881  0.8309  0.6119
   98OSM    C11 9732   3.259   2.620  10.828 -1.1809  0.7783 -0.0009
   98OSM   H11A 9733   3.264   2.703  10.754  0.7360 -0.5580 -1.4996
   98OSM   H11B 9734   3.158   2.576  10.844  0.0691 -1.0875  3.8112
   98OSM      P 9735   3.383   2.388  10.871  0.4834 -0.0862  0.0095
   98OSM    O13 9736   3.440   2.422  11.001 -0.1208  0.1405  0.3017
   98OSM    O14 9737   3.252   2.313  10.868  0.5865 -0.1123 -0.2268
   98OSM    O11 9738   3.489   2.309  10.784  0.2628 -0.2519 -0.4946
   98OSM    O12 9739   3.359   2.519  10.784 -0.4553 -0.7621 -0.0338
   98OSM    C1S 9740   3.450   2.270  10.655  0.3966  0.3523  0.6120
   98OSM    H1S 9741   3.463   2.355  10.584  0.6808  0.5659  0.9149
   98OSM    H1T 9742   3.344   2.239  10.645  0.3902  0.8201 -0.9419
   98OSM     NF 9743   3.463   2.113  10.474 -0.1089  0.4762 -0.4298
   98OSM    HNF 9744   3.387   2.049  10.467 -0.9118  0.8601  3.2005
   98OSM    C2S 9745   3.523   2.146  10.594  0.4852 -0.1401  0.1741
   98OSM    H2S 9746   3.629   2.166  10.569  0.3140  0.5232 -0.0408
   98OSM    C3S 9747   3.509   2.031  10.707 -0.4165  0.8490  0.3655
   98OSM    H3S 9748   3.399   2.019  10.721 -0.4051 -0.3906 -0.4567
   98OSM     O3 9749   3.558   2.071  10.833 -0.7369  0.6531 -0.0904
   98OSM    HO3 9750   3.571   2.166  10.832 -0.6177  0.6649  1.1789
   98OSM    C4S 9751   3.564   1.903  10.658  0.1919 -0.0179 -0.7496
   98OSM    H4S 9752   3.488   1.842  10.607 -0.3867 -0.7666  0.9592
   98OSM    C5S 9753   3.693   1.857  10.653 -0.5744  0.0749 -0.2140
   98OSM    H5S 9754   3.771   1.928  10.684  0.6859 -0.2093 -2.5544
   98OSM    C6S 9755   3.727   1.721  10.585  0.0827 -0.3979 -0.4094
   98OSM    H6S 9756   3.763   1.654  10.666 -2.6364 -0.2252  1.0670
   98OSM    H6T 9757   3.808   1.735  10.510  0.7189  0.3992  0.3994
   98OSM    C7S 9758   3.598   1.647  10.524 -0.4205  0.1656  0.5555
   98OSM    H7S 9759   3.522   1.640  10.605 -0.2303  0.8773  0.8083
   98OSM    H7T 9760   3.640   1.545  10.514  0.8529  0.7177  0.0040
   98OSM    C8S 9761   3.569   1.707  10.382  0.2537 -0.1389  0.1187
   98OSM    H8S 9762   3.667   1.724  10.334  0.0349 -3.5422 -1.9095
   98OSM    H8T 9763   3.522   1.806  10.398  2.7047  0.9911  0.7777
   98OSM    C9S 9764   3.498   1.617  10.278  0.4718  0.2208  0.2644
   98OSM    H9S 9765   3.407   1.566  10.316 -0.2758  1.7388  0.6258
   98OSM    H9T 9766   3.573   1.539  10.254 -0.1631 -1.0852  2.2206
   98OSM   C10S 9767   3.465   1.685  10.144  0.0542 -0.1713  0.0125
   98OSM   H10S 9768   3.567   1.701  10.103  0.5276  0.0202  1.2306
   98OSM   H10T 9769   3.407   1.776  10.172 -0.4591 -0.8863  1.3411
   98OSM   C11S 9770   3.364   1.608  10.054 -0.1994 -0.1643 -0.0681
   98OSM   H11S 9771   3.288   1.567  10.125 -0.9210  0.3742 -0.5121
   98OSM   H11T 9772   3.417   1.528   9.999  0.2415 -0.1209  0.2842
   98OSM   C12S 9773   3.303   1.701   9.946 -0.4416  0.2566 -0.1328
   98OSM   H12S 9774   3.372   1.728   9.862 -0.8962  3.1647  0.3421
   98OSM   H12T 9775   3.286   1.799   9.994  3.6191  1.0402  0.0482
   98OSM   C13S 9776   3.163   1.662   9.903  0.5305 -0.3930 -0.2005
   98OSM   H13S 9777   3.095   1.657   9.990 -0.2354  1.1837 -0.6749
   98OSM   H13T 9778   3.161   1.561   9.857 -2.5142  0.1991 -1.5762
   98OSM   C14S 9779   3.114   1.756   9.793  0.6777 -0.6763  0.4027
   98OSM   H14S 9780   3.151   1.719   9.695  2.2403  3.2594 -0.6954
   98OSM   H14T 9781   3.169   1.853   9.798  0.0625 -0.1715 -1.4587
   98OSM   C15S 9782   2.961   1.771   9.792  0.0840 -0.1446 -0.1688
   98OSM   H15S 9783   2.925   1.815   9.888 -0.6610  0.5964 -0.7666
   98OSM   H15T 9784   2.918   1.670   9.776 -0.5786  0.1668 -0.3945
   98OSM   C16S 9785   2.917   1.856   9.671  0.4954 -0.5627  0.3579
   98OSM   H16S 9786   2.951   1.811   9.575  2.4373 -1.3104  1.3412
   98OSM   H16T 9787   2.976   1.950   9.684  0.8666 -0.7250 -0.0883
   98OSM   C17S 9788   2.772   1.902   9.646  0.4252 -0.2089 -0.3548
   98OSM   H17S 9789   2.758   1.960   9.740  1.4461 -0.0886 -0.2610
   98OSM   H17T 9790   2.692   1.825   9.649  1.7365 -1.6205 -0.0266
   98OSM   C18S 9791   2.773   1.999   9.528 -0.4758 -0.7072 -0.3748
   98OSM   H18S 9792   2.676   2.053   9.516  0.5059  0.7574 -2.2976
   98OSM   H18T 9793   2.816   1.968   9.430  2.3735 -1.7843  1.0998
   98OSM   H18U 9794   2.842   2.084   9.548 -1.4135  0.1965 -0.8396
   98OSM    C1F 9795   3.491   2.176  10.366 -0.0912  0.0878  0.0763
   98OSM     OF 9796   3.575   2.265  10.372 -0.4045  0.0729 -0.0627
   98OSM    C2F 9797   3.414   2.139  10.244 -0.2246  0.4650 -0.2615
   98OSM    H2F 9798   3.330   2.208  10.222 -2.3299 -1.5804  0.9292
   98OSM    H2G 9799   3.359   2.043  10.251 -2.6263  1.7402 -0.7273
   98OSM    C3F 9800   3.507   2.118  10.124  0.0252  0.1158  0.5815
   98OSM    H3F 9801   3.586   2.047  10.158  0.5272  0.5192  0.2806
   98OSM    H3G 9802   3.545   2.220  10.100 -0.4090 -0.0439 -0.8765
   98OSM    C4F 9803   3.434   2.079  10.000  0.2671  0.4905 -0.2040
   98OSM    H4F 9804   3.347   2.147   9.989  1.1147  1.7959  0.7415
   98OSM    H4G 9805   3.391   1.978  10.015  1.0345 -0.0412 -1.4090
   98OSM    C5F 9806   3.518   2.079   9.869  0.3334  0.0860 -0.3127
   98OSM    H5F 9807   3.591   1.999   9.891  0.2335  0.1920  0.4554
   98OSM    H5G 9808   3.569   2.177   9.858  1.0097 -0.4928 -2.9502
   98OSM    C6F 9809   3.436   2.053   9.743 -0.3369 -0.6398 -0.3855
   98OSM    H6F 9810   3.381   2.148   9.724  2.3426  0.8657 -1.0995
   98OSM    H6G 9811   3.368   1.968   9.768  1.0905 -1.6851  0.0555
   98OSM    C7F 9812   3.523   2.037   9.621 -0.0252  0.0158  0.4185
   98OSM    H7F 9813   3.589   2.125   9.607  0.5718 -0.0830  2.3400
   98OSM    H7G 9814   3.459   2.026   9.531 -0.0807  1.0584  0.3077
   98OSM    C8F 9815   3.615   1.909   9.640 -0.0714  0.2968  0.2802
   98OSM    H8F 9816   3.556   1.834   9.697 -0.9139  1.3570  0.8225
   98OSM    H8G 9817   3.707   1.923   9.700 -0.4506 -1.8227  1.4663
   98OSM    C9F 9818   3.652   1.856   9.501 -0.5317 -0.1959  0.6265
   98OSM    H9F 9819   3.745   1.894   9.456 -0.2798 -0.5118  0.8842
   98OSM   C10F 9820   3.576   1.768   9.434 -0.8950  0.7804 -0.5115
   98OSM   H10F 9821   3.615   1.734   9.338  0.0147 -0.9116  0.4088
   98OSM   C11F 9822   3.450   1.693   9.482 -0.2243 -0.6173  0.8707
   98OSM   H11F 9823   3.408   1.742   9.573  0.6660  2.8935 -0.4401
   98OSM   H11G 9824   3.486   1.592   9.508  0.9013 -1.6230 -3.6899
   98OSM   C12F 9825   3.342   1.673   9.371 -0.4222 -0.1649 -0.2592
   98OSM   H12F 9826   3.278   1.592   9.412 -0.7206 -0.8069 -1.8991
   98OSM   H12G 9827   3.388   1.639   9.276 -2.0766 -2.9554 -0.1533
   98OSM   C13F 9828   3.259   1.804   9.344  0.1145  0.0001 -0.1836
   98OSM   H13F 9829   3.326   1.890   9.325 -0.0919  0.3583  0.6608
   98OSM   H13G 9830   3.198   1.823   9.435  2.8053  1.3748  1.4575
   98OSM   C14F 9831   3.168   1.777   9.221  0.4593 -0.3881 -0.7204
   98OSM   H14F 9832   3.105   1.689   9.247 -0.3281  0.3671 -0.0069
   98OSM   H14G 9833   3.226   1.748   9.131 -1.2036  3.1215 -3.1338
   98OSM   C15F 9834   3.069   1.894   9.182  0.2030 -0.0411  0.2415
   98OSM   H15F 9835   3.131   1.982   9.154 -0.6167  0.5878  0.3598
   98OSM   H15G 9836   3.017   1.919   9.277 -0.2827 -2.0280  0.5445
   98OSM   C16F 9837   2.973   1.859   9.070 -0.2635  0.1568 -0.2081
   98OSM   H16F 9838   2.923   1.763   9.095 -0.7342  0.6726  0.8382
   98OSM   H16G 9839   3.029   1.838   8.976  0.5313 -0.7524  0.4480
   98OSM   C17F 9840   2.878   1.968   9.037 -0.2023  0.6828 -0.1750
   98OSM   H17F 9841   2.853   2.027   9.128 -0.9927  1.9937 -1.2219
   98OSM   H17G 9842   2.784   1.916   9.008  1.9379 -3.5829 -0.3791
   98OSM   C18F 9843   2.928   2.055   8.919  0.5044  0.6233  0.1048
   98OSM   H18F 9844   3.035   2.085   8.923  0.3400  1.9321 -2.6725
   98OSM   H18G 9845   2.867   2.141   8.885 -1.2591 -1.6990 -3.1155
   98OSM   H18H 9846   2.920   1.986   8.832 -2.3060 -0.5658  1.1749
   99OSM      N 9847   4.631   4.394  11.018 -0.3766  0.3998  0.1130
   99OSM    C15 9848   4.745   4.388  11.118  0.1966  0.2905 -0.3591
   99OSM   H15A 9849   4.835   4.436  11.082  0.6527 -1.2331 -1.3458
   99OSM   H15B 9850   4.758   4.286  11.152  0.2846  0.8128  1.2917
   99OSM   H15C 9851   4.715   4.434  11.212 -0.2533  0.7073 -0.6992
   99OSM    C14 9852   4.514   4.327  11.089 -0.4084 -0.1126 -0.3159
   99OSM   H14A 9853   4.533   4.221  11.097 -0.7811 -0.2678 -1.2939
   99OSM   H14B 9854   4.426   4.330  11.026  0.5679  2.3491 -1.7097
   99OSM   H14C 9855   4.496   4.371  11.186  2.0359 -2.8565  1.5483
   99OSM    C13 9856   4.586   4.534  10.996 -0.7775  0.6006  0.6101
   99OSM   H13A 9857   4.658   4.593  10.942 -0.3191 -1.1128 -0.7334
   99OSM   H13B 9858   4.567   4.589  11.087 -0.5607  0.7975  0.5383
   99OSM   H13C 9859   4.492   4.542  10.944 -0.6171 -0.9227  0.0362
   99OSM    C12 9860   4.659   4.325  10.892  0.2721  0.3082  0.2863
   99OSM   H12A 9861   4.733   4.386  10.842  0.2268  0.2541  0.1539
   99OSM   H12B 9862   4.570   4.326  10.831  1.2680 -0.7915 -1.2529
   99OSM    C11 9863   4.716   4.177  10.890  0.4840 -0.2538  0.3168
   99OSM   H11A 9864   4.809   4.170  10.950  0.6147  0.6505  0.2266
   99OSM   H11B 9865   4.753   4.155  10.787  0.2016  2.7479 -0.5148
   99OSM      P 9866   4.572   3.957  10.847 -0.2485  0.0079 -0.1173
   99OSM    O13 9867   4.682   3.857  10.873 -0.0855 -0.3112 -0.5199
   99OSM    O14 9868   4.431   3.912  10.879 -0.3187  0.3966 -0.0796
   99OSM    O11 9869   4.580   4.013  10.704 -0.3554  0.6187  0.1440
   99OSM    O12 9870   4.605   4.092  10.929 -0.2237 -0.0140 -0.3318
   99OSM    C1S 9871   4.485   3.990  10.602  0.2821 -0.1893 -0.0470
   99OSM    H1S 9872   4.387   4.040  10.618  0.7880  1.6094 -2.0204
   99OSM    H1T 9873   4.472   3.880  10.597 -1.4292 -0.1509  2.0197
   99OSM     NF 9874   4.425   3.987  10.354 -0.1899  0.1713  0.2642
   99OSM    HNF 9875   4.434   3.913  10.289 -0.9022 -0.5059  0.9124
   99OSM    C2S 9876   4.526   4.030  10.454  0.2814 -0.2428  0.1242
   99OSM    H2S 9877   4.531   4.140  10.469 -0.0399 -0.3644  1.1679
   99OSM    C3S 9878   4.667   3.990  10.413 -0.0709  0.1507 -0.2902
   99OSM    H3S 9879   4.671   3.879  10.404  1.6939  0.1530  0.1083
   99OSM     O3 9880   4.762   4.023  10.508  0.4570 -0.5668 -0.4775
   99OSM    HO3 9881   4.710   4.058  10.581 -0.4416 -0.6593 -1.0483
   99OSM    C4S 9882   4.707   4.057  10.288  0.5380  0.3270 -0.0665
   99OSM    H4S 9883   4.705   4.167  10.291 -0.9945  0.3080  0.2585
   99OSM    C5S 9884   4.734   3.984  10.179 -1.2527 -0.4335 -1.1894
   99OSM    H5S 9885   4.748   3.875  10.175  0.3256 -0.3486  0.3809
   99OSM    C6S 9886   4.768   4.055  10.045 -0.8417 -0.8292 -0.7954
   99OSM    H6S 9887   4.870   4.100  10.040 -1.1093 -0.0055  0.8145
   99OSM    H6T 9888   4.695   4.138  10.038  0.5044  0.7786  2.1634
   99OSM    C7S 9889   4.738   3.980   9.916 -0.3663  0.6169  0.2770
   99OSM    H7S 9890   4.632   3.961   9.892  0.5395 -2.6803 -1.7508
   99OSM    H7T 9891   4.792   3.883   9.912  1.4494  1.6054 -2.4652
   99OSM    C8S 9892   4.788   4.042   9.788 -0.5961 -0.2911 -0.0743
   99OSM    H8S 9893   4.749   3.978   9.706  1.5441 -0.6220 -0.8882
   99OSM    H8T 9894   4.898   4.035   9.779 -0.4895  0.9623  0.0518
   99OSM    C9S 9895   4.746   4.186   9.769 -0.1269 -0.4751 -0.6696
   99OSM    H9S 9896   4.805   4.255   9.833  1.9136 -1.4301 -1.4319
   99OSM    H9T 9897   4.640   4.188   9.804 -0.0101  0.9873 -0.3338
   99OSM   C10S 9898   4.768   4.247   9.628  0.0703  0.4404  0.5105
   99OSM   H10S 9899   4.867   4.228   9.583  0.4289  0.1735  1.3961
   99OSM   H10T 9900   4.755   4.357   9.630  2.3203  0.7680  3.1769
   99OSM   C11S 9901   4.673   4.183   9.525 -0.1509  0.5206 -0.8569
   99OSM   H11S 9902   4.568   4.204   9.556 -0.3029  0.1172 -1.0932
   99OSM   H11T 9903   4.695   4.075   9.539 -2.2560  0.0379 -0.9589
   99OSM   C12S 9904   4.691   4.216   9.379 -0.2834  0.0330  0.3269
   99OSM   H12S 9905   4.702   4.326   9.378  0.7675 -0.0637  0.2888
   99OSM   H12T 9906   4.782   4.171   9.333 -0.1357 -1.0174  1.5787
   99OSM   C13S 9907   4.570   4.182   9.285 -0.3874 -0.1954  0.3986
   99OSM   H13S 9908   4.490   4.246   9.328 -0.3395 -0.9068  1.5703
   99OSM   H13T 9909   4.546   4.074   9.297  1.1844 -0.6428 -0.2681
   99OSM   C14S 9910   4.589   4.213   9.141  0.4242  0.2388  0.2507
   99OSM   H14S 9911   4.622   4.318   9.126  1.5056 -0.4236 -2.6586
   99OSM   H14T 9912   4.493   4.171   9.103 -0.7321 -0.6158  3.7335
   99OSM   C15S 9913   4.706   4.137   9.067 -0.2463 -0.5195 -0.1979
   99OSM   H15S 9914   4.694   4.027   9.078 -0.5290 -0.3557  1.4291
   99OSM   H15T 9915   4.804   4.167   9.110 -1.9649  1.7555  2.5342
   99OSM   C16S 9916   4.723   4.178   8.918  0.1212 -0.3307 -0.5046
   99OSM   H16S 9917   4.824   4.143   8.887 -0.0527  0.7430 -2.4147
   99OSM   H16T 9918   4.716   4.288   8.915 -0.4872 -0.3388  0.1749
   99OSM   C17S 9919   4.615   4.105   8.832 -0.6259  0.1534 -0.4270
   99OSM   H17S 9920   4.514   4.123   8.874 -0.5861 -0.8859  0.1502
   99OSM   H17T 9921   4.631   3.995   8.832 -2.7762 -0.2003 -0.5332
   99OSM   C18S 9922   4.628   4.138   8.690 -0.2253 -0.5152  0.2219
   99OSM   H18S 9923   4.722   4.097   8.648  0.3147  0.9031 -0.0307
   99OSM   H18T 9924   4.619   4.245   8.661 -1.9662 -0.3078  1.3505
   99OSM   H18U 9925   4.549   4.101   8.621 -3.0676  0.3782  2.7605
   99OSM    C1F 9926   4.307   4.051  10.348  0.0373 -0.0449  0.1119
   99OSM     OF 9927   4.295   4.159  10.409  0.0348  0.2460 -0.4892
   99OSM    C2F 9928   4.197   3.988  10.269 -0.4409 -0.2012  0.7520
   99OSM    H2F 9929   4.102   4.037  10.299 -1.4826 -1.5492 -0.1662
   99OSM    H2G 9930   4.203   3.879  10.292  0.1233 -0.8356 -2.0458
   99OSM    C3F 9931   4.225   4.009  10.120  0.3641  0.1482 -0.8356
   99OSM    H3F 9932   4.132   3.978  10.068  1.4783 -2.0711 -1.6207
   99OSM    H3G 9933   4.245   4.117  10.104 -0.0006  0.4006  0.2623
   99OSM    C4F 9934   4.340   3.930  10.049  0.8345 -0.1461  0.8490
   99OSM    H4F 9935   4.341   3.823  10.080 -1.1146  0.2586  2.4782
   99OSM    H4G 9936   4.438   3.977  10.072  0.2890  1.6216 -0.2873
   99OSM    C5F 9937   4.330   3.939   9.898 -0.5048  0.7203 -0.2510
   99OSM    H5F 9938   4.242   3.885   9.859  0.1062 -0.3865 -0.1355
   99OSM    H5G 9939   4.414   3.884   9.850 -1.9100 -0.5661 -1.3301
   99OSM    C6F 9940   4.341   4.080   9.841 -0.1402 -0.1226  0.6794
   99OSM    H6F 9941   4.429   4.133   9.883  0.1989  0.3099 -0.5597
   99OSM    H6G 9942   4.244   4.128   9.868  0.4706  0.5276  1.7804
   99OSM    C7F 9943   4.348   4.082   9.690 -0.6244 -0.1039 -0.1135
   99OSM    H7F 9944   4.435   4.017   9.663 -0.2382  1.1560 -2.1150
   99OSM    H7G 9945   4.369   4.183   9.648  3.2490  0.3072  2.2631
   99OSM    C8F 9946   4.234   4.007   9.620 -0.3603 -0.1833  0.0570
   99OSM    H8F 9947   4.132   4.027   9.661 -0.1828 -4.1298  3.1321
   99OSM    H8G 9948   4.255   3.900   9.642  1.4108  0.2456  0.6433
   99OSM    C9F 9949   4.243   4.031   9.472  1.0777  0.0813 -0.1727
   99OSM    H9F 9950   4.221   4.133   9.437  3.5451  0.3122 -1.3487
   99OSM   C10F 9951   4.281   3.945   9.375 -0.0119 -0.1164 -0.5660
   99OSM   H10F 9952   4.282   3.990   9.275 -0.8736  0.6099 -0.2629
   99OSM   C11F 9953   4.326   3.801   9.387 -0.2338 -0.2643  0.1845
   99OSM   H11F 9954   4.236   3.740   9.360 -0.7670 -0.5211  2.3953
   99OSM   H11G 9955   4.360   3.773   9.489 -0.9533 -0.3841  0.4014
   99OSM   C12F 9956   4.444   3.755   9.303  0.8464  0.1098  0.9095
   99OSM   H12F 9957   4.430   3.776   9.195  3.7102 -1.5392  0.1362
   99OSM   H12G 9958   4.440   3.644   9.303 -0.7334  0.1099  2.6176
   99OSM   C13F 9959   4.588   3.792   9.343  0.4886  0.6221  0.0263
   99OSM   H13F 9960   4.594   3.901   9.322 -2.0817  0.7929 -0.1678
   99OSM   H13G 9961   4.664   3.735   9.286 -0.8691 -0.0955 -1.1568
   99OSM   C14F 9962   4.618   3.761   9.489 -0.0758  0.5838 -0.5375
   99OSM   H14F 9963   4.562   3.828   9.558 -0.3439  0.0217 -0.2007
   99OSM   H14G 9964   4.722   3.799   9.499 -0.1921  0.8266 -0.2122
   99OSM   C15F 9965   4.591   3.613   9.533 -0.7131  0.5885  0.9043
   99OSM   H15F 9966   4.644   3.551   9.458 -2.7101  1.3531 -1.2363
   99OSM   H15G 9967   4.489   3.576   9.512 -0.3545  0.4441 -0.7167
   99OSM   C16F 9968   4.639   3.583   9.680  0.0565 -0.9740 -0.0165
   99OSM   H16F 9969   4.749   3.588   9.690  0.1653 -2.5854 -0.0108
   99OSM   H16G 9970   4.604   3.481   9.708 -0.2791 -0.2841  2.2964
   99OSM   C17F 9971   4.584   3.674   9.783  0.2922 -0.4417  0.3368
   99OSM   H17F 9972   4.473   3.672   9.775  0.0891  1.0782  2.0000
   99OSM   H17G 9973   4.613   3.779   9.761  2.2589 -1.2034 -0.9936
   99OSM   C18F 9974   4.625   3.631   9.924  0.1797  0.5484  0.2508
   99OSM   H18F 9975   4.606   3.522   9.916 -1.6921  0.9885 -2.7534
   99OSM   H18G 9976   4.567   3.669  10.011  0.4019 -0.5746  0.9067
   99OSM   H18H 9977   4.733   3.651   9.942  0.5184 -0.7261 -0.2978
  100OSM      N 9978   0.491   3.566  10.870  0.1358 -0.0539 -0.2872
  100OSM    C15 9979   0.588   3.588  10.765 -0.1402  0.4001  0.1504
  100OSM   H15A 9980   0.533   3.633  10.684 -0.1309  3.0261  1.5108
  100OSM   H15B 9981   0.631   3.495  10.731  0.8495  0.7156  0.4852
  100OSM   H15C 9982   0.665   3.661  10.784 -0.6756  0.8898  0.4779
  100OSM    C14 9983   0.405   3.449  10.849 -0.2984  0.0906  0.4390
  100OSM   H14A 9984   0.312   3.475  10.800 -0.8077  0.9976  1.8114
  100OSM   H14B 9985   0.378   3.397  10.940 -1.7377  0.7956  0.4589
  100OSM   H14C 9986   0.461   3.368  10.806 -1.8132 -2.1356  2.4397
  100OSM    C13 9987   0.570   3.553  11.003  0.2660  0.1378 -0.1450
  100OSM   H13A 9988   0.503   3.541  11.086 -1.8290 -1.3765 -1.9205
  100OSM   H13B 9989   0.641   3.631  11.026  0.5187 -0.6178  1.7589
  100OSM   H13C 9990   0.643   3.474  10.996  0.8814  0.7310 -0.5743
  100OSM    C12 9991   0.408   3.692  10.900  0.5176 -0.4985  0.8248
  100OSM   H12A 9992   0.470   3.773  10.935 -1.3357  1.5522 -0.3984
  100OSM   H12B 9993   0.342   3.675  10.984  0.2537 -0.0025  0.7225
  100OSM    C11 9994   0.314   3.744  10.783  0.3085 -0.2912  0.6100
  100OSM   H11A 9995   0.376   3.783  10.700 -0.0476  0.5826  0.7392
  100OSM   H11B 9996   0.274   3.834  10.835 -2.1509 -1.1194  0.2684
  100OSM      P 9997   0.073   3.656  10.827 -0.7482  0.0764 -0.0876
  100OSM    O13 9998   0.011   3.524  10.843 -0.3148 -0.8440  0.1156
  100OSM    O14 9999   0.086   3.740  10.949 -0.5011 -0.3772  0.1653
  100OSM    O1110000  -0.021   3.740  10.732 -0.0916 -0.0798  0.1539
  100OSM    O1210001   0.214   3.641  10.750  0.1034  0.4668 -0.0144
  100OSM    C1S10002   0.017   3.781  10.597 -0.2245  0.2448 -0.7728
  100OSM    H1S10003   0.123   3.762  10.569 -0.2225  1.3577 -1.5415
  100OSM    H1T10004  -0.005   3.889  10.586  1.4735  0.5740 -1.1044
  100OSM     NF10005  -0.020   3.727  10.364  0.4711  0.6045  0.3981
  100OSM    HNF10006  -0.064   3.810  10.331 -1.5576 -0.8659 -0.8050
  100OSM    C2S10007  -0.058   3.688  10.497 -0.6839 -0.2338  0.7931
  100OSM    H2S10008  -0.037   3.584  10.528 -0.4877  0.0578  1.6757
  100OSM    C3S10009  -0.209   3.701  10.523 -0.5602 -0.4752  0.5851
  100OSM    H3S10010  -0.236   3.808  10.539  1.1279 -0.3252  2.7574
  100OSM     O310011  -0.257   3.646  10.646  0.0294 -0.4878  0.9747
  100OSM    HO310012  -0.179   3.646  10.703 -0.2404 -3.1106  1.5118
  100OSM    C4S10013  -0.289   3.649  10.395  0.1889 -0.6020  0.0701
  100OSM    H4S10014  -0.310   3.728  10.322  2.2824  0.6229  0.7111
  100OSM    C5S10015  -0.313   3.525  10.367 -0.1470 -0.0955 -0.4462
  100OSM    H5S10016  -0.289   3.453  10.448  0.5503  2.4724  1.7789
  100OSM    C6S10017  -0.388   3.463  10.258  0.2866  0.3254 -0.0215
  100OSM    H6S10018  -0.497   3.461  10.281  0.4047 -0.8054  0.5149
  100OSM    H6T10019  -0.348   3.359  10.257  1.0808  0.6240  0.2525
  100OSM    C7S10020  -0.383   3.536  10.121 -0.1346  0.2053 -0.4311
  100OSM    H7S10021  -0.388   3.645  10.140  1.5070  0.4423 -1.2012
  100OSM    H7T10022  -0.463   3.504  10.050 -2.2028  1.1900  1.3399
  100OSM    C8S10023  -0.251   3.514  10.047 -0.1733 -0.9861  0.2463
  100OSM    H8S10024  -0.231   3.405  10.038 -0.4757 -1.3909  3.4271
  100OSM    H8T10025  -0.178   3.553  10.121 -0.7503  1.3315 -0.3336
  100OSM    C9S10026  -0.247   3.570   9.911 -0.0099 -0.4269  0.9624
  100OSM    H9S10027  -0.142   3.584   9.878  0.6287 -3.4041  1.4929
  100OSM    H9T10028  -0.297   3.668   9.899 -0.1444 -0.5163  0.7985
  100OSM   C10S10029  -0.334   3.495   9.807 -0.1248  0.2494 -0.2410
  100OSM   H10S10030  -0.442   3.511   9.827 -0.2453 -2.0486  1.2908
  100OSM   H10T10031  -0.311   3.388   9.823  0.1446  0.4058  0.4703
  100OSM   C11S10032  -0.306   3.537   9.656 -0.1142 -0.2742 -0.6398
  100OSM   H11S10033  -0.210   3.492   9.622  0.5379  1.5401 -1.3138
  100OSM   H11T10034  -0.288   3.647   9.652  0.4215 -0.4004 -2.6247
  100OSM   C12S10035  -0.421   3.508   9.563 -0.1159 -1.1280  0.2094
  100OSM   H12S10036  -0.500   3.577   9.599 -2.1389 -2.2891 -1.7686
  100OSM   H12T10037  -0.446   3.400   9.570  2.4589 -1.8359 -0.5474
  100OSM   C13S10038  -0.389   3.549   9.421  0.2826 -0.0339  0.3879
  100OSM   H13S10039  -0.464   3.525   9.343  1.1058 -1.2793 -0.0464
  100OSM   H13T10040  -0.303   3.491   9.381 -0.8562 -1.1512 -0.4834
  100OSM   C14S10041  -0.360   3.700   9.395 -0.2212  0.4156 -1.1485
  100OSM   H14S10042  -0.270   3.729   9.455 -1.3318 -1.4992  1.6677
  100OSM   H14T10043  -0.442   3.764   9.435 -1.4237 -2.5900  1.6312
  100OSM   C15S10044  -0.340   3.726   9.243  0.3133 -0.1277  0.0218
  100OSM   H15S10045  -0.247   3.671   9.216  0.0436  0.0367 -1.3092
  100OSM   H15T10046  -0.311   3.833   9.243  0.5983 -0.2021  0.8416
  100OSM   C16S10047  -0.464   3.710   9.151  0.4377 -0.3653  0.1656
  100OSM   H16S10048  -0.560   3.755   9.186  0.3184  1.3886 -2.1602
  100OSM   H16T10049  -0.478   3.601   9.136  1.2414 -0.8248  2.4946
  100OSM   C17S10050  -0.428   3.764   9.012 -0.4264 -0.2344  0.1366
  100OSM   H17S10051  -0.410   3.874   9.014 -0.2272 -0.2706  0.9985
  100OSM   H17T10052  -0.512   3.751   8.941  0.1536 -3.1675 -0.1190
  100OSM   C18S10053  -0.301   3.701   8.945  0.1003 -0.9156 -0.7252
  100OSM   H18S10054  -0.321   3.593   8.928 -1.4871 -0.4971 -1.7088
  100OSM   H18T10055  -0.205   3.713   9.000  0.2537  2.4891 -1.5309
  100OSM   H18U10056  -0.282   3.745   8.845 -0.1405 -1.2486 -0.9199
  100OSM    C1F10057   0.086   3.668  10.312 -0.0944  0.6820 -0.3953
  100OSM     OF10058   0.149   3.584  10.375  0.0427 -0.1705 -0.0430
  100OSM    C2F10059   0.132   3.709  10.173  0.4818  0.1053  0.0320
  100OSM    H2F10060   0.227   3.763  10.191 -0.4160  1.1669  1.9537
  100OSM    H2G10061   0.059   3.785  10.138  1.8029  1.9463  1.1088
  100OSM    C3F10062   0.157   3.595  10.070  0.2207  0.5577  0.1898
  100OSM    H3F10063   0.060   3.543  10.059 -0.5440  1.2321  2.8783
  100OSM    H3G10064   0.236   3.528  10.111 -0.4821  0.6925  1.8288
  100OSM    C4F10065   0.205   3.646   9.936  0.0392 -0.0661  0.0757
  100OSM    H4F10066   0.122   3.699   9.886 -0.5686  0.4196  1.5475
  100OSM    H4G10067   0.236   3.553   9.884 -0.8968  0.2830 -1.1507
  100OSM    C5F10068   0.330   3.735   9.950  0.0924  0.5319 -0.0269
  100OSM    H5F10069   0.409   3.670   9.991 -0.3839  0.6994  1.1891
  100OSM    H5G10070   0.318   3.824  10.016  2.0322  1.2784 -0.6056
  100OSM    C6F10071   0.376   3.793   9.812  0.0815  0.7347  0.4090
  100OSM    H6F10072   0.290   3.856   9.780 -0.9085  0.5805  2.5576
  100OSM    H6G10073   0.394   3.698   9.757 -0.2825 -0.6575  2.5481
  100OSM    C7F10074   0.505   3.873   9.822 -0.4255  0.3956  0.2353
  100OSM    H7F10075   0.588   3.800   9.837 -0.6281 -0.2104 -1.3424
  100OSM    H7G10076   0.490   3.931   9.915  0.0806  0.5684  0.2122
  100OSM    C8F10077   0.533   3.955   9.693  0.0615 -0.1383 -0.0683
  100OSM    H8F10078   0.516   3.882   9.610 -1.7202  0.6941 -0.4867
  100OSM    H8G10079   0.642   3.961   9.674  0.0050 -0.4087 -0.4835
  100OSM    C9F10080   0.465   4.086   9.660 -0.6467  0.0548 -0.2273
  100OSM    H9F10081   0.478   4.168   9.732 -0.9959 -0.6594  0.6733
  100OSM   C10F10082   0.391   4.119   9.552 -1.0322  0.2843  0.3122
  100OSM   H10F10083   0.356   4.223   9.552  0.8599  0.9614  0.5530
  100OSM   C11F10084   0.350   4.035   9.430 -0.3389  0.0958 -0.0817
  100OSM   H11F10085   0.260   4.079   9.382 -1.4139 -1.2423  0.6418
  100OSM   H11G10086   0.326   3.936   9.473 -1.7266  0.4437 -0.0216
  100OSM   C12F10087   0.476   4.012   9.334  0.4965 -0.1558 -0.5444
  100OSM   H12F10088   0.454   3.920   9.277 -0.3280  0.0964 -0.6517
  100OSM   H12G10089   0.565   3.989   9.397  0.0238 -2.8093 -0.7451
  100OSM   C13F10090   0.506   4.113   9.224  0.6803  0.4271  0.2735
  100OSM   H13F10091   0.586   4.086   9.152  0.4559  2.3030 -0.7534
  100OSM   H13G10092   0.541   4.204   9.277  2.3927 -1.3817  2.4295
  100OSM   C14F10093   0.385   4.159   9.147 -0.3342  0.6722  0.5641
  100OSM   H14F10094   0.314   4.206   9.219 -3.2833 -0.9910 -1.0794
  100OSM   H14G10095   0.329   4.080   9.092 -0.0059  0.4552  0.5458
  100OSM   C15F10096   0.424   4.258   9.030  0.4238 -0.3169  0.7476
  100OSM   H15F10097   0.527   4.228   9.002  1.1683 -0.7762  3.5841
  100OSM   H15G10098   0.411   4.363   9.065  0.4811 -0.1763  0.3473
  100OSM   C16F10099   0.334   4.235   8.907  0.1427 -0.2050 -0.0875
  100OSM   H16F10100   0.238   4.274   8.946  1.1514  0.7733  1.5254
  100OSM   H16G10101   0.329   4.125   8.899  3.0121 -0.3766 -0.6341
  100OSM   C17F10102   0.378   4.303   8.782 -0.0825  0.2087  0.0071
  100OSM   H17F10103   0.314   4.282   8.693 -0.1802  1.0485 -0.1251
  100OSM   H17G10104   0.476   4.261   8.750 -0.9271 -0.2776 -2.1422
  100OSM   C18F10105   0.395   4.454   8.798  0.5787  0.4181 -0.7017
  100OSM   H18F10106   0.438   4.504   8.708  1.2840  1.4321  0.1688
  100OSM   H18G10107   0.469   4.483   8.875  0.5461  1.0880 -0.9153
  100OSM   H18H10108   0.297   4.505   8.812 -0.0750 -0.2614 -2.4677
  101OSM      N10109   3.169   4.068  11.354 -0.1109  0.0745  0.0380
  101OSM    C1510110   3.184   4.190  11.270 -0.3618  0.2879  0.0995
  101OSM   H15A10111   3.147   4.283  11.308 -0.8199  0.7815 -1.4551
  101OSM   H15B10112   3.132   4.174  11.177 -1.3972 -1.3176  0.9105
  101OSM   H15C10113   3.291   4.197  11.251  0.4518 -1.3540  3.4688
  101OSM    C1410114   3.249   4.096  11.477 -0.3040  0.3693 -0.1405
  101OSM   H14A10115   3.227   4.191  11.524  2.1084  0.7823  0.2898
  101OSM   H14B10116   3.354   4.111  11.457  0.2273 -0.6200  1.6755
  101OSM   H14C10117   3.249   4.019  11.553  0.7644 -0.8490 -1.3161
  101OSM    C1310118   3.024   4.059  11.393  0.1483 -0.1977 -0.0788
  101OSM   H13A10119   2.992   4.129  11.468 -0.8449  0.0728 -0.7325
  101OSM   H13B10120   3.002   3.960  11.430  0.4768  0.1750  1.1613
  101OSM   H13C10121   2.965   4.080  11.305 -0.7928  1.2783  0.8745
  101OSM    C1210122   3.214   3.946  11.291  0.1087  0.2790  0.3929
  101OSM   H12A10123   3.187   3.865  11.357 -0.3408  0.5376  0.5353
  101OSM   H12B10124   3.321   3.935  11.293  0.1770  0.8624  2.6533
  101OSM    C1110125   3.184   3.914  11.141 -0.3081 -0.4202 -0.3075
  101OSM   H11A10126   3.210   3.807  11.129 -0.4980 -0.5745  0.5703
  101OSM   H11B10127   3.253   3.982  11.086 -1.3126  1.0068  0.1256
  101OSM      P10128   2.990   4.026  10.998  0.1599  0.3857  0.0271
  101OSM    O1310129   2.845   4.008  10.978 -0.0909  0.0056 -0.3297
  101OSM    O1410130   3.035   4.160  11.002 -0.1045  0.1632 -0.2280
  101OSM    O1110131   3.060   3.943  10.884  0.0327 -0.4603  0.0581
  101OSM    O1210132   3.047   3.930  11.117  0.3974 -0.3046 -0.1845
  101OSM    C1S10133   3.149   4.010  10.786 -0.0375  0.7183  0.1992
  101OSM    H1S10134   3.253   4.015  10.826  0.8180  1.2676 -1.9542
  101OSM    H1T10135   3.118   4.113  10.759 -0.2089  0.5701 -0.1701
  101OSM     NF10136   3.258   3.973  10.559  0.0590 -0.0713 -0.1185
  101OSM    HNF10137   3.234   4.034  10.484  1.3422 -1.1600 -1.4436
  101OSM    C2S10138   3.150   3.926  10.651  0.3681  0.1398  0.1014
  101OSM    H2S10139   3.165   3.819  10.675 -0.1803 -0.0962 -0.5616
  101OSM    C3S10140   3.017   3.947  10.584 -0.0011  0.1724  0.2620
  101OSM    H3S10141   3.007   4.058  10.583 -0.0572  0.1683  0.3098
  101OSM     O310142   2.910   3.898  10.664 -0.5646  0.6343 -0.1448
  101OSM    HO310143   2.954   3.919  10.747  0.3630 -1.5035 -0.0058
  101OSM    C4S10144   3.017   3.896  10.442  0.8890 -1.3144  0.2628
  101OSM    H4S10145   3.043   3.972  10.367 -0.2899 -1.3610 -0.2199
  101OSM    C5S10146   2.978   3.772  10.401  0.6977 -0.1150  0.3672
  101OSM    H5S10147   2.934   3.714  10.483 -0.3244  0.4906  0.2685
  101OSM    C6S10148   2.975   3.701  10.265  0.4923 -0.4726  0.5465
  101OSM    H6S10149   2.871   3.695  10.227  1.1583 -1.2073 -1.2493
  101OSM    H6T10150   3.006   3.595  10.275 -1.2831 -1.1381 -0.5687
  101OSM    C7S10151   3.065   3.770  10.158 -0.9776  0.3485  0.3065
  101OSM    H7S10152   3.170   3.772  10.193 -1.0149 -0.2084  0.4562
  101OSM    H7T10153   3.033   3.873  10.132  2.7042  1.2839 -1.1112
  101OSM    C8S10154   3.061   3.694  10.019 -0.2112 -0.0497 -0.8812
  101OSM    H8S10155   3.077   3.587  10.043 -2.0662 -0.4284 -1.2213
  101OSM    H8T10156   3.145   3.718   9.950 -0.1565  1.1009 -0.4439
  101OSM    C9S10157   2.932   3.717   9.940 -0.3149  0.1760 -0.1593
  101OSM    H9S10158   2.933   3.824   9.907  1.7688  1.4135  3.3551
  101OSM    H9T10159   2.840   3.708  10.000 -0.2338 -1.0534 -0.2033
  101OSM   C10S10160   2.932   3.619   9.825 -0.8464  0.4369  1.5916
  101OSM   H10S10161   2.892   3.523   9.865  0.1960 -0.2119  1.1006
  101OSM   H10T10162   3.038   3.613   9.793 -0.9592  0.3500  1.2262
  101OSM   C11S10163   2.844   3.665   9.706  0.1882  0.0136 -0.5154
  101OSM   H11S10164   2.853   3.594   9.622 -0.6234  1.5811 -1.9875
  101OSM   H11T10165   2.895   3.754   9.663  1.8284  0.2289  1.6840
  101OSM   C12S10166   2.697   3.676   9.738 -0.2587  0.4832 -0.3755
  101OSM   H12S10167   2.670   3.723   9.835 -0.3901 -0.6012  0.1349
  101OSM   H12T10168   2.646   3.578   9.752  1.6082 -0.3089  1.3717
  101OSM   C13S10169   2.623   3.740   9.623  0.0380 -0.4084  0.6299
  101OSM   H13S10170   2.671   3.836   9.594 -2.6731  1.2863  1.3531
  101OSM   H13T10171   2.523   3.763   9.665 -0.0618  0.1589  0.0896
  101OSM   C14S10172   2.604   3.651   9.503  0.0417 -0.6384 -0.1710
  101OSM   H14S10173   2.537   3.565   9.525  0.8504 -0.6114  2.8840
  101OSM   H14T10174   2.702   3.609   9.473  2.4009  1.3977  3.8190
  101OSM   C15S10175   2.525   3.721   9.394  0.9194 -0.3496  0.6042
  101OSM   H15S10176   2.597   3.794   9.352 -0.7131  1.9982  1.6242
  101OSM   H15T10177   2.429   3.772   9.416 -0.9929 -1.7436 -3.4745
  101OSM   C16S10178   2.484   3.625   9.283 -0.0633 -0.1861 -0.0044
  101OSM   H16S10179   2.375   3.605   9.297  0.0420  0.9417  3.3540
  101OSM   H16T10180   2.550   3.536   9.289 -1.5236 -1.6348 -2.9093
  101OSM   C17S10181   2.502   3.677   9.134 -0.5990 -0.0449 -0.2930
  101OSM   H17S10182   2.508   3.580   9.080 -2.4190 -0.3897  0.0267
  101OSM   H17T10183   2.591   3.740   9.115 -1.1923  0.9850  0.2357
  101OSM   C18S10184   2.377   3.758   9.083  0.3467 -0.0939 -0.3161
  101OSM   H18S10185   2.353   3.835   9.158 -1.4029 -2.7049  2.0144
  101OSM   H18T10186   2.296   3.683   9.072 -0.8279  1.1826 -0.6507
  101OSM   H18U10187   2.384   3.804   8.982 -0.9643 -1.6928 -1.1866
  101OSM    C1F10188   3.388   3.967  10.588  0.5585  0.1500  0.8012
  101OSM     OF10189   3.434   3.933  10.691 -0.0252  0.0989  0.1361
  101OSM    C2F10190   3.473   3.980  10.463 -0.0136  0.5678  0.4597
  101OSM    H2F10191   3.502   4.086  10.443 -1.3104  0.6634 -1.0829
  101OSM    H2G10192   3.417   3.952  10.372  1.3870 -0.4042 -0.1326
  101OSM    C3F10193   3.593   3.885  10.455  0.0261  0.5676  0.0687
  101OSM    H3F10194   3.668   3.914  10.533  1.3645 -1.7665 -0.2535
  101OSM    H3G10195   3.657   3.909  10.368  0.9577  0.2162  0.6336
  101OSM    C4F10196   3.576   3.729  10.461  0.2236 -0.2232  0.1868
  101OSM    H4F10197   3.570   3.691  10.565 -0.2175  0.4740  0.4208
  101OSM    H4G10198   3.671   3.685  10.426  0.9644  1.1344  0.4253
  101OSM    C5F10199   3.451   3.677  10.384  0.2308 -0.2921 -0.1293
  101OSM    H5F10200   3.410   3.767  10.333  2.6552 -0.5806 -2.8441
  101OSM    H5G10201   3.390   3.634  10.466  0.3809  0.4054  0.3553
  101OSM    C6F10202   3.489   3.561  10.285  0.1062  0.0807  0.1358
  101OSM    H6F10203   3.558   3.612  10.215  1.6467 -0.5352  1.1469
  101OSM    H6G10204   3.547   3.481  10.336  0.7618  0.3829 -0.1186
  101OSM    C7F10205   3.364   3.506  10.214 -0.4735  0.2807  0.8700
  101OSM    H7F10206   3.276   3.563  10.251 -1.6280 -0.1381 -1.0781
  101OSM    H7G10207   3.353   3.403  10.255  2.0727  0.6712  2.8085
  101OSM    C8F10208   3.368   3.513  10.064  0.2467  0.1471 -0.3571
  101OSM    H8F10209   3.379   3.619  10.034  1.4886  0.1699  0.1149
  101OSM    H8G10210   3.270   3.479  10.025 -1.0568  2.6970  0.5294
  101OSM    C9F10211   3.485   3.433  10.016  0.2369 -0.3871 -0.0710
  101OSM    H9F10212   3.543   3.383  10.095 -1.3571 -2.4319 -0.1153
  101OSM   C10F10213   3.529   3.427   9.892  0.4879  0.2603 -0.6527
  101OSM   H10F10214   3.603   3.349   9.869 -0.4922 -0.4529 -1.5282
  101OSM   C11F10215   3.474   3.489   9.770 -0.8846  0.3055 -0.1018
  101OSM   H11F10216   3.542   3.572   9.741  0.1389 -1.1574 -2.1274
  101OSM   H11G10217   3.376   3.541   9.778 -0.7853  0.4989 -0.1382
  101OSM   C12F10218   3.482   3.371   9.669 -0.3235 -0.0631 -0.2270
  101OSM   H12F10219   3.417   3.284   9.693  2.5423 -2.8450 -1.9500
  101OSM   H12G10220   3.587   3.338   9.661  0.0126  0.8455  0.2588
  101OSM   C13F10221   3.431   3.421   9.530 -0.7843  0.1297 -0.1190
  101OSM   H13F10222   3.465   3.523   9.502 -0.0981 -0.2089 -0.5371
  101OSM   H13G10223   3.320   3.413   9.535 -0.6805 -0.7093  3.6745
  101OSM   C14F10224   3.480   3.325   9.419  1.1765 -0.4334  0.0282
  101OSM   H14F10225   3.438   3.224   9.439 -0.6785  0.7770  2.7182
  101OSM   H14G10226   3.591   3.317   9.424  1.0923 -2.5863 -0.3975
  101OSM   C15F10227   3.442   3.379   9.273 -0.3707  0.3418 -0.2061
  101OSM   H15F10228   3.505   3.469   9.254  1.4998 -0.7587  0.6083
  101OSM   H15G10229   3.333   3.403   9.275 -0.2446  1.0839 -1.3985
  101OSM   C16F10230   3.468   3.276   9.160 -1.0573  0.0926  0.5820
  101OSM   H16F10231   3.434   3.175   9.193  0.3937 -1.0989 -1.3250
  101OSM   H16G10232   3.576   3.254   9.145 -1.4866 -1.0918 -1.1631
  101OSM   C17F10233   3.420   3.334   9.023 -0.0094 -0.1690  0.2999
  101OSM   H17F10234   3.455   3.439   9.013 -1.3607  0.1769 -1.3447
  101OSM   H17G10235   3.309   3.338   9.022 -0.0052  0.2332  1.0461
  101OSM   C18F10236   3.461   3.244   8.907 -0.0430 -0.1533 -0.2282
  101OSM   H18F10237   3.571   3.243   8.897 -0.0672  1.3027 -0.7876
  101OSM   H18G10238   3.418   3.292   8.817 -1.3144 -1.9835 -0.6656
  101OSM   H18H10239   3.421   3.142   8.925 -0.7204 -0.0370 -1.0231
  102OSM      N10240   0.119   0.325  10.881  0.2608  0.1393  0.1835
  102OSM    C1510241   0.063   0.458  10.914  0.4800 -0.1767  0.7582
  102OSM   H15A10242   0.136   0.530  10.947 -0.8516  1.2311  0.7476
  102OSM   H15B10243  -0.002   0.450  11.000 -1.3722 -2.9035 -0.7127
  102OSM   H15C10244   0.001   0.493  10.832  0.3190 -0.3335  0.8114
  102OSM    C1410245   0.236   0.345  10.782  0.2415  0.4409  0.4582
  102OSM   H14A10246   0.298   0.258  10.766  1.6257  1.3278  0.8081
  102OSM   H14B10247   0.309   0.420  10.810 -0.2019  1.2052 -0.4088
  102OSM   H14C10248   0.186   0.380  10.693  2.0672  1.4899 -0.2105
  102OSM    C1310249   0.173   0.269  11.004 -0.5956 -0.1073 -0.8149
  102OSM   H13A10250   0.196   0.167  10.976  2.8876  0.1853  0.5185
  102OSM   H13B10251   0.107   0.278  11.089 -1.1980  0.8205 -1.3564
  102OSM   H13C10252   0.269   0.313  11.027 -0.7704  0.9563 -2.0020
  102OSM    C1210253   0.021   0.222  10.823 -0.5573 -0.8281 -0.1803
  102OSM   H12A10254  -0.067   0.230  10.885 -1.6360  2.3409 -1.8695
  102OSM   H12B10255   0.064   0.126  10.846 -0.5341 -0.4787  1.3144
  102OSM    C1110256  -0.024   0.228  10.675 -0.2265  0.7165  0.3029
  102OSM   H11A10257  -0.092   0.144  10.651  0.7252  0.4472 -1.6602
  102OSM   H11B10258   0.066   0.199  10.617 -1.3757 -1.2234 -0.6137
  102OSM      P10259  -0.207   0.404  10.668 -0.1870  0.1295  0.1936
  102OSM    O1310260  -0.237   0.330  10.794 -0.3506 -0.4458  0.6503
  102OSM    O1410261  -0.212   0.550  10.667 -0.0724  0.2154 -0.0670
  102OSM    O1110262  -0.303   0.341  10.561  0.2900 -0.6900 -0.3454
  102OSM    O1210263  -0.067   0.359  10.609 -0.5954 -0.3801  0.4656
  102OSM    C1S10264  -0.323   0.409  10.436  0.2070  0.5762  0.3582
  102OSM    H1S10265  -0.280   0.511  10.433  1.6928 -0.0337 -2.1705
  102OSM    H1T10266  -0.431   0.419  10.410 -0.0045 -2.8461 -0.5153
  102OSM     NF10267  -0.304   0.397  10.195 -0.3566 -0.0702  0.5645
  102OSM    HNF10268  -0.387   0.351  10.162 -1.7213 -0.1707  3.7322
  102OSM    C2S10269  -0.264   0.334  10.317  0.4572  0.7015  0.3510
  102OSM    H2S10270  -0.154   0.329  10.330  0.5473  1.4224 -0.0804
  102OSM    C3S10271  -0.326   0.190  10.303 -1.1472  0.0882 -0.2246
  102OSM    H3S10272  -0.431   0.216  10.280 -1.0532  0.3642 -0.3470
  102OSM     O310273  -0.311   0.116  10.425  0.2427 -0.0046  0.1370
  102OSM    HO310274  -0.271   0.175  10.489 -2.4247  1.3585  0.6821
  102OSM    C4S10275  -0.262   0.112  10.196 -0.0299 -0.4164  0.3660
  102OSM    H4S10276  -0.152   0.119  10.202  0.0799 -1.2704 -0.3924
  102OSM    C5S10277  -0.324   0.040  10.101  0.2149  0.1246  0.3050
  102OSM    H5S10278  -0.433   0.032  10.106 -0.0775  2.2487 -1.4216
  102OSM    C6S10279  -0.256  -0.045   9.989  0.5376  0.3736  0.0979
  102OSM    H6S10280  -0.313  -0.017   9.898 -1.5697  1.4038  1.6414
  102OSM    H6T10281  -0.272  -0.154   9.996  1.2625  0.1098 -1.8227
  102OSM    C7S10282  -0.101  -0.014   9.977 -0.3619 -0.4975 -0.7369
  102OSM    H7S10283  -0.048  -0.040  10.071 -1.1552 -1.5902 -0.5634
  102OSM    H7T10284  -0.091   0.092   9.945 -1.6196 -0.5072 -1.2288
  102OSM    C8S10285  -0.032  -0.098   9.870 -0.1919 -0.2454  0.1284
  102OSM    H8S10286   0.069  -0.054   9.853  0.7084 -1.9193  0.8687
  102OSM    H8T10287  -0.089  -0.086   9.776 -2.3382 -0.7931  1.2900
  102OSM    C9S10288  -0.015  -0.249   9.887  0.0917  1.2125  0.2430
  102OSM    H9S10289  -0.112  -0.300   9.873  0.1669  1.6650 -2.5084
  102OSM    H9T10290   0.019  -0.264   9.992  0.0872 -1.1807 -0.0537
  102OSM   C10S10291   0.086  -0.319   9.789  0.5715 -0.4599 -0.7229
  102OSM   H10S10292   0.109  -0.423   9.820  1.4817  0.0060  0.1954
  102OSM   H10T10293   0.179  -0.259   9.796 -0.4990  1.1798  0.3753
  102OSM   C11S10294   0.031  -0.320   9.646 -0.6676 -0.1433 -0.4816
  102OSM   H11S10295   0.012  -0.213   9.622 -0.7638 -0.1525 -0.4473
  102OSM   H11T10296  -0.068  -0.370   9.648 -0.0473 -1.4273 -1.1569
  102OSM   C12S10297   0.124  -0.382   9.545 -0.0807  0.0630 -0.2290
  102OSM   H12S10298   0.137  -0.492   9.557  0.9614  0.1781 -0.2076
  102OSM   H12T10299   0.223  -0.335   9.564  0.9204 -1.5444 -1.2215
  102OSM   C13S10300   0.109  -0.346   9.396  0.4259  0.5164  0.0158
  102OSM   H13S10301   0.127  -0.238   9.379  0.0341  0.3542 -1.5299
  102OSM   H13T10302   0.003  -0.375   9.381  0.0068  1.9591  0.0470
  102OSM   C14S10303   0.198  -0.419   9.297  0.0683 -0.6600 -0.2313
  102OSM   H14S10304   0.178  -0.528   9.311  2.4392 -1.1771 -0.3696
  102OSM   H14T10305   0.303  -0.412   9.333  0.8988  0.4428 -2.6283
  102OSM   C15S10306   0.201  -0.357   9.154 -0.4826  0.2851  0.4191
  102OSM   H15S10307   0.272  -0.411   9.087 -0.0708  3.0511 -1.5505
  102OSM   H15T10308   0.230  -0.250   9.160 -2.6713  0.9058  0.4777
  102OSM   C16S10309   0.070  -0.361   9.081  0.3630 -0.5293  0.2936
  102OSM   H16S10310  -0.008  -0.303   9.135 -2.2409 -1.7485 -1.9407
  102OSM   H16T10311   0.034  -0.466   9.082  2.2251 -1.2082  1.0675
  102OSM   C17S10312   0.075  -0.299   8.935  0.3908  0.0359 -0.5050
  102OSM   H17S10313   0.113  -0.195   8.941  0.8348  0.0316 -2.5044
  102OSM   H17T10314  -0.032  -0.279   8.916 -0.4469 -1.4313  2.1600
  102OSM   C18S10315   0.153  -0.377   8.830 -0.6089 -0.2207 -0.0111
  102OSM   H18S10316   0.257  -0.403   8.859 -0.1144  1.1601 -0.4442
  102OSM   H18T10317   0.155  -0.321   8.734 -1.7434  2.2712  1.3092
  102OSM   H18U10318   0.093  -0.468   8.809  1.2594 -0.8890 -2.9612
  102OSM    C1F10319  -0.262   0.514  10.149 -0.2097  0.4159  0.6326
  102OSM     OF10320  -0.168   0.568  10.200 -0.4611 -0.6343 -0.4482
  102OSM    C2F10321  -0.329   0.578  10.040  0.3369 -0.1158  0.7636
  102OSM    H2F10322  -0.433   0.600  10.073  0.9221 -0.1150  2.7655
  102OSM    H2G10323  -0.321   0.514   9.949  1.1542 -0.3900  1.0261
  102OSM    C3F10324  -0.264   0.713  10.004  0.3946 -0.0173  0.0373
  102OSM    H3F10325  -0.154   0.708   9.994  0.2634 -0.9471 -1.0419
  102OSM    H3G10326  -0.289   0.782  10.088  1.4519  0.5420 -0.0875
  102OSM    C4F10327  -0.329   0.774   9.874  0.1503 -0.0553 -0.6628
  102OSM    H4F10328  -0.412   0.711   9.838  0.5588 -0.1889 -1.3935
  102OSM    H4G10329  -0.255   0.785   9.791  0.1432  3.6123 -0.3638
  102OSM    C5F10330  -0.386   0.916   9.883 -0.1591 -0.8643  0.0838
  102OSM    H5F10331  -0.302   0.989   9.883 -0.7839 -0.1290  0.0957
  102OSM    H5G10332  -0.450   0.919   9.975  0.3855 -1.9951  0.5157
  102OSM    C6F10333  -0.469   0.954   9.756 -0.5509 -0.3681 -0.1673
  102OSM    H6F10334  -0.509   1.055   9.782  0.1259  0.0743 -0.8117
  102OSM    H6G10335  -0.557   0.893   9.726 -1.6410  0.7853  0.5666
  102OSM    C7F10336  -0.377   0.968   9.626  0.6320 -0.1498  0.0658
  102OSM    H7F10337  -0.348   0.863   9.606  1.1522  0.1260 -0.6555
  102OSM    H7G10338  -0.293   1.030   9.664 -0.5356  1.8701 -0.4591
  102OSM    C8F10339  -0.448   1.025   9.499  0.4330 -0.6615  0.8527
  102OSM    H8F10340  -0.386   1.051   9.410  0.3464 -0.2571  0.9086
  102OSM    H8G10341  -0.500   1.120   9.525  1.2947 -0.4294  1.8092
  102OSM    C9F10342  -0.558   0.937   9.451 -0.4315  0.1801 -0.3007
  102OSM    H9F10343  -0.627   0.912   9.533  0.6084 -0.6525  0.3457
  102OSM   C10F10344  -0.578   0.899   9.321 -0.0035 -0.5011 -0.0049
  102OSM   H10F10345  -0.676   0.850   9.305 -0.4489  0.0534  0.9749
  102OSM   C11F10346  -0.500   0.937   9.195 -0.4573  0.6093 -0.0193
  102OSM   H11F10347  -0.482   1.047   9.194 -1.2287  0.8177  2.2625
  102OSM   H11G10348  -0.560   0.915   9.104  0.3232 -1.6960 -0.0328
  102OSM   C12F10349  -0.374   0.846   9.180 -0.1260 -0.4345 -0.5675
  102OSM   H12F10350  -0.313   0.847   9.273 -2.2994  1.8870  0.9900
  102OSM   H12G10351  -0.310   0.896   9.103  1.3309  0.4412  1.1341
  102OSM   C13F10352  -0.412   0.696   9.165  0.7384  0.3575 -0.1849
  102OSM   H13F10353  -0.506   0.691   9.105 -1.8703 -1.0321  3.5882
  102OSM   H13G10354  -0.438   0.658   9.266  1.1477 -0.6388 -0.4410
  102OSM   C14F10355  -0.300   0.615   9.099 -0.1702  0.4725 -1.0645
  102OSM   H14F10356  -0.211   0.638   9.161  0.2949 -1.1297 -1.0832
  102OSM   H14G10357  -0.290   0.662   8.999  0.2642  1.8593 -0.3928
  102OSM   C15F10358  -0.325   0.462   9.112 -0.2790 -0.3005 -0.2974
  102OSM   H15F10359  -0.268   0.441   9.205 -1.2888 -0.4153  0.3098
  102OSM   H15G10360  -0.264   0.418   9.030 -0.1814 -1.4494  0.3758
  102OSM   C16F10361  -0.467   0.411   9.107  0.0922 -0.4594 -0.3314
  102OSM   H16F10362  -0.528   0.456   9.026  1.4372 -2.0958 -2.3762
  102OSM   H16G10363  -0.515   0.423   9.206 -2.0158 -1.4532 -1.1822
  102OSM   C17F10364  -0.480   0.256   9.085 -0.8471 -0.1152 -0.6494
  102OSM   H17F10365  -0.458   0.231   8.979 -1.1661 -0.8407 -0.5553
  102OSM   H17G10366  -0.582   0.229   9.120 -0.4495 -0.6884  0.1046
  102OSM   C18F10367  -0.401   0.160   9.173 -0.8742 -0.4009 -0.4412
  102OSM   H18F10368  -0.421   0.174   9.282 -0.1900 -1.3994 -0.1779
  102OSM   H18G10369  -0.291   0.167   9.160 -0.1124 -1.4747  3.8005
  102OSM   H18H10370  -0.427   0.055   9.151  0.0285 -0.7066 -0.0936
  103OSM      N10371   4.843   3.529  10.705  1.0878  0.4004  1.5958
  103OSM    C1510372   4.831   3.674  10.669 -0.4379 -0.1303 -0.2363
  103OSM   H15A10373   4.747   3.715  10.723  1.3157 -0.0176  2.6043
  103OSM   H15B10374   4.808   3.690  10.564 -0.8694 -1.7042 -0.4186
  103OSM   H15C10375   4.916   3.736  10.693 -0.8645  0.5711 -0.4971
  103OSM    C1410376   4.949   3.463  10.619  0.7442 -0.3573 -0.0015
  103OSM   H14A10377   4.922   3.359  10.634  2.1433 -0.8159 -0.5168
  103OSM   H14B10378   5.049   3.466  10.662 -0.5490 -1.4348  3.4636
  103OSM   H14C10379   4.955   3.494  10.516  1.7200 -1.9936 -0.4888
  103OSM    C1310380   4.879   3.504  10.846 -0.7042  0.3474  0.0248
  103OSM   H13A10381   4.797   3.534  10.910 -0.4633  0.5069  0.2627
  103OSM   H13B10382   4.970   3.556  10.874 -0.8274  0.8441 -0.4769
  103OSM   H13C10383   4.896   3.398  10.858 -0.3767  0.4968  0.9594
  103OSM    C1210384   4.705   3.469  10.661  0.5267  0.5556  0.4940
  103OSM   H12A10385   4.696   3.367  10.693 -1.0611  0.3490 -0.5127
  103OSM   H12B10386   4.699   3.475  10.553 -1.9191  1.5800  0.6400
  103OSM    C1110387   4.572   3.519  10.716 -0.2555  0.0873  0.2744
  103OSM   H11A10388   4.491   3.492  10.646 -0.6350  2.1641 -0.1597
  103OSM   H11B10389   4.573   3.630  10.719 -1.4251  0.1800 -1.2504
  103OSM      P10390   4.516   3.332  10.917  0.5684 -0.2495  0.0223
  103OSM    O1310391   4.596   3.300  11.037  0.4449  0.5043  0.1769
  103OSM    O1410392   4.369   3.315  10.936 -0.3094 -0.3822 -0.2522
  103OSM    O1110393   4.566   3.233  10.803  0.2589  0.1422  0.0119
  103OSM    O1210394   4.553   3.481  10.849  0.0735  0.3854  0.1908
  103OSM    C1S10395   4.535   3.091  10.801 -0.2060  0.0993 -0.0755
  103OSM    H1S10396   4.426   3.089  10.825 -0.0259  2.4402  1.2476
  103OSM    H1T10397   4.593   3.044  10.883 -1.0598  0.3781  0.7075
  103OSM     NF10398   4.481   2.899  10.641  0.2065  0.0404 -0.2594
  103OSM    HNF10399   4.534   2.816  10.655  0.1675 -0.2966 -1.9190
  103OSM    C2S10400   4.550   3.024  10.655 -0.0862 -0.1520 -0.6008
  103OSM    H2S10401   4.517   3.103  10.584 -2.0999 -0.5060 -0.1329
  103OSM    C3S10402   4.700   3.006  10.621 -0.0953 -0.1390  0.1792
  103OSM    H3S10403   4.729   2.926  10.692 -2.4482 -0.3045  1.0090
  103OSM     O310404   4.788   3.122  10.645 -0.0978  0.0716  0.1722
  103OSM    HO310405   4.729   3.187  10.685  0.6865  0.9185 -0.0062
  103OSM    C4S10406   4.714   2.952  10.475  0.1935  0.0985  1.1251
  103OSM    H4S10407   4.647   3.002  10.403 -1.0029 -0.2223  1.9863
  103OSM    C5S10408   4.794   2.846  10.441 -0.4995 -0.4464  0.7647
  103OSM    H5S10409   4.857   2.795  10.515  0.1682 -0.4435  0.2092
  103OSM    C6S10410   4.803   2.784  10.306  0.3467  0.3502  0.6934
  103OSM    H6S10411   4.791   2.673  10.309  1.0292  0.2347 -0.2379
  103OSM    H6T10412   4.905   2.799  10.264 -0.1809  0.5140 -0.5746
  103OSM    C7S10413   4.702   2.830  10.192  0.7035 -0.3433 -0.2049
  103OSM    H7S10414   4.729   2.933  10.162 -0.5608  0.5205  1.4682
  103OSM    H7T10415   4.597   2.825  10.227  0.9926  2.4798  1.3143
  103OSM    C8S10416   4.711   2.745  10.066 -0.0301  0.3023 -0.2645
  103OSM    H8S10417   4.690   2.640  10.097  1.2271  0.6014  1.7906
  103OSM    H8T10418   4.819   2.746  10.038  0.8756 -1.1800  2.7835
  103OSM    C9S10419   4.624   2.794   9.951  0.2067  0.0727  0.6129
  103OSM    H9S10420   4.656   2.894   9.915 -0.1142 -0.8918 -2.6882
  103OSM    H9T10421   4.528   2.806  10.005  0.9599 -2.2089  2.6184
  103OSM   C10S10422   4.621   2.697   9.833 -0.6294  0.2284  0.3098
  103OSM   H10S10423   4.542   2.620   9.848 -1.0094  1.1185  3.9337
  103OSM   H10T10424   4.721   2.652   9.813 -1.1631 -0.4584 -0.9229
  103OSM   C11S10425   4.590   2.772   9.700  0.3930 -0.5255 -0.1634
  103OSM   H11S10426   4.653   2.860   9.675 -0.3010 -0.4931 -1.9872
  103OSM   H11T10427   4.481   2.795   9.702  0.0413 -1.6198 -2.4793
  103OSM   C12S10428   4.612   2.676   9.585  0.3331  0.4110 -0.5470
  103OSM   H12S10429   4.519   2.616   9.578 -0.3419  0.9779  2.2576
  103OSM   H12T10430   4.697   2.606   9.592 -1.2545 -1.4234  1.7428
  103OSM   C13S10431   4.620   2.752   9.447 -0.2986  0.0933 -0.7611
  103OSM   H13S10432   4.714   2.812   9.443 -0.5464  0.6489  0.7909
  103OSM   H13T10433   4.541   2.829   9.459 -2.1660 -2.0949  2.1442
  103OSM   C14S10434   4.596   2.658   9.335 -0.0490 -0.0652 -0.4910
  103OSM   H14S10435   4.488   2.635   9.345 -0.4384  1.6605 -0.3575
  103OSM   H14T10436   4.651   2.565   9.362  1.5542  0.9506 -0.0846
  103OSM   C15S10437   4.642   2.705   9.197  0.0137 -0.4014 -0.1273
  103OSM   H15S10438   4.751   2.719   9.212 -0.0505 -0.6522  0.5948
  103OSM   H15T10439   4.596   2.796   9.154 -0.5773 -1.1001 -1.0031
  103OSM   C16S10440   4.620   2.602   9.082  0.1384  0.1057 -0.3707
  103OSM   H16S10441   4.511   2.608   9.062  0.3670  1.7546 -1.3466
  103OSM   H16T10442   4.643   2.499   9.118  1.3544 -0.5324 -2.7454
  103OSM   C17S10443   4.690   2.635   8.944  0.5543  0.7533  0.4317
  103OSM   H17S10444   4.801   2.623   8.951  0.9395  1.2634 -2.8760
  103OSM   H17T10445   4.664   2.737   8.907 -1.9633 -0.4695 -1.5115
  103OSM   C18S10446   4.647   2.545   8.832 -0.5420  0.0248  0.9441
  103OSM   H18S10447   4.546   2.582   8.803 -0.5926 -1.5629 -1.1396
  103OSM   H18T10448   4.640   2.438   8.862 -3.4975 -0.4018 -0.8340
  103OSM   H18U10449   4.715   2.562   8.747  0.0044  2.0164  1.7351
  103OSM    C1F10450   4.348   2.889  10.638 -0.5981 -0.6981  1.2223
  103OSM     OF10451   4.271   2.986  10.642  0.5396  0.4039 -0.4061
  103OSM    C2F10452   4.284   2.749  10.616 -0.4508 -0.1815  0.4157
  103OSM    H2F10453   4.278   2.700  10.715  2.5809 -0.5895  0.4969
  103OSM    H2G10454   4.354   2.693  10.550 -2.3118 -2.9383  0.6337
  103OSM    C3F10455   4.150   2.752  10.534 -0.0579 -0.0120  0.3309
  103OSM    H3F10456   4.078   2.827  10.574  0.3860  0.0654  1.0028
  103OSM    H3G10457   4.104   2.653  10.553  0.9400 -0.8826 -1.5628
  103OSM    C4F10458   4.152   2.777  10.383 -0.5724 -0.0363  0.2308
  103OSM    H4F10459   4.183   2.884  10.374  0.5749 -0.2911  0.9607
  103OSM    H4G10460   4.048   2.776  10.346 -0.6883  0.1622  0.5360
  103OSM    C5F10461   4.253   2.687  10.307  0.6108 -0.5718  0.1470
  103OSM    H5F10462   4.239   2.580  10.332 -0.2442 -0.0790  1.9280
  103OSM    H5G10463   4.348   2.722  10.354 -0.8343  0.0766  2.7955
  103OSM    C6F10464   4.251   2.714  10.155  0.7529  0.3246 -0.6511
  103OSM    H6F10465   4.328   2.653  10.103  0.6311 -1.0407  0.7057
  103OSM    H6G10466   4.274   2.821  10.136 -0.7813  0.9955  0.9836
  103OSM    C7F10467   4.123   2.680  10.082 -0.2375  0.1974 -0.1333
  103OSM    H7F10468   4.037   2.729  10.133 -0.2400 -0.5279  0.5848
  103OSM    H7G10469   4.111   2.570  10.079 -0.0248  0.1729 -0.0911
  103OSM    C8F10470   4.123   2.734   9.936  0.7792  0.0568  0.4513
  103OSM    H8F10471   4.207   2.712   9.867 -0.6608  3.8355 -2.9396
  103OSM    H8G10472   4.126   2.845   9.938  1.6444  0.1396 -1.9639
  103OSM    C9F10473   3.987   2.701   9.875  0.2128  0.1513  0.1073
  103OSM    H9F10474   3.907   2.701   9.950  0.6091 -1.9290  0.5836
  103OSM   C10F10475   3.964   2.697   9.746  0.4987  0.4334  0.2069
  103OSM   H10F10476   3.865   2.670   9.706 -0.2488  0.7365  1.7728
  103OSM   C11F10477   4.076   2.717   9.644 -0.1128  0.4544 -0.2826
  103OSM   H11F10478   4.162   2.776   9.681 -0.1268 -0.1776  0.7981
  103OSM   H11G10479   4.048   2.771   9.551 -1.2503  0.9715  0.3327
  103OSM   C12F10480   4.143   2.590   9.597 -0.0564  0.4882  0.2569
  103OSM   H12F10481   4.063   2.518   9.570  1.1857 -0.7658 -0.1647
  103OSM   H12G10482   4.205   2.533   9.669  1.1801  0.2146 -1.0056
  103OSM   C13F10483   4.214   2.589   9.466 -0.3798  0.2586 -0.0078
  103OSM   H13F10484   4.257   2.487   9.456 -1.6879 -0.4887  1.4256
  103OSM   H13G10485   4.295   2.664   9.477  0.1058  0.0882 -2.0354
  103OSM   C14F10486   4.129   2.614   9.337  0.0622 -0.0124  0.5639
  103OSM   H14F10487   4.092   2.719   9.333  1.3348  0.4494  0.7288
  103OSM   H14G10488   4.047   2.542   9.316 -1.7349  2.3841 -1.3650
  103OSM   C15F10489   4.216   2.588   9.208 -0.2079 -0.4986  0.4173
  103OSM   H15F10490   4.255   2.484   9.204 -1.0837 -0.9807  2.7749
  103OSM   H15G10491   4.300   2.661   9.203  0.0959 -0.9219 -1.1133
  103OSM   C16F10492   4.126   2.597   9.082  0.5063 -0.4250 -0.6934
  103OSM   H16F10493   4.084   2.700   9.090  2.3705  0.2603  1.2601
  103OSM   H16G10494   4.040   2.530   9.104  0.7721 -0.2062  1.1459
  103OSM   C17F10495   4.186   2.565   8.946 -0.0121  0.0285 -0.2126
  103OSM   H17F10496   4.208   2.456   8.938  1.2167  0.1059  1.5271
  103OSM   H17G10497   4.278   2.624   8.928 -1.2370  1.6448 -1.4380
  103OSM   C18F10498   4.106   2.612   8.823  0.0773  1.4064 -0.7544
  103OSM   H18F10499   4.128   2.718   8.796 -2.5109  2.3904  0.6658
  103OSM   H18G10500   3.997   2.598   8.840 -0.3109  0.6422 -3.3901
  103OSM   H18H10501   4.132   2.550   8.734 -1.2367 -0.5237  0.1465
  104OSM      N10502   0.536   1.799  11.094  0.2749  0.0767  0.1688
  104OSM    C1510503   0.648   1.876  11.147  0.0197 -0.1211 -0.7160
  104OSM   H15A10504   0.677   1.954  11.078  3.0107  0.4820  1.0664
  104OSM   H15B10505   0.736   1.813  11.152 -2.0183 -3.0443  1.4328
  104OSM   H15C10506   0.634   1.923  11.243  0.0161  2.0089 -1.6957
  104OSM    C1410507   0.509   1.669  11.170  0.5876 -0.2796  0.6026
  104OSM   H14A10508   0.593   1.602  11.178  1.3312 -0.0176 -3.1622
  104OSM   H14B10509   0.431   1.614  11.120  0.2211  0.0885  0.7654
  104OSM   H14C10510   0.475   1.688  11.271 -0.4609  0.1493  0.1824
  104OSM    C1310511   0.405   1.883  11.105  0.6632  0.6922 -0.5704
  104OSM   H13A10512   0.407   1.937  11.199  1.2749 -1.1403  0.5202
  104OSM   H13B10513   0.318   1.826  11.077  0.6647  0.0843  0.5957
  104OSM   H13C10514   0.406   1.961  11.030  0.8346  1.1402 -0.1091
  104OSM    C1210515   0.570   1.760  10.945  0.6459 -0.6376 -1.0668
  104OSM   H12A10516   0.496   1.687  10.916  0.4038 -1.7453  1.9567
  104OSM   H12B10517   0.667   1.712  10.943  0.6325 -0.6449 -1.5735
  104OSM    C1110518   0.577   1.877  10.841 -1.1329 -0.3453 -0.3837
  104OSM   H11A10519   0.491   1.947  10.847 -0.4940  0.4699 -0.5923
  104OSM   H11B10520   0.578   1.832  10.740  0.7520  0.6570 -0.8555
  104OSM      P10521   0.829   1.910  10.824 -0.5384  0.0941 -0.0296
  104OSM    O1310522   0.923   2.016  10.871 -0.0054  0.3810  0.9091
  104OSM    O1410523   0.854   1.772  10.874 -0.0677 -0.0997  0.0029
  104OSM    O1110524   0.832   1.918  10.665 -0.5931  0.2717  0.2022
  104OSM    O1210525   0.688   1.959  10.868  0.2548  0.1577  0.3237
  104OSM    C1S10526   0.757   2.015  10.596 -0.4598 -0.5246  0.8563
  104OSM    H1S10527   0.801   2.117  10.601  1.2367 -1.1606 -0.1497
  104OSM    H1T10528   0.655   2.017  10.639 -0.4328 -2.8829  1.1456
  104OSM     NF10529   0.679   2.086  10.378 -0.0222  1.1047  0.3671
  104OSM    HNF10530   0.580   2.082  10.369  0.0258  1.9701 -0.8492
  104OSM    C2S10531   0.756   1.982  10.446  0.1453 -0.2143  0.1143
  104OSM    H2S10532   0.854   1.980  10.395 -0.2594  0.1878 -0.7034
  104OSM    C3S10533   0.693   1.838  10.431  0.0759 -0.8450  0.0694
  104OSM    H3S10534   0.589   1.845  10.470 -0.2807  0.7166 -1.0815
  104OSM     O310535   0.754   1.733  10.508 -0.2619 -0.5031 -0.2036
  104OSM    HO310536   0.806   1.787  10.568 -0.7062 -1.4729  1.0953
  104OSM    C4S10537   0.692   1.793  10.285  0.6121 -0.4542 -0.1030
  104OSM    H4S10538   0.620   1.848  10.223  1.3670  0.7007 -0.0013
  104OSM    C5S10539   0.782   1.720  10.220  0.0047  0.2754  0.0114
  104OSM    H5S10540   0.878   1.689  10.265  0.3602 -0.0983 -0.9796
  104OSM    C6S10541   0.773   1.691  10.072  0.2795  0.0060  0.0466
  104OSM    H6S10542   0.783   1.580  10.063 -1.3167 -0.1724  0.2435
  104OSM    H6T10543   0.861   1.739  10.023 -0.4158  1.0449 -0.2195
  104OSM    C7S10544   0.646   1.747  10.007 -0.5623  0.2369 -0.0719
  104OSM    H7S10545   0.662   1.857  10.011 -1.5967  0.3958 -0.2321
  104OSM    H7T10546   0.548   1.740  10.058 -1.3571  1.9479 -1.2736
  104OSM    C8S10547   0.637   1.695   9.864 -0.2866  0.2237 -0.4753
  104OSM    H8S10548   0.552   1.746   9.814  0.3865  2.0407  0.1201
  104OSM    H8T10549   0.608   1.588   9.859  1.5369 -0.2869 -0.7070
  104OSM    C9S10550   0.770   1.708   9.786 -0.3317 -0.2353  0.3733
  104OSM    H9S10551   0.842   1.636   9.830 -1.3512  0.2878  3.1284
  104OSM    H9T10552   0.804   1.812   9.806  2.7302 -0.7790 -1.3483
  104OSM   C10S10553   0.754   1.678   9.640  0.0407  0.7441 -0.1774
  104OSM   H10S10554   0.825   1.719   9.566  0.2880 -0.4905 -0.6568
  104OSM   H10T10555   0.654   1.714   9.607 -0.4018 -1.0981 -0.9746
  104OSM   C11S10556   0.758   1.526   9.607 -0.4179  0.3169  0.0079
  104OSM   H11S10557   0.665   1.470   9.629  0.1525 -0.3963  0.6667
  104OSM   H11T10558   0.839   1.481   9.669  0.3858  0.4210 -0.9451
  104OSM   C12S10559   0.788   1.492   9.465 -0.4945 -0.0509 -0.3991
  104OSM   H12S10560   0.796   1.382   9.454 -1.6357 -0.1281 -0.6040
  104OSM   H12T10561   0.889   1.533   9.443 -0.9956  2.1331  1.0357
  104OSM   C13S10562   0.688   1.551   9.365 -0.2174 -0.1654  0.2861
  104OSM   H13S10563   0.708   1.660   9.356  0.5314 -0.2184  1.0685
  104OSM   H13T10564   0.584   1.529   9.396  0.5273 -2.0235  1.7036
  104OSM   C14S10565   0.724   1.497   9.225 -0.1178  0.1822 -0.2493
  104OSM   H14S10566   0.687   1.393   9.216 -1.9882  0.8064 -0.2278
  104OSM   H14T10567   0.833   1.500   9.208 -0.3248 -0.7120 -1.8913
  104OSM   C15S10568   0.644   1.575   9.117  0.5885  0.0006  0.2949
  104OSM   H15S10569   0.668   1.683   9.129  1.4534  0.2409 -2.5777
  104OSM   H15T10570   0.537   1.567   9.145  0.3864 -0.0253 -0.4417
  104OSM   C16S10571   0.654   1.543   8.973 -0.2294 -0.1855 -0.4083
  104OSM   H16S10572   0.631   1.434   8.966 -1.1980 -0.0503  0.5009
  104OSM   H16T10573   0.762   1.538   8.947 -0.1545 -1.3458  0.0886
  104OSM   C17S10574   0.575   1.626   8.868  0.3192 -0.8080 -0.0988
  104OSM   H17S10575   0.469   1.625   8.899  0.6885  2.3423  1.7366
  104OSM   H17T10576   0.581   1.573   8.770 -1.3233  0.9413 -1.2118
  104OSM   C18S10577   0.624   1.768   8.834 -0.0830 -0.3144 -0.4758
  104OSM   H18S10578   0.724   1.764   8.785 -0.0582  0.2056 -0.4703
  104OSM   H18T10579   0.634   1.838   8.920 -0.3622 -0.2297 -0.5121
  104OSM   H18U10580   0.558   1.818   8.760 -1.0755 -1.4291 -0.3666
  104OSM    C1F10581   0.733   2.204  10.355  0.7847  0.3110  0.4270
  104OSM     OF10582   0.836   2.230  10.408  0.5538  0.2706 -0.2678
  104OSM    C2F10583   0.655   2.306  10.267 -0.4171 -0.1006  0.4423
  104OSM    H2F10584   0.629   2.402  10.316  1.3831  0.2942  0.6914
  104OSM    H2G10585   0.555   2.262  10.250  0.4821 -2.5011  0.9788
  104OSM    C3F10586   0.740   2.331  10.140  0.7723  0.0389  0.0214
  104OSM    H3F10587   0.817   2.405  10.169 -0.0972  2.0085 -2.3023
  104OSM    H3G10588   0.678   2.393  10.071 -0.8939 -0.9033  0.6024
  104OSM    C4F10589   0.797   2.208  10.074  0.5826 -0.0548  0.7829
  104OSM    H4F10590   0.714   2.135  10.064 -0.6983  1.6187 -1.9032
  104OSM    H4G10591   0.870   2.161  10.143  0.2893 -0.7854  0.6064
  104OSM    C5F10592   0.846   2.246   9.938  0.6422 -0.3925 -0.8273
  104OSM    H5F10593   0.896   2.346   9.942  0.3918 -0.2940  0.3293
  104OSM    H5G10594   0.767   2.257   9.861  2.2352  3.5995 -2.1454
  104OSM    C6F10595   0.947   2.137   9.886  0.2960 -0.2128 -0.2904
  104OSM    H6F10596   0.891   2.041   9.893  2.0623 -1.1856  1.7429
  104OSM    H6G10597   1.032   2.134   9.957 -0.6021 -0.7883  0.7925
  104OSM    C7F10598   1.011   2.153   9.749 -0.3990 -0.1129  0.4507
  104OSM    H7F10599   1.073   2.062   9.735 -0.4583 -0.0199 -0.4760
  104OSM    H7G10600   1.068   2.248   9.746 -1.2415  0.3775 -0.7995
  104OSM    C8F10601   0.912   2.155   9.630  0.4263  0.2023 -0.1828
  104OSM    H8F10602   0.828   2.226   9.644 -0.8362 -0.9232 -1.7261
  104OSM    H8G10603   0.861   2.058   9.620 -1.0848  0.9935 -0.3656
  104OSM    C9F10604   0.990   2.203   9.504  0.7867 -0.3595  0.0568
  104OSM    H9F10605   0.981   2.309   9.479  0.0582  0.4011  3.1665
  104OSM   C10F10606   1.065   2.127   9.427 -0.6089  0.2655  0.2507
  104OSM   H10F10607   1.116   2.178   9.344  1.6086  0.6493  1.7420
  104OSM   C11F10608   1.086   1.974   9.447 -0.2012  0.3239  0.0256
  104OSM   H11F10609   1.045   1.945   9.546  0.8860 -0.3273  0.3004
  104OSM   H11G10610   1.193   1.946   9.460  0.2196  1.7486 -0.1815
  104OSM   C12F10611   1.006   1.890   9.347  0.7327 -0.2538 -0.0282
  104OSM   H12F10612   0.907   1.939   9.333 -1.0733 -3.3334  1.0079
  104OSM   H12G10613   0.973   1.806   9.410  0.3107 -0.0718 -0.0034
  104OSM   C13F10614   1.076   1.854   9.215  0.3774 -0.5280 -0.5379
  104OSM   H13F10615   1.162   1.796   9.256 -0.3424 -0.1189  1.6592
  104OSM   H13G10616   1.123   1.945   9.172  1.3282  0.2631  1.9995
  104OSM   C14F10617   0.987   1.796   9.114 -0.4088 -0.2847  0.2976
  104OSM   H14F10618   0.908   1.871   9.091  0.9639  1.3833  0.8260
  104OSM   H14G10619   0.950   1.697   9.150 -0.8020 -0.4036 -0.4118
  104OSM   C15F10620   1.063   1.766   8.974  0.1593 -0.1163 -0.1865
  104OSM   H15F10621   0.994   1.694   8.927 -2.7109  0.7536  2.3789
  104OSM   H15G10622   1.156   1.715   9.008 -1.4522 -2.0502  1.6046
  104OSM   C16F10623   1.081   1.889   8.882  0.5930  0.2755  0.8119
  104OSM   H16F10624   1.118   1.974   8.943  2.4798  2.3322 -2.8131
  104OSM   H16G10625   0.983   1.910   8.834  0.7521 -0.2682  0.2191
  104OSM   C17F10626   1.189   1.866   8.775  0.3501  0.7211  0.1977
  104OSM   H17F10627   1.159   1.766   8.736 -0.4285  0.9229  0.2495
  104OSM   H17G10628   1.292   1.874   8.816  0.5182  1.9480 -0.4044
  104OSM   C18F10629   1.192   1.972   8.665 -0.0460  0.1226 -0.0097
  104OSM   H18F10630   1.231   1.930   8.569  0.2977  1.6366 -0.5556
  104OSM   H18G10631   1.248   2.062   8.698 -3.0343  1.7249  1.0627
  104OSM   H18H10632   1.090   2.007   8.640  0.4362  0.4410 -1.6969
  105OSM      N10633   3.478   6.232  11.140  0.4633  0.0980  0.1175
  105OSM    C1510634   3.510   6.378  11.167 -0.3178  0.1565 -0.1243
  105OSM   H15A10635   3.606   6.387  11.215 -1.1180  0.2675  1.5499
  105OSM   H15B10636   3.433   6.428  11.225 -0.3861  0.0216 -0.0988
  105OSM   H15C10637   3.530   6.436  11.078  2.2652 -0.9188 -0.3261
  105OSM    C1410638   3.574   6.178  11.040  0.1207 -0.7473 -0.3316
  105OSM   H14A10639   3.676   6.180  11.074 -0.2022 -0.5714  0.6734
  105OSM   H14B10640   3.561   6.234  10.949  1.9538  1.5743  0.7289
  105OSM   H14C10641   3.538   6.077  11.031 -0.3405 -0.5211 -1.1403
  105OSM    C1310642   3.482   6.161  11.271  0.2314 -0.1615 -0.1422
  105OSM   H13A10643   3.469   6.054  11.257 -0.7186  0.0501 -1.0773
  105OSM   H13B10644   3.409   6.196  11.342  0.3172  0.7440 -0.4804
  105OSM   H13C10645   3.575   6.185  11.319  0.0420 -1.5096  0.9629
  105OSM    C1210646   3.336   6.233  11.082  0.3091 -0.2717  0.6506
  105OSM   H12A10647   3.332   6.281  10.985 -0.0846  0.0539  0.8239
  105OSM   H12B10648   3.261   6.289  11.137  0.3162  0.6333 -0.2285
  105OSM    C1110649   3.285   6.093  11.035  0.9077 -0.2476 -0.5055
  105OSM   H11A10650   3.174   6.090  11.037  0.8677  0.7723 -0.6765
  105OSM   H11B10651   3.306   6.023  11.119 -0.4824  1.2375  1.1547
  105OSM      P10652   3.386   5.907  10.881 -0.1010  0.0976 -0.4334
  105OSM    O1310653   3.534   5.918  10.888 -0.0449 -0.3437 -0.4957
  105OSM    O1410654   3.321   5.801  10.959  0.1728  0.0450  0.0974
  105OSM    O1110655   3.355   5.894  10.728 -0.6305 -0.3822  0.7361
  105OSM    O1210656   3.329   6.054  10.910 -0.3150 -0.2166  0.6836
  105OSM    C1S10657   3.369   6.007  10.640 -0.5309 -0.4878 -0.4334
  105OSM    H1S10658   3.475   6.039  10.638 -0.4605 -0.6962 -0.1249
  105OSM    H1T10659   3.300   6.087  10.677 -0.0092 -0.7685  1.2441
  105OSM     NF10660   3.368   6.082  10.404 -0.4903  0.2437 -0.3907
  105OSM    HNF10661   3.305   6.145  10.358 -0.5980  1.8143  1.7771
  105OSM    C2S10662   3.325   5.972  10.491 -0.5784  0.5171  0.7815
  105OSM    H2S10663   3.381   5.882  10.458  0.0697  0.6233  1.5507
  105OSM    C3S10664   3.173   5.932  10.475 -0.7927  0.3771 -0.4493
  105OSM    H3S10665   3.107   6.013  10.514 -1.3120  0.5757 -1.7006
  105OSM     O310666   3.141   5.820  10.561  0.6044 -0.5840 -0.5746
  105OSM    HO310667   3.216   5.821  10.621  1.3492 -0.4056 -1.4833
  105OSM    C4S10668   3.136   5.909  10.334 -0.2538  0.4025  0.1154
  105OSM    H4S10669   3.122   6.007  10.285 -0.2694  0.4111  0.1373
  105OSM    C5S10670   3.110   5.795  10.264  0.0298 -0.0236 -0.9534
  105OSM    H5S10671   3.117   5.697  10.313  0.8050  0.4052 -0.1784
  105OSM    C6S10672   3.068   5.794  10.120 -0.3548  0.2533  0.1000
  105OSM    H6S10673   2.970   5.741  10.112 -0.8758  1.0590  0.9413
  105OSM    H6T10674   3.132   5.727  10.059 -1.0064 -0.3231  0.0335
  105OSM    C7S10675   3.055   5.934  10.048  0.3209  0.2682 -0.7838
  105OSM    H7S10676   3.152   5.986  10.059  1.3734 -1.5579 -1.0265
  105OSM    H7T10677   2.978   5.988  10.107 -0.1690 -0.7163 -0.4939
  105OSM    C8S10678   3.011   5.929   9.902  0.0984  0.2346 -0.8170
  105OSM    H8S10679   2.922   5.863   9.898  0.6949 -0.5783 -1.0104
  105OSM    H8T10680   3.103   5.886   9.856 -0.2838  2.6013 -4.1049
  105OSM    C9S10681   2.977   6.064   9.846 -0.3152  0.3892  0.1030
  105OSM    H9S10682   3.049   6.130   9.900 -1.5470  0.3820  1.8382
  105OSM    H9T10683   2.876   6.098   9.876 -0.0959  2.1175 -0.9548
  105OSM   C10S10684   2.974   6.064   9.690 -0.2166 -0.0074 -0.9555
  105OSM   H10S10685   2.911   6.152   9.663 -0.6775 -0.7232 -2.3315
  105OSM   H10T10686   2.917   5.972   9.667 -1.4634  0.4690  0.1353
  105OSM   C11S10687   3.109   6.071   9.620  0.4114  0.6347  0.1258
  105OSM   H11S10688   3.159   5.972   9.618  0.3231  0.4192  3.5920
  105OSM   H11T10689   3.162   6.151   9.676 -1.3333  2.3664 -0.5811
  105OSM   C12S10690   3.112   6.136   9.481 -0.4923  0.1038 -0.2086
  105OSM   H12S10691   3.212   6.180   9.461  0.0556 -1.7869 -2.0176
  105OSM   H12T10692   3.051   6.228   9.492 -2.6586 -1.4294  1.2597
  105OSM   C13S10693   3.050   6.043   9.371 -0.1412 -0.2243 -0.0913
  105OSM   H13S10694   2.958   5.989   9.402 -0.5670  0.4470 -0.1564
  105OSM   H13T10695   3.124   5.967   9.339  0.7356 -0.1549  1.6521
  105OSM   C14S10696   3.005   6.134   9.252 -0.0823  0.5092 -0.7703
  105OSM   H14S10697   3.091   6.198   9.221 -0.3533  2.7200  2.5675
  105OSM   H14T10698   2.928   6.208   9.284 -0.4873 -0.8106  1.4497
  105OSM   C15S10699   2.968   6.057   9.126 -0.0776 -0.7474  0.6372
  105OSM   H15S10700   2.924   5.958   9.152  1.6137 -1.1966  1.9840
  105OSM   H15T10701   3.058   6.034   9.064  0.3682  1.8661  0.2211
  105OSM   C16S10702   2.856   6.141   9.045  0.3791  0.3150  0.7094
  105OSM   H16S10703   2.907   6.238   9.030  1.0212 -0.4178 -2.4642
  105OSM   H16T10704   2.765   6.157   9.108 -0.2987 -0.6949  0.0283
  105OSM   C17S10705   2.812   6.063   8.920 -0.2668 -0.0547  0.0988
  105OSM   H17S10706   2.888   5.999   8.871  0.0632  0.8517 -0.6163
  105OSM   H17T10707   2.794   6.137   8.838  0.6144 -0.5128 -0.5267
  105OSM   C18S10708   2.682   5.977   8.942 -0.0581  0.0346 -0.0098
  105OSM   H18S10709   2.642   5.952   8.841  0.5429  0.2648 -0.3049
  105OSM   H18T10710   2.604   6.035   8.996 -1.2268  1.0014 -2.5682
  105OSM   H18U10711   2.706   5.885   9.000  2.0684  1.1397  0.9587
  105OSM    C1F10712   3.495   6.107  10.371 -0.1035  0.1428 -0.5179
  105OSM     OF10713   3.596   6.058  10.424 -0.0407  0.2535  1.4535
  105OSM    C2F10714   3.513   6.201  10.255  0.0790  0.1617 -0.1117
  105OSM    H2F10715   3.619   6.196  10.222 -0.4069  1.4708 -2.0024
  105OSM    H2G10716   3.494   6.306  10.286  3.5067  0.4310  1.5352
  105OSM    C3F10717   3.432   6.148  10.132  0.6595  0.1290 -0.4292
  105OSM    H3F10718   3.327   6.168  10.162  1.7830  1.9722  2.7836
  105OSM    H3G10719   3.439   6.037  10.123 -0.9391  0.1428 -2.7893
  105OSM    C4F10720   3.468   6.216   9.996 -0.1659  0.4500  0.0984
  105OSM    H4F10721   3.458   6.327  10.006 -2.0222  0.1084  4.0643
  105OSM    H4G10722   3.401   6.198   9.909  0.9299 -0.3069 -0.6118
  105OSM    C5F10723   3.601   6.166   9.945 -0.5333  0.5497 -0.2997
  105OSM    H5F10724   3.606   6.055   9.940  1.7106  0.5792  0.2298
  105OSM    H5G10725   3.691   6.206   9.996 -1.1835 -1.2831  2.5219
  105OSM    C6F10726   3.635   6.212   9.801 -0.6588 -0.0989 -0.1854
  105OSM    H6F10727   3.743   6.197   9.780 -0.9025 -0.0809 -1.5200
  105OSM    H6G10728   3.610   6.320   9.800 -1.4034 -0.1088  3.2775
  105OSM    C7F10729   3.558   6.133   9.699  0.5613 -0.0696  0.1845
  105OSM    H7F10730   3.448   6.150   9.709  0.5075  0.1803 -0.6864
  105OSM    H7G10731   3.580   6.026   9.715 -0.3575 -0.3487 -0.3001
  105OSM    C8F10732   3.596   6.154   9.545 -0.5014  0.1955 -0.2678
  105OSM    H8F10733   3.541   6.069   9.500 -0.1969 -1.6094  2.5406
  105OSM    H8G10734   3.704   6.134   9.529 -0.7176  0.9802 -3.5513
  105OSM    C9F10735   3.567   6.296   9.504 -0.1189  0.8840  0.4151
  105OSM    H9F10736   3.569   6.357   9.596  2.3946 -0.6595  1.4704
  105OSM   C10F10737   3.547   6.353   9.382  0.0616 -0.4813  0.2940
  105OSM   H10F10738   3.511   6.457   9.374  2.8305  0.5285  0.0105
  105OSM   C11F10739   3.544   6.267   9.262 -0.5191  0.1932 -0.0068
  105OSM   H11F10740   3.571   6.162   9.285 -2.6183 -0.1592  1.1148
  105OSM   H11G10741   3.632   6.301   9.203  0.5040  0.0063  1.3680
  105OSM   C12F10742   3.418   6.283   9.171  0.0844  0.1423 -0.1622
  105OSM   H12F10743   3.383   6.387   9.186 -0.3621  0.0842 -0.7823
  105OSM   H12G10744   3.326   6.227   9.200 -0.8624  2.3906  1.5341
  105OSM   C13F10745   3.454   6.260   9.024 -0.1253  0.5338  0.9563
  105OSM   H13F10746   3.521   6.172   9.013 -0.4517  0.3953 -0.0186
  105OSM   H13G10747   3.519   6.341   8.987 -0.2531 -0.4435 -1.6320
  105OSM   C14F10748   3.326   6.245   8.943  0.8944 -0.2366 -0.7178
  105OSM   H14F10749   3.247   6.191   9.001  0.6346  2.9346  2.2723
  105OSM   H14G10750   3.349   6.203   8.843  0.1816 -1.2320 -0.4824
  105OSM   C15F10751   3.265   6.387   8.905  0.4747  0.3056 -0.5504
  105OSM   H15F10752   3.340   6.444   8.847  0.0202  0.0259 -1.4381
  105OSM   H15G10753   3.244   6.443   8.999  0.0554  0.3795 -0.6836
  105OSM   C16F10754   3.137   6.369   8.828 -0.2775  1.0872  1.1654
  105OSM   H16F10755   3.082   6.284   8.873 -1.8514  0.7417 -1.2301
  105OSM   H16G10756   3.163   6.340   8.724  0.2341  1.3394  1.2207
  105OSM   C17F10757   3.058   6.497   8.809 -0.2380  0.0781 -0.2623
  105OSM   H17F10758   3.027   6.512   8.915  1.3755 -0.7364  0.3655
  105OSM   H17G10759   2.963   6.471   8.758 -0.8499 -3.3305  2.2647
  105OSM   C18F10760   3.123   6.615   8.742 -0.7104 -0.1065  0.9400
  105OSM   H18F10761   3.221   6.641   8.786  0.0188 -0.0211 -0.6561
  105OSM   H18G10762   3.060   6.705   8.758 -0.2509  0.3355  0.3284
  105OSM   H18H10763   3.131   6.595   8.632 -1.1036 -0.3991  0.9625
  106OSM      N10764   1.279   4.270  11.101  0.5821  0.6111 -0.1148
  106OSM    C1510765   1.281   4.357  11.223 -0.0760  1.0639 -0.1778
  106OSM   H15A10766   1.271   4.295  11.311 -1.7096  0.7821 -0.5264
  106OSM   H15B10767   1.193   4.417  11.242 -1.0862 -0.5693  0.5575
  106OSM   H15C10768   1.376   4.408  11.232  2.0258 -2.5174 -0.0797
  106OSM    C1410769   1.373   4.155  11.124  0.1347  0.3635  0.3425
  106OSM   H14A10770   1.342   4.087  11.202  0.6397 -0.2220  0.0412
  106OSM   H14B10771   1.478   4.181  11.129  0.2460  0.0958 -0.4669
  106OSM   H14C10772   1.375   4.085  11.042  0.2437 -0.9542  1.4302
  106OSM    C1310773   1.142   4.218  11.074  0.1294  0.2982  0.1204
  106OSM   H13A10774   1.136   4.136  11.004 -2.0863  0.2890  0.2657
  106OSM   H13B10775   1.078   4.290  11.028  2.1577  1.9679 -0.2488
  106OSM   H13C10776   1.097   4.173  11.161  0.0528 -0.2078 -0.1779
  106OSM    C1210777   1.324   4.340  10.978 -0.4110  0.4619 -0.3684
  106OSM   H12A10778   1.312   4.272  10.895 -0.3212 -0.0984  0.0798
  106OSM   H12B10779   1.425   4.375  10.990 -0.8415  1.2191  1.3274
  106OSM    C1110780   1.254   4.463  10.926  0.7003  0.5556  0.2457
  106OSM   H11A10781   1.303   4.509  10.837 -1.8222 -0.1669 -1.6287
  106OSM   H11B10782   1.246   4.539  11.007  2.1362  0.5048  0.4656
  106OSM      P10783   1.016   4.524  10.822  0.2487  0.4730 -0.0700
  106OSM    O1310784   0.909   4.454  10.754 -0.3768  0.0001  0.1274
  106OSM    O1410785   0.971   4.592  10.943  0.4326 -0.3446  0.1014
  106OSM    O1110786   1.083   4.617  10.711  0.6386 -0.4591 -0.2793
  106OSM    O1210787   1.130   4.422  10.868 -0.3837 -0.1559  0.5722
  106OSM    C1S10788   1.163   4.555  10.599 -0.7198 -0.2471 -1.0097
  106OSM    H1S10789   1.188   4.448  10.616 -0.8531 -0.2303 -0.6986
  106OSM    H1T10790   1.260   4.609  10.590 -0.7486  0.1984  0.7787
  106OSM     NF10791   1.175   4.501  10.361 -0.1430 -0.6504 -0.4931
  106OSM    HNF10792   1.238   4.554  10.304  0.5381  0.6836  1.3932
  106OSM    C2S10793   1.098   4.573  10.460  0.1410 -0.1129  0.4592
  106OSM    H2S10794   0.995   4.531  10.460 -0.4969  1.3783 -0.0054
  106OSM    C3S10795   1.088   4.726  10.438 -0.2465  0.7812  0.1383
  106OSM    H3S10796   1.185   4.776  10.459  0.2493 -1.2993  3.7457
  106OSM     O310797   1.001   4.791  10.529 -0.3521 -0.4302 -0.3330
  106OSM    HO310798   0.968   4.732  10.597  0.0027 -1.3901 -0.9787
  106OSM    C4S10799   1.043   4.749  10.295 -0.4512 -0.1480 -0.8959
  106OSM    H4S10800   1.124   4.712  10.232 -0.3256 -1.1508 -0.1701
  106OSM    C5S10801   0.922   4.795  10.248 -0.3922 -0.9913  0.5918
  106OSM    H5S10802   0.842   4.837  10.310 -0.7520  1.8573 -1.5587
  106OSM    C6S10803   0.891   4.804  10.095 -0.4673  0.7079 -0.2323
  106OSM    H6S10804   0.907   4.911  10.068  4.0765  0.1770 -0.3059
  106OSM    H6T10805   0.787   4.769  10.076  0.8326 -4.7118  0.9801
  106OSM    C7S10806   0.990   4.741  10.000  0.0084  0.7033  0.6713
  106OSM    H7S10807   0.993   4.630  10.009 -0.5514  0.7756  1.9840
  106OSM    H7T10808   1.085   4.782  10.039  0.2141  1.0580 -0.1856
  106OSM    C8S10809   0.970   4.774   9.849  0.0401  0.0776  0.1385
  106OSM    H8S10810   0.959   4.884   9.836 -3.8267  0.2043  2.7927
  106OSM    H8T10811   0.877   4.718   9.825 -0.7175 -0.0718  3.0675
  106OSM    C9S10812   1.086   4.729   9.752 -0.1960 -0.0959  0.1059
  106OSM    H9S10813   1.099   4.619   9.753 -0.5306 -0.1395  1.1615
  106OSM    H9T10814   1.186   4.771   9.773 -1.6639  2.7441  2.1743
  106OSM   C10S10815   1.053   4.736   9.606  1.0661 -0.4323 -0.0662
  106OSM   H10S10816   1.059   4.841   9.570  3.2829 -0.4451  0.1305
  106OSM   H10T10817   0.950   4.699   9.588  0.5759  0.3866  0.9690
  106OSM   C11S10818   1.148   4.645   9.527 -0.7831  0.2453  0.0178
  106OSM   H11S10819   1.140   4.538   9.557  1.9524 -0.0718 -0.0652
  106OSM   H11T10820   1.253   4.668   9.556 -0.6275  1.8347 -1.6413
  106OSM   C12S10821   1.149   4.658   9.372  0.9212  0.1740 -0.2883
  106OSM   H12S10822   1.187   4.760   9.352  0.2325  0.4943 -0.0101
  106OSM   H12T10823   1.041   4.660   9.343  0.7508 -0.6009  0.2595
  106OSM   C13S10824   1.240   4.555   9.299 -0.2807  0.0606 -0.2706
  106OSM   H13S10825   1.183   4.461   9.311  1.5800 -0.8449  2.5646
  106OSM   H13T10826   1.337   4.547   9.354  0.4653  1.5537 -1.2969
  106OSM   C14S10827   1.271   4.590   9.157  0.6855 -0.2788 -0.0923
  106OSM   H14S10828   1.314   4.693   9.155 -2.5799  1.2178 -0.4318
  106OSM   H14T10829   1.172   4.598   9.107  0.4009 -2.1382  0.0951
  106OSM   C15S10830   1.356   4.488   9.091  0.1599  0.2739 -0.3868
  106OSM   H15S10831   1.299   4.405   9.044  0.0676  0.0600  0.0966
  106OSM   H15T10832   1.421   4.442   9.168 -0.6757  1.6444  1.2231
  106OSM   C16S10833   1.441   4.560   8.985 -0.3887 -0.2652  0.4861
  106OSM   H16S10834   1.516   4.484   8.954 -1.6191 -1.0236 -0.7306
  106OSM   H16T10835   1.496   4.648   9.024 -0.5479 -0.2952  0.7835
  106OSM   C17S10836   1.365   4.599   8.851  0.5619 -0.1409  0.5403
  106OSM   H17S10837   1.434   4.638   8.773  1.0576 -0.2990  0.8913
  106OSM   H17T10838   1.291   4.673   8.889  2.7937  2.0377  0.9300
  106OSM   C18S10839   1.304   4.466   8.788 -0.3551  0.1833  0.4640
  106OSM   H18S10840   1.251   4.490   8.693 -2.9685  0.4417  1.9023
  106OSM   H18T10841   1.237   4.426   8.867  3.0000 -0.7514  3.0593
  106OSM   H18U10842   1.390   4.399   8.766  0.0048  0.7682  0.0717
  106OSM    C1F10843   1.192   4.373  10.343  0.7834  0.6019  0.3450
  106OSM     OF10844   1.147   4.295  10.425 -0.5914  0.2099  0.5631
  106OSM    C2F10845   1.277   4.345  10.224 -0.1878  0.0671  0.0352
  106OSM    H2F10846   1.381   4.378  10.249 -0.0738  1.1086 -1.6238
  106OSM    H2G10847   1.252   4.411  10.138 -0.1039  1.5189  1.0873
  106OSM    C3F10848   1.270   4.195  10.192  0.3433  0.1134  0.1807
  106OSM    H3F10849   1.171   4.154  10.162  0.2105  0.7132 -0.2068
  106OSM    H3G10850   1.300   4.133  10.279 -0.8835 -0.0670  0.4922
  106OSM    C4F10851   1.363   4.172  10.074 -0.0293 -0.0675 -0.1198
  106OSM    H4F10852   1.383   4.063  10.064  2.6535  0.3339  0.2358
  106OSM    H4G10853   1.462   4.217  10.097  0.8586 -1.4308 -1.1247
  106OSM    C5F10854   1.310   4.219   9.941 -0.4007 -0.0033  0.4864
  106OSM    H5F10855   1.305   4.329   9.931  1.2133  0.2878  2.3057
  106OSM    H5G10856   1.207   4.179   9.928  0.4217 -1.5447 -1.6985
  106OSM    C6F10857   1.395   4.165   9.831  0.3989  0.1098  0.3238
  106OSM    H6F10858   1.406   4.054   9.827  1.9375  0.2139  1.1154
  106OSM    H6G10859   1.498   4.206   9.830  0.4225  0.2497 -3.0779
  106OSM    C7F10860   1.346   4.213   9.691 -0.8024 -0.8094 -0.7468
  106OSM    H7F10861   1.346   4.324   9.692 -0.0726 -0.8032 -0.8440
  106OSM    H7G10862   1.245   4.169   9.686 -0.3833 -1.9844  0.6369
  106OSM    C8F10863   1.426   4.152   9.577 -0.2699 -0.1685  0.3632
  106OSM    H8F10864   1.431   4.041   9.586  1.7719 -0.0435  1.3545
  106OSM    H8G10865   1.530   4.192   9.573 -0.1537 -0.2695  1.8154
  106OSM    C9F10866   1.359   4.179   9.444 -0.1317 -0.5299  0.5079
  106OSM    H9F10867   1.253   4.206   9.460  0.3820  1.7079  0.5492
  106OSM   C10F10868   1.405   4.163   9.322 -0.8511 -0.1594 -0.0609
  106OSM   H10F10869   1.339   4.191   9.238 -2.7295  1.7928  1.9511
  106OSM   C11F10870   1.548   4.119   9.294 -0.0786  0.7829 -0.0457
  106OSM   H11F10871   1.571   4.024   9.347 -1.3399  0.9747  0.8801
  106OSM   H11G10872   1.627   4.188   9.329  0.4186  0.8205 -1.2113
  106OSM   C12F10873   1.568   4.076   9.143 -0.6674  0.1160 -0.1775
  106OSM   H12F10874   1.675   4.048   9.137  0.0951  2.0759  2.4339
  106OSM   H12G10875   1.549   4.159   9.072 -0.6247 -0.6788 -1.1355
  106OSM   C13F10876   1.484   3.953   9.105 -1.1003 -1.0607 -1.1953
  106OSM   H13F10877   1.379   3.987   9.094 -1.6243 -0.3310  3.8143
  106OSM   H13G10878   1.483   3.873   9.181 -0.0840  1.0417  1.1686
  106OSM   C14F10879   1.531   3.885   8.978 -0.3051  0.8402  0.7183
  106OSM   H14F10880   1.636   3.851   8.992 -0.2118  0.4210 -0.7817
  106OSM   H14G10881   1.534   3.963   8.898  0.8139  1.2776  1.1685
  106OSM   C15F10882   1.437   3.767   8.947 -0.2698  0.4356  0.1716
  106OSM   H15F10883   1.329   3.784   8.965 -0.3822 -1.5178  1.5965
  106OSM   H15G10884   1.457   3.679   9.012  1.9967 -0.3735 -1.4846
  106OSM   C16F10885   1.441   3.734   8.801  0.3406  0.5737  0.4433
  106OSM   H16F10886   1.538   3.758   8.752 -0.4586 -0.1908 -1.6308
  106OSM   H16G10887   1.374   3.792   8.735  1.6666  1.0146 -0.5779
  106OSM   C17F10888   1.413   3.575   8.774  0.5308 -0.4834 -0.0266
  106OSM   H17F10889   1.316   3.547   8.821 -0.1850 -1.5540 -2.0202
  106OSM   H17G10890   1.489   3.512   8.825 -0.9779 -2.7346 -0.3834
  106OSM   C18F10891   1.401   3.551   8.625 -0.0105 -0.0127  1.0931
  106OSM   H18F10892   1.380   3.444   8.607  0.2993 -0.0436  0.8955
  106OSM   H18G10893   1.490   3.583   8.566 -0.6749  1.1942  0.7159
  106OSM   H18H10894   1.321   3.614   8.581 -0.8147 -1.5054  0.3741
  107OSM      N10895   5.538   2.608  11.136  0.0847  0.5488 -0.4527
  107OSM    C1510896   5.569   2.470  11.197  0.1551 -0.7458 -0.8240
  107OSM   H15A10897   5.626   2.475  11.288 -0.5636  0.2676 -0.4070
  107OSM   H15B10898   5.634   2.410  11.135  1.3298 -0.6539  0.3016
  107OSM   H15C10899   5.478   2.413  11.212 -0.5251  0.7747  1.2290
  107OSM    C1410900   5.437   2.671  11.226 -0.2237 -0.0455 -0.1755
  107OSM   H14A10901   5.465   2.673  11.330 -0.0034  0.2578 -0.2398
  107OSM   H14B10902   5.338   2.628  11.216 -0.1004 -0.1085 -1.2915
  107OSM   H14C10903   5.422   2.776  11.203 -0.7262  0.1402  0.9378
  107OSM    C1310904   5.653   2.702  11.136  0.5489 -0.5648  0.3889
  107OSM   H13A10905   5.742   2.670  11.082  0.4366 -0.5632  0.2006
  107OSM   H13B10906   5.686   2.724  11.236 -0.4349 -2.3882  1.1415
  107OSM   H13C10907   5.625   2.802  11.105  1.9601  0.5732  2.4981
  107OSM    C1210908   5.480   2.592  11.001 -0.0025  0.2439 -0.9445
  107OSM   H12A10909   5.384   2.544  11.006  0.0350  0.2376 -0.0089
  107OSM   H12B10910   5.547   2.536  10.938  0.4695  0.4128 -0.5985
  107OSM    C1110911   5.445   2.722  10.928 -0.5568 -0.2827  0.2375
  107OSM   H11A10912   5.422   2.704  10.820  0.8951 -0.3083 -0.0867
  107OSM   H11B10913   5.528   2.795  10.922 -0.7975 -0.0868 -1.0138
  107OSM      P10914   5.186   2.735  10.964 -0.1974 -0.4486 -0.0314
  107OSM    O1310915   5.153   2.606  11.027 -0.2519 -0.0962  0.3136
  107OSM    O1410916   5.092   2.844  10.991 -0.0705  0.7451 -0.3408
  107OSM    O1110917   5.192   2.710  10.812 -0.2916  0.8721  0.2447
  107OSM    O1210918   5.333   2.781  10.998 -0.1427  0.1670  0.0639
  107OSM    C1S10919   5.195   2.817  10.713  0.5651 -0.3697 -0.4842
  107OSM    H1S10920   5.261   2.900  10.743  1.1952  0.0769 -2.8870
  107OSM    H1T10921   5.093   2.861  10.705  0.8889  0.2153 -1.4947
  107OSM     NF10922   5.275   2.892  10.497 -0.3509  0.0565  0.4378
  107OSM    HNF10923   5.208   2.912  10.426  0.4796 -0.9518 -0.6600
  107OSM    C2S10924   5.247   2.773  10.571 -0.5689  0.0180 -0.4156
  107OSM    H2S10925   5.336   2.710  10.594 -0.4655 -0.6878 -2.5812
  107OSM    C3S10926   5.142   2.680  10.501  0.7400  0.4682 -0.1717
  107OSM    H3S10927   5.056   2.745  10.476 -0.5434 -1.1768 -0.2346
  107OSM     O310928   5.084   2.571  10.579  0.0255 -0.5485  0.0715
  107OSM    HO310929   5.136   2.581  10.659  1.9992  1.1250 -1.3139
  107OSM    C4S10930   5.202   2.622  10.373  0.3025  0.4566 -0.2929
  107OSM    H4S10931   5.169   2.690  10.293 -0.1492  0.5145 -0.0662
  107OSM    C5S10932   5.285   2.522  10.356 -0.3192  0.0050 -0.1072
  107OSM    H5S10933   5.332   2.456  10.430  2.1554 -2.3290 -3.4566
  107OSM    C6S10934   5.350   2.491  10.221 -0.1348  0.1054 -0.3863
  107OSM    H6S10935   5.306   2.400  10.175  1.0191 -1.6189  1.6929
  107OSM    H6T10936   5.455   2.463  10.246 -0.8105 -1.9412  0.3366
  107OSM    C7S10937   5.359   2.610  10.121  0.3080 -0.7033  0.7637
  107OSM    H7S10938   5.407   2.691  10.180 -0.8869  0.4860  0.1356
  107OSM    H7T10939   5.257   2.651  10.111  0.4302  0.0684  2.3073
  107OSM    C8S10940   5.414   2.583   9.981 -0.2978 -0.3209 -0.7419
  107OSM    H8S10941   5.364   2.495   9.936  0.0699 -0.5722 -0.6665
  107OSM    H8T10942   5.522   2.557   9.994 -0.4352 -0.8755 -0.7061
  107OSM    C9S10943   5.413   2.703   9.892 -1.0766 -0.3300 -0.1096
  107OSM    H9S10944   5.476   2.784   9.935  0.6358 -1.6320 -0.0464
  107OSM    H9T10945   5.310   2.745   9.892 -0.3533  1.5711 -0.5642
  107OSM   C10S10946   5.459   2.668   9.751 -0.1788 -0.0052  0.0208
  107OSM   H10S10947   5.413   2.570   9.729  2.6088 -1.4196  0.1197
  107OSM   H10T10948   5.567   2.642   9.751 -0.5391 -1.6177  1.0752
  107OSM   C11S10949   5.418   2.772   9.649  0.5994  0.4909 -0.5405
  107OSM   H11S10950   5.442   2.877   9.677  1.5168 -0.1491  1.2281
  107OSM   H11T10951   5.308   2.771   9.638  0.3738  3.5740  0.4094
  107OSM   C12S10952   5.481   2.739   9.507  0.2512 -0.2586  0.6126
  107OSM   H12S10953   5.438   2.637   9.494 -1.2925  0.4692 -0.1668
  107OSM   H12T10954   5.592   2.746   9.517  0.2926  0.7240 -0.3736
  107OSM   C13S10955   5.443   2.825   9.389  0.2222  0.0375 -1.0367
  107OSM   H13S10956   5.511   2.913   9.393 -2.1895  1.9986 -0.9026
  107OSM   H13T10957   5.339   2.860   9.401  0.1533 -0.6517  0.5400
  107OSM   C14S10958   5.480   2.750   9.256 -0.3495  0.2588  0.6778
  107OSM   H14S10959   5.424   2.654   9.251 -0.6386  0.4422  0.2863
  107OSM   H14T10960   5.589   2.730   9.256  0.2446  2.6961 -2.1228
  107OSM   C15S10961   5.447   2.837   9.127 -0.0369 -0.2330 -0.4110
  107OSM   H15S10962   5.487   2.933   9.164  0.1244 -0.0194 -1.1238
  107OSM   H15T10963   5.337   2.833   9.139 -0.0478 -0.2552 -0.5216
  107OSM   C16S10964   5.498   2.784   9.000 -0.5584 -0.1775 -0.4125
  107OSM   H16S10965   5.468   2.680   8.977  0.5988 -0.0665 -2.7359
  107OSM   H16T10966   5.608   2.795   8.999 -0.3382 -1.3734  2.2432
  107OSM   C17S10967   5.434   2.868   8.889 -0.4578 -0.5089 -0.4046
  107OSM   H17S10968   5.431   2.974   8.923  0.5449 -1.1186  1.7511
  107OSM   H17T10969   5.328   2.840   8.866 -0.0769 -0.1318 -2.9451
  107OSM   C18S10970   5.509   2.867   8.760 -0.2826  0.1776  0.5504
  107OSM   H18S10971   5.458   2.933   8.686 -1.2572 -0.9446  0.1734
  107OSM   H18T10972   5.518   2.762   8.725  2.5999 -0.2022  2.1224
  107OSM   H18U10973   5.611   2.906   8.777 -0.3862  0.7508 -0.1171
  107OSM    C1F10974   5.374   2.984  10.520  0.0706  0.0452 -0.0462
  107OSM     OF10975   5.458   2.973  10.608 -0.2829  0.8146  0.0863
  107OSM    C2F10976   5.368   3.106  10.441 -0.1908 -0.3596  0.0968
  107OSM    H2F10977   5.346   3.191  10.510  0.1191 -0.8950  0.8647
  107OSM    H2G10978   5.280   3.115  10.373  0.2742  1.7421 -0.3109
  107OSM    C3F10979   5.497   3.142  10.367 -0.2482 -0.4051  0.0038
  107OSM    H3F10980   5.577   3.141  10.444 -2.1311 -0.2079  2.0684
  107OSM    H3G10981   5.483   3.247  10.332  3.4192  0.4234  0.6232
  107OSM    C4F10982   5.542   3.050  10.252  0.1161  0.1182  0.0231
  107OSM    H4F10983   5.450   3.042  10.190 -0.6642 -0.0316  1.1639
  107OSM    H4G10984   5.569   2.950  10.294  2.9657 -0.3843 -2.6447
  107OSM    C5F10985   5.655   3.109  10.169 -0.6973 -1.1125 -0.4955
  107OSM    H5F10986   5.748   3.106  10.230 -0.6144  0.9694 -0.4516
  107OSM    H5G10987   5.633   3.218  10.166 -1.4300 -1.2795 -1.6978
  107OSM    C6F10988   5.678   3.049  10.039  0.0665  0.5509  0.0663
  107OSM    H6F10989   5.583   3.070   9.984 -0.4485  1.6521  1.3353
  107OSM    H6G10990   5.701   2.941  10.052  3.3415  1.2698  1.0277
  107OSM    C7F10991   5.783   3.111   9.939 -0.1224  0.2172  0.5251
  107OSM    H7F10992   5.864   3.139  10.010 -1.0983  1.1049  1.3306
  107OSM    H7G10993   5.743   3.206   9.898  1.1557  0.3831 -0.4011
  107OSM    C8F10994   5.829   3.015   9.837 -0.7906 -0.2393  0.2675
  107OSM    H8F10995   5.879   2.932   9.891 -1.0378  0.3182  1.3797
  107OSM    H8G10996   5.906   3.063   9.773 -1.9903  0.5968 -0.5878
  107OSM    C9F10997   5.719   2.976   9.748 -0.0057 -0.6106  0.6217
  107OSM    H9F10998   5.646   2.903   9.785 -0.1277  0.9583  3.7510
  107OSM   C10F10999   5.690   3.027   9.628  0.1564  0.4404  0.7463
  107OSM   H10F11000   5.607   2.986   9.567 -0.3795  2.4829  0.0053
  107OSM   C11F11001   5.755   3.141   9.555 -0.6809  0.3579 -0.1759
  107OSM   H11F11002   5.860   3.129   9.588 -0.4665  1.0098 -0.6123
  107OSM   H11G11003   5.726   3.234   9.610 -2.3380 -0.4263  0.3635
  107OSM   C12F11004   5.728   3.161   9.411 -0.2830 -0.1081  0.4903
  107OSM   H12F11005   5.775   3.256   9.376  2.3201 -1.1377  0.9472
  107OSM   H12G11006   5.624   3.155   9.373 -0.1911 -0.8642  0.3328
  107OSM   C13F11007   5.809   3.057   9.329 -0.2215 -0.4153 -0.0670
  107OSM   H13F11008   5.770   2.954   9.338 -3.1827  0.5452 -0.6799
  107OSM   H13G11009   5.912   3.043   9.370  0.4623  0.5452 -1.3916
  107OSM   C14F11010   5.831   3.093   9.184 -0.6097 -0.2694 -0.2120
  107OSM   H14F11011   5.888   3.188   9.176 -1.1368  0.2496  1.5953
  107OSM   H14G11012   5.734   3.108   9.133 -0.7459  0.9229  0.3588
  107OSM   C15F11013   5.901   2.991   9.091 -0.3805 -0.2236 -0.5454
  107OSM   H15F11014   5.851   2.892   9.096  1.8090 -1.4546 -1.6772
  107OSM   H15G11015   6.004   2.966   9.124 -1.1349 -1.8418  0.7165
  107OSM   C16F11016   5.894   3.032   8.934 -0.5652  0.4003 -0.2260
  107OSM   H16F11017   5.956   3.123   8.920  0.7649 -0.7620 -2.2669
  107OSM   H16G11018   5.790   3.056   8.902 -0.2079 -0.6479 -2.3560
  107OSM   C17F11019   5.929   2.918   8.838  0.0990  0.1501 -0.4579
  107OSM   H17F11020   5.858   2.833   8.843  0.9372 -0.5034  1.7341
  107OSM   H17G11021   6.029   2.878   8.866  0.5695  0.5865 -1.4432
  107OSM   C18F11022   5.940   2.972   8.697 -0.2186 -0.4154 -0.4203
  107OSM   H18F11023   5.981   2.899   8.625  1.1363 -0.1416  0.0470
  107OSM   H18G11024   6.000   3.065   8.708 -0.0923 -0.5953  0.5569
  107OSM   H18H11025   5.835   2.995   8.667 -0.3765 -1.5642 -0.7803
  108OSM      N11026   1.842   3.447  10.529  0.1563  0.0069 -0.2798
  108OSM    C1511027   1.765   3.467  10.654  0.0318 -0.4951  0.0781
  108OSM   H15A11028   1.658   3.458  10.641 -0.1074 -0.2463  0.9764
  108OSM   H15B11029   1.781   3.571  10.682  1.9885 -1.1978  1.8745
  108OSM   H15C11030   1.795   3.400  10.733  2.0096 -0.7827 -0.8637
  108OSM    C1411031   1.794   3.541  10.415 -0.3803 -0.8155  0.1120
  108OSM   H14A11032   1.816   3.642  10.447 -1.8641 -0.4845  0.1499
  108OSM   H14B11033   1.690   3.544  10.388 -0.1484  2.6542 -0.8768
  108OSM   H14C11034   1.851   3.516  10.326  0.3266  1.1219 -0.0239
  108OSM    C1311035   1.979   3.479  10.566 -0.6439 -0.5800 -0.7332
  108OSM   H13A11036   2.036   3.479  10.474 -2.1775  0.5000 -1.7327
  108OSM   H13B11037   2.022   3.415  10.641 -0.5243  1.5706  1.1334
  108OSM   H13C11038   1.972   3.578  10.608 -1.6513 -1.3117  0.9244
  108OSM    C1211039   1.837   3.300  10.480  0.0845  0.2064  0.2655
  108OSM   H12A11040   1.878   3.233  10.554  0.4769  1.0476  0.8221
  108OSM   H12B11041   1.906   3.301  10.397 -0.0301  0.8848  0.1717
  108OSM    C1111042   1.702   3.254  10.428 -0.3456 -0.7128  0.0456
  108OSM   H11A11043   1.714   3.168  10.358  2.4370 -0.6024  0.2607
  108OSM   H11B11044   1.661   3.329  10.357  1.6535  0.3036 -0.1224
  108OSM      P11045   1.639   3.100  10.635 -0.1869  0.0814 -0.0008
  108OSM    O1311046   1.783   3.106  10.673 -0.2340 -0.2762 -0.2355
  108OSM    O1411047   1.543   3.087  10.741 -0.0240 -0.0839 -0.1562
  108OSM    O1111048   1.619   2.976  10.531  0.0249 -0.0794 -0.2807
  108OSM    O1211049   1.614   3.222  10.535  0.1015  0.2399  0.0501
  108OSM    C1S11050   1.498   2.962  10.464  0.7467 -0.1300  0.0300
  108OSM    H1S11051   1.442   3.056  10.447 -0.8516 -1.3081 -1.7530
  108OSM    H1T11052   1.433   2.890  10.520 -1.2338  0.2356 -1.6519
  108OSM     NF11053   1.386   2.901  10.258 -0.6752  0.0977 -0.0195
  108OSM    HNF11054   1.357   2.808  10.236  0.8546 -0.2242 -0.8868
  108OSM    C2S11055   1.516   2.918  10.323  0.2181  0.2220 -0.0207
  108OSM    H2S11056   1.561   3.003  10.267  2.4318 -1.4881 -1.0111
  108OSM    C3S11057   1.611   2.796  10.308  0.5469 -0.2696 -0.5252
  108OSM    H3S11058   1.575   2.713  10.373  1.4359  0.0944  0.4662
  108OSM     O311059   1.741   2.822  10.347 -0.0620 -0.8311 -0.0552
  108OSM    HO311060   1.731   2.903  10.397 -1.7652  1.3345 -3.5151
  108OSM    C4S11061   1.621   2.748  10.166  0.2660  0.2191  0.0216
  108OSM    H4S11062   1.699   2.797  10.105 -0.4351  2.3551  0.7633
  108OSM    C5S11063   1.559   2.642  10.118 -0.2485 -0.4658 -0.0014
  108OSM    H5S11064   1.501   2.564  10.170  1.4209 -2.4778 -0.9989
  108OSM    C6S11065   1.578   2.602   9.977  0.3978 -0.1795 -0.1594
  108OSM    H6S11066   1.490   2.544   9.941  0.1846  0.6102 -0.9399
  108OSM    H6T11067   1.656   2.524   9.966 -0.1860 -0.5786 -1.8259
  108OSM    C7S11068   1.583   2.705   9.862 -0.0211 -0.1298 -0.0721
  108OSM    H7S11069   1.674   2.765   9.884  1.9909 -3.6020  2.0942
  108OSM    H7T11070   1.493   2.769   9.871  0.8977  1.2083 -0.2576
  108OSM    C8S11071   1.591   2.628   9.723  0.2962 -0.0578 -0.5944
  108OSM    H8S11072   1.562   2.704   9.647 -1.3353  2.1887  2.0691
  108OSM    H8T11073   1.516   2.547   9.717 -0.0768  0.3654 -1.9449
  108OSM    C9S11074   1.722   2.575   9.691 -0.4930 -1.1239  0.5528
  108OSM    H9S11075   1.768   2.514   9.772  0.4767 -1.8797 -0.5300
  108OSM    H9T11076   1.791   2.660   9.672 -0.7876 -1.0674 -0.2902
  108OSM   C10S11077   1.730   2.505   9.557  0.6508  0.1278  0.5429
  108OSM   H10S11078   1.665   2.415   9.563 -0.8149  1.2345  2.5961
  108OSM   H10T11079   1.833   2.467   9.541  0.1701 -0.6965 -0.7138
  108OSM   C11S11080   1.683   2.595   9.440  0.1500  0.4501  0.0074
  108OSM   H11S11081   1.751   2.683   9.439  0.9725 -0.1140 -2.3920
  108OSM   H11T11082   1.576   2.623   9.437 -0.5713 -2.0733 -0.5915
  108OSM   C12S11083   1.717   2.533   9.307  0.1478 -0.7548  0.0537
  108OSM   H12S11084   1.675   2.435   9.275 -0.7367 -0.4209  0.1799
  108OSM   H12T11085   1.827   2.518   9.303  0.4887  1.5108 -0.1273
  108OSM   C13S11086   1.676   2.632   9.194 -0.2828  0.2973 -0.7250
  108OSM   H13S11087   1.723   2.731   9.211 -0.1382  0.2628 -0.9129
  108OSM   H13T11088   1.566   2.645   9.201 -0.9560 -3.2144 -2.6780
  108OSM   C14S11089   1.712   2.579   9.059 -0.3527  0.1202 -0.8320
  108OSM   H14S11090   1.643   2.494   9.041 -0.5814  0.1549 -0.1397
  108OSM   H14T11091   1.812   2.535   9.039 -0.5222 -0.1797 -1.0372
  108OSM   C15S11092   1.688   2.673   8.935  0.0822 -0.1098  0.2321
  108OSM   H15S11093   1.769   2.749   8.947  0.8497 -0.3613 -2.5210
  108OSM   H15T11094   1.593   2.730   8.936 -1.1135 -1.8177 -2.6005
  108OSM   C16S11095   1.694   2.597   8.799  0.5403  0.4032 -0.1112
  108OSM   H16S11096   1.599   2.540   8.791 -0.0542  1.3421  0.0772
  108OSM   H16T11097   1.780   2.527   8.804  0.2403  0.0774  0.6279
  108OSM   C17S11098   1.699   2.678   8.672 -0.8217  0.0112  0.1844
  108OSM   H17S11099   1.609   2.744   8.670  0.1227  1.3135 -1.1039
  108OSM   H17T11100   1.688   2.612   8.583  0.7951 -0.2432  0.1537
  108OSM   C18S11101   1.828   2.759   8.665  0.2658  0.3879 -0.9376
  108OSM   H18S11102   1.847   2.778   8.557 -0.5194  0.4935 -1.0610
  108OSM   H18T11103   1.925   2.723   8.706 -0.3949  1.8331  2.2147
  108OSM   H18U11104   1.808   2.857   8.713 -0.0972  1.0620 -2.3982
  108OSM    C1F11105   1.307   3.002  10.220  0.2268  0.2370  0.0976
  108OSM     OF11106   1.344   3.116  10.253  0.2077 -0.4699 -0.1858
  108OSM    C2F11107   1.191   2.987  10.124  0.3771  0.2601 -0.1577
  108OSM    H2F11108   1.196   2.890  10.071  2.7173  0.6327 -0.7292
  108OSM    H2G11109   1.195   3.068  10.048  2.3043 -0.5121 -0.9402
  108OSM    C3F11110   1.051   2.994  10.189 -0.3992  0.7176  0.5784
  108OSM    H3F11111   1.045   3.085  10.252 -2.8715  0.1963  1.2095
  108OSM    H3G11112   1.034   2.906  10.255 -0.9778 -1.5925 -2.4132
  108OSM    C4F11113   0.940   3.004  10.087  0.2130  0.6586  0.1768
  108OSM    H4F11114   0.851   2.971  10.146  0.6850  1.1129  1.1699
  108OSM    H4G11115   0.957   2.924  10.012  0.3278  0.9600 -0.1171
  108OSM    C5F11116   0.923   3.142  10.016  0.0829 -0.4319  0.4379
  108OSM    H5F11117   0.962   3.219  10.086  1.3602  0.5681 -1.3221
  108OSM    H5G11118   0.815   3.156   9.993  0.1279 -1.2277 -0.2858
  108OSM    C6F11119   0.983   3.142   9.872 -0.0294 -0.3135  0.1621
  108OSM    H6F11120   1.087   3.105   9.883 -0.2991 -0.7658  1.2578
  108OSM    H6G11121   0.981   3.248   9.838  2.3156 -0.1622  0.2945
  108OSM    C7F11122   0.899   3.067   9.770  0.0090  0.3350  0.4879
  108OSM    H7F11123   0.793   3.098   9.787 -0.1423 -0.8966  1.9775
  108OSM    H7G11124   0.907   2.957   9.781  0.6939 -0.0870 -3.0271
  108OSM    C8F11125   0.925   3.109   9.622  0.4896  0.4315 -0.0016
  108OSM    H8F11126   0.907   3.219   9.619  0.1998  0.3625 -1.5784
  108OSM    H8G11127   0.839   3.074   9.562 -0.8360 -0.9934  2.5955
  108OSM    C9F11128   1.059   3.077   9.564 -0.3879 -0.8385  0.1839
  108OSM    H9F11129   1.136   3.070   9.642 -0.2130 -0.3695  0.0520
  108OSM   C10F11130   1.082   3.049   9.437  0.2043  0.4682  0.7554
  108OSM   H10F11131   1.182   3.014   9.405 -1.5635 -0.7680 -4.3989
  108OSM   C11F11132   0.979   3.055   9.328  0.2395 -0.3652  0.1108
  108OSM   H11F11133   0.910   3.142   9.339 -1.9373 -2.0490  0.3964
  108OSM   H11G11134   0.907   2.971   9.335 -3.0849  2.3172  1.1528
  108OSM   C12F11135   1.049   3.051   9.193 -0.2902 -0.4976  0.0013
  108OSM   H12F11136   1.101   2.954   9.174 -0.2474 -0.5776  0.5248
  108OSM   H12G11137   1.121   3.135   9.196  2.2654 -2.5055 -0.6850
  108OSM   C13F11138   0.971   3.071   9.063  0.4365  0.1851 -0.1454
  108OSM   H13F11139   0.896   2.990   9.047  3.3118 -2.4590 -1.3777
  108OSM   H13G11140   1.039   3.058   8.976  1.6599  0.9511  0.6722
  108OSM   C14F11141   0.902   3.209   9.055  0.2567  0.3914  0.5605
  108OSM   H14F11142   0.982   3.285   9.045 -0.9268  1.9529  2.2911
  108OSM   H14G11143   0.843   3.231   9.147  0.4828  0.8036  0.6087
  108OSM   C15F11144   0.814   3.233   8.918 -0.4299  0.7394 -1.0576
  108OSM   H15F11145   0.875   3.225   8.826  2.9125  1.1138  0.9183
  108OSM   H15G11146   0.782   3.339   8.929  0.1410  0.9609 -1.4643
  108OSM   C16F11147   0.682   3.142   8.912  0.5567 -0.1774  0.0105
  108OSM   H16F11148   0.723   3.039   8.910 -1.1633 -0.8922 -2.2281
  108OSM   H16G11149   0.615   3.162   8.826  0.4119  0.8240  0.3412
  108OSM   C17F11150   0.589   3.154   9.037  0.3174 -0.1877  0.5353
  108OSM   H17F11151   0.647   3.125   9.128  1.2398  1.9651  0.6797
  108OSM   H17G11152   0.505   3.083   9.021  1.8522 -1.5410 -2.2017
  108OSM   C18F11153   0.539   3.301   9.053  0.2003  0.0516 -0.4713
  108OSM   H18F11154   0.620   3.359   9.104  3.7117 -3.8539 -1.0395
  108OSM   H18G11155   0.445   3.309   9.111 -0.1852  0.2531 -1.1124
  108OSM   H18H11156   0.508   3.349   8.958  0.0495  1.8952  0.4660
  109OSM      N11157   0.579   0.951  11.176  0.3199 -0.1711 -0.4512
  109OSM    C1511158   0.729   0.989  11.182  0.2032  0.1964 -0.0260
  109OSM   H15A11159   0.766   1.033  11.091  3.1081  1.5939  1.7067
  109OSM   H15B11160   0.789   0.903  11.210  1.3049  0.4709 -1.4609
  109OSM   H15C11161   0.741   1.062  11.260  1.3405  0.8531 -0.7991
  109OSM    C1411162   0.560   0.813  11.114 -0.3840  0.2431 -0.5953
  109OSM   H14A11163   0.459   0.776  11.107  0.2400 -1.3633 -1.7228
  109OSM   H14B11164   0.617   0.738  11.167 -0.4784  0.6721  0.1308
  109OSM   H14C11165   0.592   0.825  11.012  0.0475 -1.1959 -0.6468
  109OSM    C1311166   0.537   0.936  11.318  0.2421  0.2701  0.2100
  109OSM   H13A11167   0.430   0.931  11.333  0.3819 -0.3135  1.0802
  109OSM   H13B11168   0.588   1.013  11.373  1.6405 -1.0413  0.8285
  109OSM   H13C11169   0.569   0.841  11.359 -1.0530 -0.3836 -0.2185
  109OSM    C1211170   0.496   1.058  11.114  0.6108  0.1831 -0.2871
  109OSM   H12A11171   0.506   1.150  11.169  2.5409  0.5788 -1.2159
  109OSM   H12B11172   0.393   1.026  11.106  0.9261 -0.4112 -2.8830
  109OSM    C1111173   0.529   1.106  10.972 -0.1034 -0.4431 -0.8434
  109OSM   H11A11174   0.437   1.162  10.944 -0.4704 -0.0488  1.0388
  109OSM   H11B11175   0.535   1.009  10.918  0.2100 -0.8335 -0.1209
  109OSM      P11176   0.665   1.328  11.016  0.0969  0.2499 -0.0860
  109OSM    O1311177   0.584   1.344  11.140  0.3442 -0.5915 -0.3014
  109OSM    O1411178   0.805   1.369  11.025 -0.3182  0.1756  0.5446
  109OSM    O1111179   0.594   1.406  10.895 -0.0911 -0.1625 -0.0601
  109OSM    O1211180   0.662   1.174  10.964  0.4800 -0.2431  0.3497
  109OSM    C1S11181   0.665   1.409  10.772  0.1815  0.0057  0.5274
  109OSM    H1S11182   0.733   1.323  10.753  1.2568  0.6619  1.2937
  109OSM    H1T11183   0.732   1.497  10.764  1.8501 -1.0999  1.7063
  109OSM     NF11184   0.661   1.432  10.520  0.0735  0.3071  0.4541
  109OSM    HNF11185   0.681   1.528  10.498 -1.5054  0.9282  1.5675
  109OSM    C2S11186   0.578   1.421  10.644  0.3898 -0.1794 -0.5507
  109OSM    H2S11187   0.511   1.332  10.638 -0.5300  0.5539 -3.9565
  109OSM    C3S11188   0.482   1.545  10.669 -0.3634  0.0268  0.5125
  109OSM    H3S11189   0.540   1.637  10.690 -0.3989  0.3246 -0.6028
  109OSM     O311190   0.397   1.542  10.778 -0.1424  0.6851 -0.1325
  109OSM    HO311191   0.441   1.469  10.823 -1.4726  0.0263  0.1599
  109OSM    C4S11192   0.412   1.568  10.536 -0.1542  0.0775 -0.3859
  109OSM    H4S11193   0.465   1.631  10.463 -0.8468  1.8621  0.5680
  109OSM    C5S11194   0.283   1.539  10.500 -0.0972  0.0612 -0.3709
  109OSM    H5S11195   0.218   1.488  10.573  2.0932 -3.0231 -0.3554
  109OSM    C6S11196   0.229   1.577  10.364 -0.3493 -1.0029 -0.8337
  109OSM    H6S11197   0.251   1.683  10.341 -2.8451 -0.6098 -1.7004
  109OSM    H6T11198   0.119   1.561  10.370 -0.2097 -2.3132 -1.2929
  109OSM    C7S11199   0.291   1.487  10.250  0.6987  0.3323 -0.1402
  109OSM    H7S11200   0.249   1.385  10.264  1.2145 -0.1054 -1.5828
  109OSM    H7T11201   0.398   1.472  10.272  0.1465 -2.0758  1.3375
  109OSM    C8S11202   0.256   1.533  10.107  0.2368 -0.5357  0.1339
  109OSM    H8S11203   0.307   1.631  10.094  0.4514 -0.6778 -0.1025
  109OSM    H8T11204   0.147   1.558  10.111  0.3755  0.2497 -0.7309
  109OSM    C9S11205   0.285   1.431   9.992  1.2485 -0.0853 -0.5198
  109OSM    H9S11206   0.209   1.351  10.009 -0.1171  1.4818  1.2858
  109OSM    H9T11207   0.390   1.401  10.012  1.3384  0.9505  0.7010
  109OSM   C10S11208   0.265   1.490   9.854  0.6568 -1.2564 -0.1947
  109OSM   H10S11209   0.320   1.587   9.853 -0.2090 -0.7547  0.0115
  109OSM   H10T11210   0.158   1.515   9.841  0.8084  1.0932  2.1525
  109OSM   C11S11211   0.310   1.406   9.732 -0.3009 -0.0347 -0.0774
  109OSM   H11S11212   0.247   1.315   9.740  0.9598 -1.1251 -1.7766
  109OSM   H11T11213   0.412   1.363   9.742  0.0873  0.2210 -2.2700
  109OSM   C12S11214   0.281   1.481   9.602 -0.7505  0.1542 -0.3941
  109OSM   H12S11215   0.347   1.570   9.590  1.6628 -1.5509 -0.7194
  109OSM   H12T11216   0.173   1.504   9.602 -0.3983  1.9299 -0.1147
  109OSM   C13S11217   0.315   1.398   9.478  0.4082  0.2437  1.1057
  109OSM   H13S11218   0.264   1.300   9.492  0.7754 -0.2371 -0.6958
  109OSM   H13T11219   0.424   1.375   9.482  0.8593  2.2454  1.0483
  109OSM   C14S11220   0.278   1.461   9.344 -0.3869 -0.0240 -0.8628
  109OSM   H14S11221   0.344   1.546   9.317 -1.1692  0.6041 -0.8299
  109OSM   H14T11222   0.172   1.495   9.343 -0.9389 -1.4750  0.9587
  109OSM   C15S11223   0.295   1.374   9.218 -0.3080  0.6583  0.5189
  109OSM   H15S11224   0.229   1.286   9.230  0.0556  0.2876 -0.1742
  109OSM   H15T11225   0.394   1.324   9.207 -1.6838 -2.4608  1.2813
  109OSM   C16S11226   0.236   1.442   9.096 -0.0947  0.6467 -0.1899
  109OSM   H16S11227   0.269   1.546   9.076 -0.7888  0.8077 -0.5264
  109OSM   H16T11228   0.126   1.449   9.107 -0.3153 -1.0037 -1.0258
  109OSM   C17S11229   0.273   1.357   8.970 -0.3795 -0.3043  0.6010
  109OSM   H17S11230   0.230   1.257   8.992 -0.3154 -1.3240 -3.3378
  109OSM   H17T11231   0.384   1.350   8.974 -0.4248 -0.9322  0.8599
  109OSM   C18S11232   0.231   1.415   8.838 -0.2284  0.3255  0.2939
  109OSM   H18S11233   0.242   1.339   8.757 -1.2927  1.8575 -1.3765
  109OSM   H18T11234   0.294   1.504   8.816  1.0427 -0.9150 -1.3767
  109OSM   H18U11235   0.122   1.435   8.842  0.1505  2.3304  1.7848
  109OSM    C1F11236   0.725   1.325  10.460  0.4064 -0.0651  0.2825
  109OSM     OF11237   0.729   1.217  10.517 -0.1929 -0.1404 -0.2236
  109OSM    C2F11238   0.800   1.341  10.335 -0.1226  0.1994  0.2911
  109OSM    H2F11239   0.896   1.285  10.337  0.0634  0.5085  1.7834
  109OSM    H2G11240   0.825   1.448  10.323  0.4864  0.0114 -0.1529
  109OSM    C3F11241   0.716   1.314  10.208  0.1907  0.0685 -0.2970
  109OSM    H3F11242   0.783   1.343  10.125 -2.6500  0.8958 -2.4277
  109OSM    H3G11243   0.637   1.392  10.205  1.4786  1.7382  3.0661
  109OSM    C4F11244   0.671   1.166  10.199 -0.1809  0.4046  0.2005
  109OSM    H4F11245   0.632   1.134  10.298 -1.1009 -0.6526 -0.4755
  109OSM    H4G11246   0.757   1.099  10.178 -1.9086 -2.0815  0.6038
  109OSM    C5F11247   0.565   1.133  10.093  0.1255  0.2536  0.3800
  109OSM    H5F11248   0.478   1.196  10.120 -0.6328 -1.0543  1.0764
  109OSM    H5G11249   0.542   1.025  10.088 -0.1425  0.3326 -0.1046
  109OSM    C6F11250   0.609   1.164   9.954 -0.1657  0.5732 -0.9116
  109OSM    H6F11251   0.706   1.116   9.930  1.2829  0.7330  3.5600
  109OSM    H6G11252   0.627   1.272   9.942  0.7438  0.4142 -0.9978
  109OSM    C7F11253   0.500   1.114   9.854 -0.1818  0.1222  0.0293
  109OSM    H7F11254   0.406   1.171   9.869 -0.6594 -0.1762 -1.6136
  109OSM    H7G11255   0.475   1.010   9.885 -2.5630  0.3202 -1.0045
  109OSM    C8F11256   0.541   1.126   9.707  0.0342  0.0089 -0.2768
  109OSM    H8F11257   0.640   1.077   9.691  0.1951  0.0512  0.5206
  109OSM    H8G11258   0.552   1.232   9.674 -0.6268  0.7794  1.7781
  109OSM    C9F11259   0.433   1.083   9.611 -0.3817  0.2631 -0.1267
  109OSM    H9F11260   0.331   1.082   9.652 -0.5513 -2.2298 -0.4645
  109OSM   C10F11261   0.451   1.054   9.481  0.1056 -0.0457  0.2875
  109OSM   H10F11262   0.365   1.014   9.425 -0.8593  2.8105 -0.4998
  109OSM   C11F11263   0.586   1.046   9.410  0.4414  0.4338 -0.5372
  109OSM   H11F11264   0.629   0.947   9.433 -1.3902 -0.0814  0.9606
  109OSM   H11G11265   0.660   1.121   9.446  0.3103 -0.3093  1.4186
  109OSM   C12F11266   0.572   1.067   9.258  0.2116 -0.6562 -0.7470
  109OSM   H12F11267   0.568   1.177   9.240  0.0064 -0.1371  1.9737
  109OSM   H12G11268   0.470   1.032   9.233 -0.0086 -2.6146  2.3414
  109OSM   C13F11269   0.674   0.991   9.167  0.0028  0.3193 -0.4385
  109OSM   H13F11270   0.709   0.892   9.200  1.1398  0.2758 -1.6719
  109OSM   H13G11271   0.769   1.049   9.163  1.1906 -1.4167  1.0797
  109OSM   C14F11272   0.616   0.989   9.025 -0.3073 -0.1766 -0.5167
  109OSM   H14F11273   0.578   1.088   8.994 -2.8686 -0.3268  1.7420
  109OSM   H14G11274   0.523   0.928   9.028 -0.8086  0.6134  1.3764
  109OSM   C15F11275   0.707   0.938   8.913  0.6138 -0.4817 -0.0293
  109OSM   H15F11276   0.733   0.830   8.916 -0.0800 -0.6199  1.8318
  109OSM   H15G11277   0.803   0.995   8.913 -0.0406  0.6561 -0.2247
  109OSM   C16F11278   0.632   0.962   8.785  0.4663  0.1270  0.3427
  109OSM   H16F11279   0.608   1.070   8.771  0.4785 -0.0748 -1.4650
  109OSM   H16G11280   0.534   0.910   8.793  0.8398 -0.7054 -0.3363
  109OSM   C17F11281   0.718   0.930   8.663 -0.1163 -0.0000 -0.9973
  109OSM   H17F11282   0.737   0.821   8.665  0.4736 -0.0634 -4.3362
  109OSM   H17G11283   0.812   0.989   8.666 -0.6636  0.9008 -1.4311
  109OSM   C18F11284   0.652   0.956   8.530  0.0605  0.3866  0.1869
  109OSM   H18F11285   0.548   0.919   8.518 -0.0327  0.3414  1.0959
  109OSM   H18G11286   0.718   0.906   8.456  0.8113 -1.6182  2.0875
  109OSM   H18H11287   0.645   1.066   8.512 -0.2587  0.1473 -1.3080
  110OSM      N11288   1.948   5.802  11.055  0.2965  0.3747 -0.3420
  110OSM    C1511289   2.023   5.681  11.113  0.1039  0.0262 -0.1300
  110OSM   H15A11290   1.950   5.606  11.137 -2.0112  0.7671 -3.5484
  110OSM   H15B11291   2.100   5.716  11.180 -0.2768  0.6198  0.0068
  110OSM   H15C11292   2.073   5.640  11.027  2.1304 -2.5565  2.1057
  110OSM    C1411293   1.872   5.869  11.173 -0.2885  0.5956  0.7716
  110OSM   H14A11294   1.938   5.904  11.251  1.4412 -0.6273 -0.0638
  110OSM   H14B11295   1.820   5.791  11.227  1.0186 -0.4971  0.5274
  110OSM   H14C11296   1.810   5.950  11.139 -0.5885  0.3757  0.7874
  110OSM    C1311297   2.047   5.909  10.999 -0.3077 -0.1818  0.5400
  110OSM   H13A11298   2.094   5.960  11.082 -0.4511  0.2492  0.3588
  110OSM   H13B11299   1.989   5.992  10.961 -0.0172  0.7018  1.9295
  110OSM   H13C11300   2.131   5.868  10.946 -0.3104 -1.0105  1.1539
  110OSM    C1211301   1.854   5.758  10.943 -0.4778  0.5856 -0.0516
  110OSM   H12A11302   1.780   5.687  10.977  0.6159 -0.3395  0.4740
  110OSM   H12B11303   1.917   5.715  10.867 -0.8916  1.1695 -0.7316
  110OSM    C1111304   1.777   5.866  10.874  0.2835 -0.2017 -0.2953
  110OSM   H11A11305   1.760   5.839  10.768  2.5944  0.3108 -0.8290
  110OSM   H11B11306   1.830   5.961  10.854  0.5509 -0.6201 -1.6506
  110OSM      P11307   1.539   5.809  10.947  0.3861  0.0017  0.1812
  110OSM    O1311308   1.546   5.703  11.051  0.1417 -0.1759  0.3350
  110OSM    O1411309   1.428   5.904  10.967 -0.5779  0.1911 -0.5804
  110OSM    O1111310   1.537   5.766  10.795  0.1394  0.3256  0.6548
  110OSM    O1211311   1.663   5.896  10.958 -0.0684  0.4728  0.0508
  110OSM    C1S11312   1.481   5.855  10.706  0.5615 -0.0502  0.5231
  110OSM    H1S11313   1.540   5.949  10.703  1.0394 -0.2785  1.8385
  110OSM    H1T11314   1.379   5.884  10.738  0.6471  0.0057  0.7471
  110OSM     NF11315   1.459   5.897  10.465  0.5973  0.0916 -1.1034
  110OSM    HNF11316   1.367   5.912  10.428  1.1747  1.8483 -1.9569
  110OSM    C2S11317   1.474   5.795  10.568 -0.2448 -0.2201  0.4899
  110OSM    H2S11318   1.571   5.743  10.553  0.1875  0.9266 -0.8469
  110OSM    C3S11319   1.364   5.685  10.563  0.1068 -0.1866  0.4274
  110OSM    H3S11320   1.267   5.737  10.572  0.5758  1.2326 -2.0096
  110OSM     O311321   1.367   5.595  10.681  0.1140 -0.3569  0.2226
  110OSM    HO311322   1.418   5.650  10.741  1.1617 -2.9513  1.8762
  110OSM    C4S11323   1.365   5.618  10.428 -0.0355  0.5768  0.3831
  110OSM    H4S11324   1.309   5.673  10.351  0.2928  1.4760  0.7638
  110OSM    C5S11325   1.437   5.511  10.391 -0.1881  0.4646 -0.1058
  110OSM    H5S11326   1.489   5.448  10.465 -0.8620  0.2792  0.2171
  110OSM    C6S11327   1.437   5.462  10.246  0.2206  0.2875 -0.4352
  110OSM    H6S11328   1.367   5.377  10.233 -0.7177  1.2489 -2.0529
  110OSM    H6T11329   1.537   5.427  10.212 -0.0141  0.2311 -1.0706
  110OSM    C7S11330   1.391   5.561  10.130 -0.2284  0.1511 -0.7273
  110OSM    H7S11331   1.444   5.657  10.149 -1.8714  0.3133  4.2461
  110OSM    H7T11332   1.281   5.572  10.127 -0.1198  2.1370  0.5440
  110OSM    C8S11333   1.429   5.501   9.995  0.2102 -0.5353  0.2877
  110OSM    H8S11334   1.396   5.395   9.985 -0.3739 -0.3279 -0.0617
  110OSM    H8T11335   1.539   5.511   9.988  0.0167  1.0852 -0.9419
  110OSM    C9S11336   1.365   5.579   9.880 -0.3548 -0.4333  1.2862
  110OSM    H9S11337   1.403   5.683   9.888 -0.6023 -0.1919 -0.3514
  110OSM    H9T11338   1.255   5.573   9.892 -0.6593 -2.3886 -1.5185
  110OSM   C10S11339   1.409   5.519   9.740 -0.1904  0.1036 -0.8381
  110OSM   H10S11340   1.353   5.424   9.732 -1.2984  0.6347  0.2437
  110OSM   H10T11341   1.516   5.490   9.729  0.4521  1.7458  0.4897
  110OSM   C11S11342   1.369   5.606   9.621 -0.4230 -0.4582  0.0588
  110OSM   H11S11343   1.423   5.703   9.626  3.4402 -2.0135 -4.2097
  110OSM   H11T11344   1.258   5.613   9.616 -0.6110 -2.0276  1.2202
  110OSM   C12S11345   1.399   5.544   9.479 -0.2555  0.0618  0.3844
  110OSM   H12S11346   1.323   5.471   9.443 -1.2038  1.8601 -1.4792
  110OSM   H12T11347   1.493   5.486   9.482  0.0014  0.5062  0.9970
  110OSM   C13S11348   1.405   5.647   9.366 -0.1634 -0.0671  0.0194
  110OSM   H13S11349   1.462   5.739   9.387  0.2658 -0.8328  2.5241
  110OSM   H13T11350   1.298   5.676   9.359 -0.8648 -2.1558  1.1659
  110OSM   C14S11351   1.442   5.575   9.236 -0.3054  0.0834 -0.1789
  110OSM   H14S11352   1.399   5.473   9.240 -1.1044  0.3946 -0.7322
  110OSM   H14T11353   1.550   5.547   9.231  0.1726  2.0052 -1.9651
  110OSM   C15S11354   1.413   5.645   9.106 -0.0492  0.1284 -0.3750
  110OSM   H15S11355   1.480   5.734   9.107  0.6352 -0.3692 -0.9620
  110OSM   H15T11356   1.307   5.676   9.118  0.4399  1.5301  0.5103
  110OSM   C16S11357   1.432   5.549   8.981 -0.0754  0.5096 -0.8416
  110OSM   H16S11358   1.374   5.457   9.001  1.6886 -0.5859 -0.5410
  110OSM   H16T11359   1.536   5.517   8.957 -0.7004 -1.3818 -1.1270
  110OSM   C17S11360   1.390   5.611   8.845  0.3412 -0.0783 -0.2958
  110OSM   H17S11361   1.457   5.698   8.823  0.7818  0.2412  2.0402
  110OSM   H17T11362   1.282   5.638   8.849  0.4222  0.1126  1.5282
  110OSM   C18S11363   1.407   5.504   8.736 -0.5107  0.0166  0.0270
  110OSM   H18S11364   1.509   5.460   8.735 -0.4149  0.2284 -1.2067
  110OSM   H18T11365   1.374   5.540   8.636 -1.3772 -2.2866 -0.5727
  110OSM   H18U11366   1.332   5.423   8.751 -0.9210  0.4433  0.3146
  110OSM    C1F11367   1.550   5.989  10.442 -0.1789 -0.0302 -0.0603
  110OSM     OF11368   1.662   5.987  10.488 -0.1826  0.4764 -0.1316
  110OSM    C2F11369   1.505   6.095  10.348  0.6797  0.0461 -0.2776
  110OSM    H2F11370   1.529   6.197  10.384 -0.3094  0.4554 -0.7456
  110OSM    H2G11371   1.398   6.111  10.323  0.8894  3.1284  0.3638
  110OSM    C3F11372   1.575   6.066  10.212  0.4244  0.5206 -0.1333
  110OSM    H3F11373   1.565   5.956  10.196 -1.8191  0.0231  3.4992
  110OSM    H3G11374   1.685   6.083  10.219  0.6369  0.0671 -1.9363
  110OSM    C4F11375   1.526   6.147  10.082 -0.5126  0.1388  0.0641
  110OSM    H4F11376   1.562   6.249  10.103 -0.9729  0.1026  1.0861
  110OSM    H4G11377   1.416   6.132  10.075 -0.3692 -0.4695 -1.0804
  110OSM    C5F11378   1.572   6.087   9.953  0.1182  0.2322 -0.1495
  110OSM    H5F11379   1.529   5.985   9.940 -0.8989  0.3765  1.7638
  110OSM    H5G11380   1.682   6.078   9.962  0.2678  2.2813  0.4014
  110OSM    C6F11381   1.550   6.172   9.828  0.1063 -0.0123  0.1293
  110OSM    H6F11382   1.594   6.273   9.841  1.1719 -0.4355 -0.0902
  110OSM    H6G11383   1.441   6.184   9.809 -0.0417  0.7739  1.3846
  110OSM    C7F11384   1.607   6.094   9.711  0.2346  0.0355 -0.1606
  110OSM    H7F11385   1.568   5.990   9.710  3.4822 -1.2750 -0.8196
  110OSM    H7G11386   1.714   6.072   9.731  0.0284 -0.8683 -0.0275
  110OSM    C8F11387   1.578   6.165   9.579 -0.5050  0.5703 -0.1207
  110OSM    H8F11388   1.478   6.212   9.580 -1.1008 -0.6158  1.8590
  110OSM    H8G11389   1.563   6.094   9.494 -2.2843  0.3244  0.3617
  110OSM    C9F11390   1.686   6.259   9.539 -0.7555 -0.1407 -0.0908
  110OSM    H9F11391   1.754   6.265   9.625 -2.4463 -2.6165  1.5401
  110OSM   C10F11392   1.706   6.325   9.421 -0.2190  0.5107  0.2819
  110OSM   H10F11393   1.785   6.399   9.404  1.1113 -1.3121 -2.1460
  110OSM   C11F11394   1.612   6.319   9.296 -0.2495 -0.6497 -0.2396
  110OSM   H11F11395   1.532   6.244   9.315  1.1209 -1.5693  2.4444
  110OSM   H11G11396   1.669   6.270   9.214 -0.1433 -2.9285  1.1061
  110OSM   C12F11397   1.571   6.456   9.250 -0.1755  0.0761  0.7794
  110OSM   H12F11398   1.527   6.520   9.329  0.4743 -1.0871  2.1119
  110OSM   H12G11399   1.503   6.450   9.162 -0.8143 -1.0250  1.3317
  110OSM   C13F11400   1.678   6.550   9.198  0.3975  0.2844  0.3360
  110OSM   H13F11401   1.722   6.479   9.124 -0.2350  0.2322  0.0078
  110OSM   H13G11402   1.756   6.579   9.272  0.2285  0.9879  0.2487
  110OSM   C14F11403   1.630   6.679   9.125  0.0640  0.4586  0.2713
  110OSM   H14F11404   1.565   6.729   9.200 -0.8436  1.6998 -1.2767
  110OSM   H14G11405   1.564   6.659   9.037 -0.9467  2.6634  0.4719
  110OSM   C15F11406   1.753   6.764   9.094 -0.7163 -0.6607  0.0293
  110OSM   H15F11407   1.814   6.715   9.015 -2.0372  1.1636 -2.2345
  110OSM   H15G11408   1.821   6.774   9.182  1.2979 -0.9854 -1.4310
  110OSM   C16F11409   1.720   6.903   9.046  0.6806 -0.1898  0.0598
  110OSM   H16F11410   1.714   6.986   9.119 -1.1847  0.0474 -0.3128
  110OSM   H16G11411   1.618   6.897   9.003  0.2978 -0.7083  1.0014
  110OSM   C17F11412   1.804   6.948   8.933 -0.1864  0.7687  0.9978
  110OSM   H17F11413   1.909   6.916   8.949  0.2685  1.0578 -1.1358
  110OSM   H17G11414   1.807   7.059   8.926 -0.9941  0.8630  1.9248
  110OSM   C18F11415   1.750   6.894   8.799  0.2210  0.3500  0.3090
  110OSM   H18F11416   1.653   6.947   8.793  0.2794  0.3664 -0.6842
  110OSM   H18G11417   1.738   6.784   8.809  1.6148  0.2114  0.5918
  110OSM   H18H11418   1.804   6.927   8.708  1.5841 -1.9433  0.1988
  111OSM      N11419   1.117   5.011  10.825  0.3320 -0.3541 -0.1622
  111OSM    C1511420   1.205   5.124  10.878  0.2087 -0.3625  0.0764
  111OSM   H15A11421   1.151   5.204  10.927 -1.0731 -1.0374 -0.1873
  111OSM   H15B11422   1.272   5.166  10.805 -0.3905  0.1877 -0.1687
  111OSM   H15C11423   1.265   5.079  10.956 -1.4273 -3.0265 -0.0446
  111OSM    C1411424   1.027   4.960  10.933 -0.0554  0.3622 -0.3156
  111OSM   H14A11425   1.085   4.928  11.018  0.8177 -1.4863 -1.5444
  111OSM   H14B11426   0.965   4.877  10.904 -1.0749  1.0559 -0.1634
  111OSM   H14C11427   0.962   5.042  10.962 -0.3142 -0.3838  1.3151
  111OSM    C1311428   1.028   5.067  10.714  0.1139 -0.5951  0.4233
  111OSM   H13A11429   0.958   5.133  10.764 -0.1566 -0.8924  0.4413
  111OSM   H13B11430   0.962   4.994  10.671 -0.8370  0.2253  0.4377
  111OSM   H13C11431   1.088   5.104  10.632  0.2852  1.3233  1.3453
  111OSM    C1211432   1.200   4.905  10.762 -0.7804 -0.3285  0.2042
  111OSM   H12A11433   1.274   4.949  10.697  1.3022 -0.4064  2.4017
  111OSM   H12B11434   1.128   4.837  10.717 -0.4118 -0.8823  0.4422
  111OSM    C1111435   1.279   4.808  10.862 -0.1539  0.3213 -0.4636
  111OSM   H11A11436   1.324   4.728  10.800 -0.4551  1.8730 -2.7867
  111OSM   H11B11437   1.206   4.758  10.930  0.8278  0.8084  1.0182
  111OSM      P11438   1.514   4.913  10.882 -0.0397  0.2863 -0.1887
  111OSM    O1311439   1.571   5.019  10.964  0.0689  0.0570 -0.0234
  111OSM    O1411440   1.582   4.781  10.873  0.3508 -0.5513 -0.7196
  111OSM    O1111441   1.488   4.971  10.736 -0.6382  0.1048 -0.2189
  111OSM    O1211442   1.373   4.885  10.934  0.0411 -0.5586 -0.3275
  111OSM    C1S11443   1.592   5.026  10.655  0.3021  0.1236  0.6112
  111OSM    H1S11444   1.691   4.980  10.673  0.3151  0.2304  0.8041
  111OSM    H1T11445   1.596   5.133  10.682 -3.0998  0.3319  0.7608
  111OSM     NF11446   1.682   5.001  10.417 -0.3447  0.0084  0.4007
  111OSM    HNF11447   1.705   5.073  10.352  2.2195 -0.9205  0.1806
  111OSM    C2S11448   1.560   5.013  10.497 -0.2339  0.0583 -0.7921
  111OSM    H2S11449   1.525   4.907  10.499 -1.2943  0.3963 -0.8466
  111OSM    C3S11450   1.454   5.119  10.460 -0.8303  0.1437  0.5647
  111OSM    H3S11451   1.512   5.213  10.465 -0.3604 -0.1863  1.7772
  111OSM     O311452   1.342   5.123  10.549  0.8718  0.1902 -0.0291
  111OSM    HO311453   1.377   5.078  10.627 -0.2750 -0.6523  0.0287
  111OSM    C4S11454   1.415   5.102  10.315  0.4496 -0.5468 -0.4355
  111OSM    H4S11455   1.476   5.165  10.248 -1.3903  0.7821 -0.9298
  111OSM    C5S11456   1.327   5.020  10.261  0.5572 -0.3255 -0.6576
  111OSM    H5S11457   1.267   4.960  10.330  1.6426  0.6163  1.2046
  111OSM    C6S11458   1.295   5.021  10.109  0.8156 -0.2238 -0.2085
  111OSM    H6S11459   1.265   4.916  10.091 -1.1169  0.1679  0.5496
  111OSM    H6T11460   1.392   5.053  10.064  1.0725 -3.4274 -2.2300
  111OSM    C7S11461   1.194   5.132  10.070  0.3254 -0.3566  0.7048
  111OSM    H7S11462   1.231   5.236  10.086 -2.8230  0.8653  0.6122
  111OSM    H7T11463   1.103   5.143  10.132 -1.0033 -2.0378 -0.8235
  111OSM    C8S11464   1.151   5.109   9.924  0.0775 -0.3635 -0.4109
  111OSM    H8S11465   1.076   5.188   9.902  1.5377  1.0691 -0.4215
  111OSM    H8T11466   1.103   5.009   9.911  1.1329 -0.8692 -0.5496
  111OSM    C9S11467   1.266   5.120   9.824  0.3150  0.0386  0.6801
  111OSM    H9S11468   1.324   5.026   9.829  0.4981  0.2133  2.7312
  111OSM    H9T11469   1.328   5.210   9.844  1.9960 -0.6510 -1.1136
  111OSM   C10S11470   1.217   5.122   9.675  0.0524  0.9828  1.0107
  111OSM   H10S11471   1.175   5.222   9.651 -1.6808 -0.3164 -2.0178
  111OSM   H10T11472   1.135   5.051   9.649 -1.2190  2.9950 -0.8294
  111OSM   C11S11473   1.335   5.100   9.576 -0.4796  0.2510  0.3990
  111OSM   H11S11474   1.370   4.994   9.574 -0.0236  0.3763  1.3105
  111OSM   H11T11475   1.415   5.166   9.615  1.8197 -2.7979  1.2389
  111OSM   C12S11476   1.302   5.143   9.439 -0.6631 -0.3187  0.6645
  111OSM   H12S11477   1.346   5.245   9.431 -2.1686  0.3919  1.0801
  111OSM   H12T11478   1.192   5.157   9.440 -0.5869  0.6040 -0.6558
  111OSM   C13S11479   1.341   5.037   9.340  0.1765  0.3021 -0.1380
  111OSM   H13S11480   1.301   4.937   9.367 -1.1660  0.2238 -2.1311
  111OSM   H13T11481   1.451   5.031   9.332  0.3525  1.6034  1.0056
  111OSM   C14S11482   1.293   5.064   9.198  0.3131 -0.0192 -0.3376
  111OSM   H14S11483   1.283   5.174   9.181  1.6636 -0.3039 -3.7989
  111OSM   H14T11484   1.188   5.030   9.195 -0.1737  1.4335 -1.7767
  111OSM   C15S11485   1.367   4.998   9.079  0.1512  0.3792  0.3145
  111OSM   H15S11486   1.371   4.888   9.097 -1.5937  0.5360  2.0345
  111OSM   H15T11487   1.471   5.037   9.077  0.5402 -0.6757 -1.2870
  111OSM   C16S11488   1.297   5.012   8.939 -0.0367 -0.4531 -0.3202
  111OSM   H16S11489   1.186   5.014   8.948 -0.0190  1.3083 -0.1508
  111OSM   H16T11490   1.312   4.912   8.893  0.2572 -0.2144 -0.7533
  111OSM   C17S11491   1.349   5.114   8.846  0.2337 -0.1366 -0.7563
  111OSM   H17S11492   1.346   5.219   8.882 -0.3387  0.2815 -1.9466
  111OSM   H17T11493   1.273   5.115   8.764  0.2458 -1.8153 -0.8092
  111OSM   C18S11494   1.493   5.086   8.789  0.3282  0.6571  0.3696
  111OSM   H18S11495   1.507   4.979   8.761  0.3845  0.8515 -0.3447
  111OSM   H18T11496   1.557   5.102   8.879 -0.0042 -1.1877  0.9972
  111OSM   H18U11497   1.529   5.156   8.711 -0.1994 -0.3302 -0.7990
  111OSM    C1F11498   1.776   4.907  10.429 -0.0934  0.2495  0.1421
  111OSM     OF11499   1.750   4.801  10.485  0.2424  0.0586  0.0599
  111OSM    C2F11500   1.915   4.938  10.373  0.7621 -0.3547 -0.3910
  111OSM    H2F11501   1.986   4.972  10.451 -1.3060 -0.9470  1.8514
  111OSM    H2G11502   1.899   5.027  10.309 -1.3450 -0.9322 -0.7316
  111OSM    C3F11503   1.967   4.824  10.286 -0.2058  0.1590  0.4787
  111OSM    H3F11504   1.888   4.785  10.219 -0.5904 -1.7248  1.9313
  111OSM    H3G11505   2.010   4.737  10.342 -0.7807 -1.4005 -1.4016
  111OSM    C4F11506   2.091   4.868  10.205 -0.3048  0.4643  0.1418
  111OSM    H4F11507   2.167   4.906  10.276 -0.3435 -0.8109  0.8973
  111OSM    H4G11508   2.072   4.951  10.134 -0.5267  0.3065  0.0146
  111OSM    C5F11509   2.157   4.754  10.132 -0.2112 -0.0503  0.1275
  111OSM    H5F11510   2.088   4.708  10.058 -0.5711 -1.5755  1.3584
  111OSM    H5G11511   2.180   4.671  10.201  0.6323  0.7907  0.8798
  111OSM    C6F11512   2.290   4.806  10.083 -0.4907  0.0055 -0.8790
  111OSM    H6F11513   2.351   4.830  10.173 -0.2751 -2.7762 -0.1738
  111OSM    H6G11514   2.267   4.895  10.022 -0.4367  1.6543  1.3777
  111OSM    C7F11515   2.371   4.714   9.994 -0.1309  0.0338  0.1220
  111OSM    H7F11516   2.391   4.615  10.039 -0.6129 -0.4193 -0.6319
  111OSM    H7G11517   2.467   4.758   9.960  0.5066 -1.9254 -0.7256
  111OSM    C8F11518   2.297   4.668   9.865 -0.1685 -0.1425  0.3683
  111OSM    H8F11519   2.198   4.624   9.892 -1.0717  2.8400  2.3653
  111OSM    H8G11520   2.366   4.587   9.833 -0.5096 -0.8555  1.3933
  111OSM    C9F11521   2.282   4.768   9.750 -0.1234  0.1413  0.0999
  111OSM    H9F11522   2.230   4.860   9.783 -0.3228  0.2992 -0.6439
  111OSM   C10F11523   2.326   4.759   9.624 -0.3025  0.2782 -0.6242
  111OSM   H10F11524   2.297   4.843   9.559 -1.1103 -0.0858 -0.7376
  111OSM   C11F11525   2.402   4.643   9.570 -0.0045  0.4968 -0.4566
  111OSM   H11F11526   2.378   4.550   9.627  1.1096  0.4694 -0.0051
  111OSM   H11G11527   2.512   4.650   9.574  0.1240 -0.4668 -1.5537
  111OSM   C12F11528   2.384   4.616   9.417 -0.2399  1.0335  0.3518
  111OSM   H12F11529   2.282   4.642   9.383  0.9361  0.6896 -4.1219
  111OSM   H12G11530   2.406   4.508   9.402  0.6549  1.4537 -1.6778
  111OSM   C13F11531   2.473   4.698   9.324 -0.4094 -0.3966  0.2384
  111OSM   H13F11532   2.576   4.688   9.365 -0.9845 -2.8219  1.3261
  111OSM   H13G11533   2.436   4.802   9.311  1.0485  0.0401 -0.6364
  111OSM   C14F11534   2.467   4.622   9.184  0.0359 -0.4428  0.4702
  111OSM   H14F11535   2.364   4.632   9.144 -0.6553  0.9577  2.4371
  111OSM   H14G11536   2.497   4.516   9.200  1.0898 -0.1291  0.6562
  111OSM   C15F11537   2.566   4.678   9.083  0.2425  0.2951  0.4925
  111OSM   H15F11538   2.663   4.711   9.127  1.6656 -1.1464 -1.3867
  111OSM   H15G11539   2.512   4.760   9.031  0.1721  0.8971  1.4870
  111OSM   C16F11540   2.606   4.574   8.970  0.1797 -0.6785 -0.0726
  111OSM   H16F11541   2.616   4.474   9.016 -3.4196  0.4331  3.8073
  111OSM   H16G11542   2.708   4.594   8.930 -0.7889 -0.2940 -2.5533
  111OSM   C17F11543   2.504   4.558   8.858 -0.1964 -0.3887  0.5654
  111OSM   H17F11544   2.500   4.653   8.800  0.4901 -0.7362 -0.0646
  111OSM   H17G11545   2.402   4.542   8.899 -1.5651  2.2051 -1.5484
  111OSM   C18F11546   2.536   4.441   8.760  0.7982 -0.4088 -0.7777
  111OSM   H18F11547   2.465   4.454   8.675  0.5202 -1.1169 -0.6598
  111OSM   H18G11548   2.518   4.335   8.789 -3.2667  0.2398 -0.3334
  111OSM   H18H11549   2.637   4.466   8.719  1.1384 -1.1754 -0.4235
  112OSM      N11550   1.844   2.683  10.717  0.4353 -0.0904 -0.2402
  112OSM    C1511551   1.958   2.707  10.626  0.7637 -0.5152 -0.4042
  112OSM   H15A11552   1.942   2.659  10.531 -4.5916  0.9378 -0.5361
  112OSM   H15B11553   2.052   2.668  10.663  2.8835  1.4747 -3.2400
  112OSM   H15C11554   1.980   2.812  10.611 -0.6168 -0.2179 -0.4678
  112OSM    C1411555   1.839   2.535  10.749 -0.4930 -0.0332  0.4387
  112OSM   H14A11556   1.825   2.478  10.659  3.4772 -1.3229  0.4489
  112OSM   H14B11557   1.756   2.517  10.816 -0.7217  0.6476  0.3529
  112OSM   H14C11558   1.932   2.505  10.795  0.2379  1.7992  0.2534
  112OSM    C1311559   1.873   2.761  10.846 -0.1038 -0.3194  0.4408
  112OSM   H13A11560   1.810   2.733  10.929  0.7892  2.4460  2.2190
  112OSM   H13B11561   1.861   2.867  10.827 -1.0099 -0.6850 -1.2249
  112OSM   H13C11562   1.975   2.742  10.877  0.6367  0.7479 -1.2082
  112OSM    C1211563   1.716   2.728  10.658 -0.1226 -0.1400  0.5421
  112OSM   H12A11564   1.683   2.665  10.576  0.8831  0.2641 -0.1858
  112OSM   H12B11565   1.715   2.826  10.613 -0.9160 -0.6386 -0.5724
  112OSM    C1111566   1.591   2.751  10.745 -0.2762  0.3341  0.0271
  112OSM   H11A11567   1.507   2.780  10.678 -0.0406 -0.0665 -0.4494
  112OSM   H11B11568   1.608   2.837  10.814  1.9267 -1.5308  1.9687
  112OSM      P11569   1.455   2.521  10.788 -0.1855  0.2542  0.0900
  112OSM    O1311570   1.501   2.396  10.856 -0.4571  0.3926 -0.1116
  112OSM    O1411571   1.321   2.565  10.832 -0.0504  0.5048  0.7631
  112OSM    O1111572   1.469   2.494  10.635 -0.3273 -0.1445  0.4891
  112OSM    O1211573   1.561   2.632  10.821  0.0191 -0.0139  0.1034
  112OSM    C1S11574   1.353   2.488  10.560  0.3444  1.1222  0.3129
  112OSM    H1S11575   1.304   2.586  10.545  1.4374  1.4473 -1.3472
  112OSM    H1T11576   1.286   2.410  10.602 -2.2248  2.5787 -0.8797
  112OSM     NF11577   1.267   2.439  10.334 -0.2950  0.0975  0.1122
  112OSM    HNF11578   1.236   2.344  10.323  2.8746 -0.8903 -1.2785
  112OSM    C2S11579   1.388   2.442  10.418  0.3406 -0.7458 -0.3646
  112OSM    H2S11580   1.464   2.519  10.393 -2.8484  3.0916  0.7904
  112OSM    C3S11581   1.455   2.302  10.422  0.5790  0.0521 -0.3484
  112OSM    H3S11582   1.373   2.232  10.448 -0.5381  1.2414 -0.5991
  112OSM     O311583   1.560   2.288  10.520  0.2555  0.5682  0.2711
  112OSM    HO311584   1.549   2.369  10.570  3.1229 -0.7099  3.3551
  112OSM    C4S11585   1.504   2.265  10.284  0.0171 -0.5785  0.2429
  112OSM    H4S11586   1.420   2.222  10.227 -1.2801  1.6927  0.3313
  112OSM    C5S11587   1.623   2.271  10.223  0.3232  0.4345  0.0895
  112OSM    H5S11588   1.713   2.311  10.271 -0.3737  0.7240  1.1821
  112OSM    C6S11589   1.652   2.233  10.081  0.1631  1.0372 -0.4006
  112OSM    H6S11590   1.693   2.130  10.085  0.7406  1.2870  0.1778
  112OSM    H6T11591   1.710   2.310  10.026 -0.7979  0.9971 -1.5244
  112OSM    C7S11592   1.528   2.231   9.993  0.3842 -0.2741  0.6758
  112OSM    H7S11593   1.466   2.322  10.006  0.7972  0.0920  0.1372
  112OSM    H7T11594   1.457   2.147  10.010 -4.0254  2.9579  0.0535
  112OSM    C8S11595   1.548   2.232   9.837 -0.6148 -0.0055  0.3339
  112OSM    H8S11596   1.608   2.143   9.808 -0.1431  0.0337  1.1636
  112OSM    H8T11597   1.608   2.321   9.807  0.8802 -0.6658  1.2724
  112OSM    C9S11598   1.414   2.243   9.768 -0.3550 -0.0748  0.0775
  112OSM    H9S11599   1.356   2.332   9.800 -1.1174  0.0975 -1.6568
  112OSM    H9T11600   1.360   2.160   9.819  0.9279  1.8029  4.9733
  112OSM   C10S11601   1.411   2.231   9.616 -0.5440 -0.2239  1.2198
  112OSM   H10S11602   1.446   2.324   9.566  0.5631  0.1542  2.6427
  112OSM   H10T11603   1.303   2.232   9.589 -0.7322 -0.3374  1.9476
  112OSM   C11S11604   1.491   2.115   9.551 -0.3056 -0.4231 -0.3638
  112OSM   H11S11605   1.460   2.028   9.613 -1.7796  1.0643  1.1148
  112OSM   H11T11606   1.600   2.131   9.570 -0.4488  0.2338 -0.0413
  112OSM   C12S11607   1.450   2.099   9.406 -0.0357 -0.7844  0.1700
  112OSM   H12S11608   1.449   2.196   9.353 -2.5825  0.1697  1.7986
  112OSM   H12T11609   1.348   2.057   9.406 -0.2743 -0.3046  2.3165
  112OSM   C13S11610   1.539   1.995   9.345  0.3141  1.1260  0.2405
  112OSM   H13S11611   1.517   1.900   9.398 -0.3854  0.4291 -1.2285
  112OSM   H13T11612   1.645   2.021   9.362  0.4826 -0.1638  1.2695
  112OSM   C14S11613   1.498   1.964   9.201  0.0722  0.2112 -0.2773
  112OSM   H14S11614   1.391   1.933   9.203 -0.3733  1.4580 -2.0492
  112OSM   H14T11615   1.557   1.881   9.157 -0.0862 -0.0746  0.0423
  112OSM   C15S11616   1.507   2.081   9.100  0.0183  0.1507  0.4343
  112OSM   H15S11617   1.580   2.160   9.129 -2.2476  0.8938  5.0628
  112OSM   H15T11618   1.411   2.136   9.093  0.0557  0.0752 -0.8109
  112OSM   C16S11619   1.538   2.022   8.961  0.8460 -0.6841  0.1467
  112OSM   H16S11620   1.465   1.947   8.926  1.2634 -0.0159 -2.3099
  112OSM   H16T11621   1.637   1.972   8.948  1.1509  0.0083 -0.2103
  112OSM   C17S11622   1.546   2.118   8.838 -0.2237  0.3864 -0.2301
  112OSM   H17S11623   1.455   2.181   8.834 -1.0599 -0.6478  1.4835
  112OSM   H17T11624   1.555   2.054   8.748 -0.5690 -0.2410  0.1734
  112OSM   C18S11625   1.666   2.198   8.850 -0.0098 -0.4535  0.8808
  112OSM   H18S11626   1.754   2.130   8.862  0.9427  0.6466  0.3181
  112OSM   H18T11627   1.656   2.271   8.933  0.7821  2.1724 -1.2045
  112OSM   H18U11628   1.689   2.255   8.758 -1.6251  0.8486  1.2416
  112OSM    C1F11629   1.209   2.547  10.287 -0.8372 -0.2455  0.3594
  112OSM     OF11630   1.258   2.661  10.307  0.1306  0.0131 -0.3493
  112OSM    C2F11631   1.078   2.527  10.220  0.7411  1.0391  1.0284
  112OSM    H2F11632   0.993   2.534  10.291  0.1500  0.8942  0.3450
  112OSM    H2G11633   1.074   2.426  10.173  0.0685  2.0686 -1.2921
  112OSM    C3F11634   1.047   2.618  10.102  0.3013 -0.8290 -0.1588
  112OSM    H3F11635   1.070   2.719  10.140 -2.1062 -0.6678  1.0549
  112OSM    H3G11636   0.941   2.607  10.071  0.1566 -2.5552  0.8102
  112OSM    C4F11637   1.127   2.592   9.976 -0.6406 -0.4052  0.9777
  112OSM    H4F11638   1.134   2.481   9.973  0.4030 -0.3422  0.5323
  112OSM    H4G11639   1.234   2.622   9.976 -1.2836  2.1187  0.3822
  112OSM    C5F11640   1.047   2.632   9.854  0.2083 -0.5648  0.1643
  112OSM    H5F11641   0.990   2.721   9.889  1.6691  0.2888  0.4605
  112OSM    H5G11642   0.972   2.553   9.833  0.7208 -1.1418  0.5018
  112OSM    C6F11643   1.129   2.677   9.731  0.0463 -0.5573 -0.1560
  112OSM    H6F11644   1.216   2.743   9.748  1.9267 -2.9727  0.1605
  112OSM    H6G11645   1.054   2.729   9.667  0.4638 -0.3864 -0.5096
  112OSM    C7F11646   1.183   2.559   9.650  0.1249 -0.5750  0.3202
  112OSM    H7F11647   1.106   2.479   9.647  0.0073 -0.5736  2.0863
  112OSM    H7G11648   1.270   2.525   9.710 -0.5064  0.6677  2.0185
  112OSM    C8F11649   1.233   2.605   9.516 -0.1218 -0.6259 -0.6396
  112OSM    H8F11650   1.304   2.520   9.501 -0.1314 -0.5974 -0.8482
  112OSM    H8G11651   1.310   2.685   9.521  0.2035 -1.0213  1.6569
  112OSM    C9F11652   1.129   2.643   9.407 -0.5427 -0.1612 -0.6491
  112OSM    H9F11653   1.081   2.739   9.432 -0.2875 -0.5396  1.5408
  112OSM   C10F11654   1.101   2.577   9.300 -0.9782  0.1264 -0.1694
  112OSM   H10F11655   1.023   2.614   9.233  0.9785  3.1031 -1.0005
  112OSM   C11F11656   1.168   2.444   9.252 -0.8869  0.2208 -0.9757
  112OSM   H11F11657   1.100   2.380   9.192 -2.7280  2.2158 -1.1304
  112OSM   H11G11658   1.202   2.388   9.342  1.6828  1.1080 -1.3236
  112OSM   C12F11659   1.309   2.463   9.178  0.3694 -0.4391 -0.1179
  112OSM   H12F11660   1.359   2.367   9.153  1.1829 -0.3289  1.0163
  112OSM   H12G11661   1.377   2.522   9.243  0.0283 -1.8488  1.6203
  112OSM   C13F11662   1.297   2.539   9.044  0.2838  0.1359  0.2630
  112OSM   H13F11663   1.240   2.488   8.963 -0.3582  1.0968  0.1068
  112OSM   H13G11664   1.400   2.534   9.001  0.5667 -2.1870  1.0449
  112OSM   C14F11665   1.250   2.684   9.039  0.3786  0.6636 -0.3468
  112OSM   H14F11666   1.312   2.736   9.115  0.9264 -0.6423  0.1285
  112OSM   H14G11667   1.142   2.678   9.063 -0.1233  2.5778 -1.8089
  112OSM   C15F11668   1.258   2.748   8.901  0.3918  0.0326  0.8256
  112OSM   H15F11669   1.358   2.718   8.863  2.9144  2.1124  5.0702
  112OSM   H15G11670   1.259   2.858   8.922 -2.2429  0.5664 -1.3382
  112OSM   C16F11671   1.131   2.713   8.818 -0.4708  0.1282 -0.4501
  112OSM   H16F11672   1.035   2.747   8.863 -0.8329 -1.9945  0.4933
  112OSM   H16G11673   1.119   2.602   8.820 -1.5550  0.2385  0.6538
  112OSM   C17F11674   1.139   2.777   8.680  1.2857 -0.4146  1.0955
  112OSM   H17F11675   1.059   2.733   8.617  0.5403  1.0294  1.0027
  112OSM   H17G11676   1.238   2.761   8.632  0.2392  0.0685 -1.3789
  112OSM   C18F11677   1.109   2.925   8.682 -0.1217  0.1899  0.0831
  112OSM   H18F11678   1.001   2.947   8.692 -0.1016 -0.2503  1.4969
  112OSM   H18G11679   1.142   2.971   8.586 -1.7187  2.5296  0.5730
  112OSM   H18H11680   1.159   2.980   8.764  1.5057 -0.9915 -0.0687
  113OSM      N11681   1.691   1.702  11.243  0.2453 -0.6769  0.3487
  113OSM    C1511682   1.567   1.758  11.187 -0.1934 -0.2477 -0.2031
  113OSM   H15A11683   1.590   1.851  11.138  2.5368 -0.2117  0.9690
  113OSM   H15B11684   1.508   1.784  11.273  0.9039  0.7912  0.2702
  113OSM   H15C11685   1.501   1.702  11.122 -0.8605  0.7476 -0.3909
  113OSM    C1411686   1.766   1.803  11.331  0.6950 -0.1976 -0.2757
  113OSM   H14A11687   1.689   1.840  11.397 -1.2634 -2.2008 -1.2925
  113OSM   H14B11688   1.799   1.885  11.269  2.3443  1.0986  2.1530
  113OSM   H14C11689   1.849   1.752  11.377  2.0747  0.3878 -1.9836
  113OSM    C1311690   1.646   1.595  11.336  0.3858 -0.2777  0.4127
  113OSM   H13A11691   1.581   1.641  11.409  0.0402  1.3302 -0.8281
  113OSM   H13B11692   1.734   1.555  11.383  0.6206 -0.0714  0.1551
  113OSM   H13C11693   1.592   1.524  11.275  2.2745 -1.4056 -0.0170
  113OSM    C1211694   1.792   1.655  11.144 -0.2928 -0.1724 -0.2660
  113OSM   H12A11695   1.751   1.566  11.100 -0.9189 -0.9904  1.8422
  113OSM   H12B11696   1.878   1.617  11.198 -0.0477 -3.1087 -2.5335
  113OSM    C1111697   1.838   1.744  11.023 -0.1338  0.1757 -0.1580
  113OSM   H11A11698   1.744   1.783  10.980 -0.1067 -0.5915 -0.9393
  113OSM   H11B11699   1.881   1.679  10.944  1.9886  0.6447  0.5446
  113OSM      P11700   2.081   1.820  11.067 -0.1054  0.1220 -0.1323
  113OSM    O1311701   2.138   1.909  11.166 -0.7757  0.2268 -0.2315
  113OSM    O1411702   2.096   1.671  11.080  0.3830 -0.1716  0.3613
  113OSM    O1111703   2.138   1.856  10.923 -0.3193 -0.5297 -0.1512
  113OSM    O1211704   1.924   1.851  11.050  0.1645  0.4277 -0.0004
  113OSM    C1S11705   2.089   1.976  10.864  0.4958  0.4598  0.3599
  113OSM    H1S11706   2.160   2.057  10.890  1.2584 -0.1999  0.3747
  113OSM    H1T11707   1.983   2.002  10.885 -0.2678 -2.1543  0.0525
  113OSM     NF11708   2.079   2.109  10.659 -0.6449  0.3244  0.0075
  113OSM    HNF11709   1.995   2.137  10.613  0.4086  0.8159 -1.6819
  113OSM    C2S11710   2.104   1.975  10.712 -0.1208 -0.6843 -0.4648
  113OSM    H2S11711   2.212   1.957  10.689  0.2673 -0.4403  1.1040
  113OSM    C3S11712   2.009   1.866  10.652  0.7630 -0.5808 -0.2304
  113OSM    H3S11713   1.905   1.897  10.675  1.1848  0.1020  0.8561
  113OSM     O311714   2.014   1.744  10.723 -0.2094  0.0583  0.3283
  113OSM    HO311715   2.064   1.773  10.799  0.9841  0.5211 -0.5966
  113OSM    C4S11716   2.031   1.863  10.503 -0.2712 -0.7249 -0.0553
  113OSM    H4S11717   1.955   1.915  10.443  2.0450  1.0208 -1.6677
  113OSM    C5S11718   2.107   1.774  10.445 -0.5027 -0.6833  0.5229
  113OSM    H5S11719   2.155   1.706  10.517 -2.1963 -1.4871  0.9367
  113OSM    C6S11720   2.139   1.745  10.304  0.5818  0.5092 -0.0303
  113OSM    H6S11721   2.107   1.641  10.278  0.7044  0.4061  0.2322
  113OSM    H6T11722   2.249   1.739  10.287  0.7297  1.8828  0.3776
  113OSM    C7S11723   2.073   1.839  10.191  0.4130  0.0768  0.8248
  113OSM    H7S11724   2.125   1.933  10.164 -0.4099 -0.6770 -4.3651
  113OSM    H7T11725   1.966   1.866  10.205  0.5728  1.1985 -0.0164
  113OSM    C8S11726   2.073   1.762  10.061  0.2416  0.1052 -0.6141
  113OSM    H8S11727   2.025   1.811   9.973  1.7875  0.2137 -1.4188
  113OSM    H8T11728   2.015   1.669  10.076 -0.0622  0.5188  0.9942
  113OSM    C9S11729   2.215   1.707  10.028  0.2073  0.1251 -0.5747
  113OSM    H9S11730   2.248   1.624  10.094  4.4027  0.9337 -1.3228
  113OSM    H9T11731   2.279   1.796  10.048 -0.6996  0.4069  1.2410
  113OSM   C10S11732   2.243   1.669   9.883 -0.2947  0.1038  0.0047
  113OSM   H10S11733   2.148   1.630   9.842 -0.0652  0.7428 -1.1686
  113OSM   H10T11734   2.326   1.595   9.871 -0.7820 -1.4935  4.4124
  113OSM   C11S11735   2.272   1.795   9.803 -0.7486  0.7586 -0.1790
  113OSM   H11S11736   2.370   1.834   9.839  0.9328 -1.7426 -1.7411
  113OSM   H11T11737   2.183   1.859   9.820 -0.5411  1.1681 -0.6205
  113OSM   C12S11738   2.313   1.744   9.666 -0.9845 -0.1879 -0.6074
  113OSM   H12S11739   2.255   1.654   9.636  3.0189 -2.5562 -2.0530
  113OSM   H12T11740   2.414   1.698   9.669  0.3104  2.4386 -1.2090
  113OSM   C13S11741   2.317   1.866   9.569  0.4119 -0.2413  0.3725
  113OSM   H13S11742   2.407   1.928   9.589  0.5692 -0.5247  0.5569
  113OSM   H13T11743   2.224   1.925   9.579  0.2552 -0.1205 -1.4873
  113OSM   C14S11744   2.332   1.827   9.422 -0.0270 -0.4744  0.4481
  113OSM   H14S11745   2.324   1.918   9.358 -1.3909 -0.5677  0.4565
  113OSM   H14T11746   2.255   1.760   9.378  3.1786 -2.8924 -1.9625
  113OSM   C15S11747   2.461   1.750   9.386 -0.5364 -0.0608  0.0643
  113OSM   H15S11748   2.446   1.647   9.423 -0.2487 -1.0003 -2.2842
  113OSM   H15T11749   2.544   1.792   9.447 -0.6937 -0.1569  0.3461
  113OSM   C16S11750   2.484   1.723   9.238  0.0743 -0.1344  0.7224
  113OSM   H16S11751   2.386   1.713   9.186  0.2283  0.7917  0.2224
  113OSM   H16T11752   2.545   1.630   9.234  3.1501  1.7525  0.4732
  113OSM   C17S11753   2.571   1.825   9.165 -0.9608 -0.4474 -0.4003
  113OSM   H17S11754   2.595   1.769   9.071  1.2861 -0.8922  0.3788
  113OSM   H17T11755   2.662   1.835   9.228 -1.7449 -0.8109  0.8176
  113OSM   C18S11756   2.506   1.953   9.139  0.0011 -0.1435  0.5667
  113OSM   H18S11757   2.480   2.014   9.229  2.3794 -2.0232  2.6848
  113OSM   H18T11758   2.414   1.939   9.078  0.1908 -1.1904  0.4962
  113OSM   H18U11759   2.572   1.999   9.063  0.0464 -2.7178 -1.0529
  113OSM    C1F11760   2.167   2.208  10.664 -0.5770 -0.2036 -0.0196
  113OSM     OF11761   2.271   2.197  10.721  0.2484 -0.0841  0.2122
  113OSM    C2F11762   2.141   2.336  10.583 -0.0182  0.1062  0.0736
  113OSM    H2F11763   2.143   2.427  10.646 -1.4417  0.6135 -0.5874
  113OSM    H2G11764   2.035   2.340  10.552  0.6058  1.3753 -2.1711
  113OSM    C3F11765   2.222   2.359  10.453  0.1607 -0.0023  0.6797
  113OSM    H3F11766   2.224   2.258  10.406  1.0903  0.7460 -0.9689
  113OSM    H3G11767   2.328   2.385  10.474  0.1270  1.2433 -0.6101
  113OSM    C4F11768   2.161   2.472  10.373  0.4421  0.3831  0.0610
  113OSM    H4F11769   2.235   2.529  10.313 -0.0635  0.3014 -0.6521
  113OSM    H4G11770   2.110   2.544  10.441  0.8579 -1.1040  2.0277
  113OSM    C5F11771   2.068   2.427  10.258  0.0763 -0.1195 -0.1968
  113OSM    H5F11772   2.040   2.514  10.194 -2.7863 -0.0187  1.0348
  113OSM    H5G11773   1.969   2.382  10.278 -0.8263  0.9336 -2.0371
  113OSM    C6F11774   2.136   2.334  10.152  0.1725  0.0089  0.4845
  113OSM    H6F11775   2.177   2.245  10.204  1.9764  1.8895  2.5412
  113OSM    H6G11776   2.227   2.393  10.127 -0.4645  0.2568 -1.4125
  113OSM    C7F11777   2.055   2.302  10.028 -0.1010  0.4022 -0.3934
  113OSM    H7F11778   2.052   2.393   9.966  2.6796  0.9718  0.1773
  113OSM    H7G11779   1.952   2.264  10.043  0.5292 -1.0572  0.5233
  113OSM    C8F11780   2.130   2.187   9.947 -0.5639 -0.4063  0.1276
  113OSM    H8F11781   2.190   2.112  10.002  1.9425  0.1183 -1.7013
  113OSM    H8G11782   2.205   2.237   9.882  0.6180 -0.4056  1.4729
  113OSM    C9F11783   2.029   2.107   9.870  0.0893  0.3336 -0.7856
  113OSM    H9F11784   1.994   2.017   9.923 -1.3234  0.4674 -1.4284
  113OSM   C10F11785   1.982   2.128   9.744  0.8147 -0.4007  0.4737
  113OSM   H10F11786   1.912   2.056   9.701  0.2064  0.2514  0.3532
  113OSM   C11F11787   2.008   2.253   9.660 -0.4824 -0.2167 -0.3027
  113OSM   H11F11788   2.085   2.316   9.710  0.0325 -0.3267 -0.9509
  113OSM   H11G11789   1.913   2.311   9.665  0.4830  1.3782  0.3524
  113OSM   C12F11790   2.062   2.233   9.514 -0.5147 -0.7013  0.0404
  113OSM   H12F11791   2.154   2.172   9.524 -0.7416 -1.0488  0.0087
  113OSM   H12G11792   2.097   2.327   9.465 -3.3733 -1.1800 -3.2935
  113OSM   C13F11793   1.964   2.158   9.423  0.2844  0.2494  0.7804
  113OSM   H13F11794   1.868   2.208   9.396 -0.2249 -1.3441 -0.4907
  113OSM   H13G11795   1.922   2.068   9.472 -2.9132  0.8738 -0.4945
  113OSM   C14F11796   2.023   2.104   9.291  0.0426  0.2093  0.5028
  113OSM   H14F11797   2.134   2.096   9.291  0.0828  0.0084 -1.6944
  113OSM   H14G11798   2.007   2.173   9.205  0.6314 -2.1454 -1.6409
  113OSM   C15F11799   1.960   1.970   9.251  0.4532  0.3278 -0.2545
  113OSM   H15F11800   1.851   1.991   9.243  0.5296  1.1061  0.5897
  113OSM   H15G11801   1.992   1.900   9.331  1.7813 -0.1107 -1.1478
  113OSM   C16F11802   2.008   1.895   9.122 -0.1034 -0.1184  0.0119
  113OSM   H16F11803   1.978   1.788   9.118 -3.1760  0.6561  0.3145
  113OSM   H16G11804   2.119   1.906   9.127 -0.2531  1.3961  0.5260
  113OSM   C17F11805   1.969   1.959   8.989  0.5725 -0.7275 -0.3661
  113OSM   H17F11806   2.002   2.065   8.990 -1.7769  0.0620 -0.2551
  113OSM   H17G11807   1.858   1.967   8.993  0.6584  0.9025 -0.7180
  113OSM   C18F11808   2.026   1.892   8.862  0.0971 -0.0915 -0.6021
  113OSM   H18F11809   1.980   1.794   8.834 -2.1960  0.6561  0.2923
  113OSM   H18G11810   2.134   1.876   8.882  0.4831  2.1582 -0.6982
  113OSM   H18H11811   2.019   1.948   8.766 -0.8244  0.2823 -0.3244
  114OSM      N11812   3.710   1.060  11.566 -0.1391  0.7123  0.1405
  114OSM    C1511813   3.691   0.941  11.472  0.1124 -0.0160 -0.5754
  114OSM   H15A11814   3.617   0.873  11.513 -2.7396  2.6090 -0.9949
  114OSM   H15B11815   3.779   0.885  11.446 -0.9139 -2.0775  0.1198
  114OSM   H15C11816   3.643   0.965  11.378 -1.1798 -0.6155 -0.1051
  114OSM    C1411817   3.577   1.117  11.604 -0.3530  0.2786 -0.5750
  114OSM   H14A11818   3.536   1.040  11.668  1.8576 -1.4602 -1.0978
  114OSM   H14B11819   3.506   1.134  11.525 -0.8069 -1.9925 -0.7278
  114OSM   H14C11820   3.595   1.212  11.653  0.7826  0.3788 -1.1378
  114OSM    C1311821   3.793   1.003  11.672  0.4741  0.1631 -0.3192
  114OSM   H13A11822   3.745   0.920  11.721  2.5502 -0.6031  0.5173
  114OSM   H13B11823   3.817   1.076  11.747  1.5065 -2.6825  2.3281
  114OSM   H13C11824   3.886   0.955  11.644  1.6271  0.9372  1.9179
  114OSM    C1211825   3.788   1.166  11.495 -0.0004 -0.3708 -0.2826
  114OSM   H12A11826   3.737   1.199  11.405  1.6621 -2.4653 -2.1115
  114OSM   H12B11827   3.878   1.118  11.457 -1.1144 -3.2533  0.4369
  114OSM    C1111828   3.832   1.292  11.568  0.5724 -0.2973  0.0765
  114OSM   H11A11829   3.914   1.264  11.638  1.3364  0.3543 -0.5466
  114OSM   H11B11830   3.748   1.314  11.637  1.2147  0.5391  0.6014
  114OSM      P11831   3.773   1.512  11.448 -0.1937 -0.2667  0.2254
  114OSM    O1311832   3.633   1.465  11.450 -1.0822  0.0008  0.1704
  114OSM    O1411833   3.800   1.615  11.545  0.0178  0.7172  0.3261
  114OSM    O1111834   3.817   1.570  11.306  0.6438  0.2403 -0.6105
  114OSM    O1211835   3.871   1.393  11.476 -0.4829 -0.2931  0.5051
  114OSM    C1S11836   3.814   1.477  11.192  0.7844 -0.6234 -0.2232
  114OSM    H1S11837   3.720   1.421  11.172  1.0972 -1.1410 -0.2706
  114OSM    H1T11838   3.899   1.406  11.192  2.0822  0.8567 -0.6402
  114OSM     NF11839   3.824   1.467  10.946 -0.4701  0.3952  0.4113
  114OSM    HNF11840   3.894   1.421  10.892 -1.2908 -0.6505  0.1921
  114OSM    C2S11841   3.843   1.557  11.055 -0.0149 -0.0784 -1.3488
  114OSM    H2S11842   3.765   1.636  11.049 -0.7760 -0.8653 -2.2135
  114OSM    C3S11843   3.979   1.625  11.064 -0.2285 -0.0735  0.0992
  114OSM    H3S11844   4.052   1.541  11.069  0.6312  0.6878  4.0727
  114OSM     O311845   4.011   1.712  11.170 -0.7255 -0.2365  0.0392
  114OSM    HO311846   3.948   1.686  11.237  1.4149 -0.2437  2.2100
  114OSM    C4S11847   3.999   1.700  10.933 -0.7183 -0.3362  0.6924
  114OSM    H4S11848   3.923   1.780  10.922  0.7082  0.7837 -2.1659
  114OSM    C5S11849   4.096   1.682  10.839  0.5648  0.1273 -0.1495
  114OSM    H5S11850   4.164   1.596  10.846 -1.0817 -1.0938  1.9529
  114OSM    C6S11851   4.098   1.756  10.706 -0.3730  0.1917 -0.9185
  114OSM    H6S11852   4.195   1.809  10.695  0.1692 -0.2061  1.4838
  114OSM    H6T11853   4.020   1.834  10.697 -1.4844 -1.0592 -2.8229
  114OSM    C7S11854   4.079   1.669  10.583 -0.3729 -0.5495  0.4360
  114OSM    H7S11855   3.975   1.634  10.599 -1.3506  2.7000  2.2375
  114OSM    H7T11856   4.152   1.585  10.576 -2.0894 -1.9521 -1.6419
  114OSM    C8S11857   4.077   1.756  10.457 -0.0877  0.5779  0.2650
  114OSM    H8S11858   4.176   1.804  10.442 -1.2756  3.2261  0.2946
  114OSM    H8T11859   4.003   1.839  10.463 -0.3317  0.2431  2.8022
  114OSM    C9S11860   4.038   1.666  10.334  0.3019 -0.1751  0.0411
  114OSM    H9S11861   3.959   1.606  10.384 -1.8794  1.4867 -1.1763
  114OSM    H9T11862   4.106   1.589  10.291  1.6305  0.3854  1.0724
  114OSM   C10S11863   3.977   1.756  10.221 -0.4293 -0.3381 -0.3633
  114OSM   H10S11864   4.054   1.822  10.176 -1.1589  0.2342 -0.8023
  114OSM   H10T11865   3.903   1.833  10.253  2.0610  2.6594 -1.3700
  114OSM   C11S11866   3.913   1.679  10.107 -0.6262 -1.0437 -0.2413
  114OSM   H11S11867   3.844   1.597  10.138  2.2730 -2.5580  2.8618
  114OSM   H11T11868   3.997   1.631  10.053  3.4201  2.3574  2.3880
  114OSM   C12S11869   3.834   1.776  10.009  0.1578  0.0940  0.2891
  114OSM   H12S11870   3.910   1.837   9.955 -1.3856  2.1079  0.2640
  114OSM   H12T11871   3.775   1.846  10.072  1.8819  2.3757 -0.4944
  114OSM   C13S11872   3.758   1.704   9.900 -0.2453  0.0050  0.0093
  114OSM   H13S11873   3.671   1.763   9.865 -0.8485 -1.2628 -0.6891
  114OSM   H13T11874   3.726   1.614   9.957 -1.7837  0.7324  0.3505
  114OSM   C14S11875   3.842   1.651   9.784  0.2462  0.2413 -0.0063
  114OSM   H14S11876   3.946   1.622   9.809  0.6592  1.7198  0.0623
  114OSM   H14T11877   3.861   1.734   9.713  0.9287 -0.5220 -0.7362
  114OSM   C15S11878   3.781   1.535   9.709  0.4155 -0.1629  0.8047
  114OSM   H15S11879   3.680   1.552   9.666  0.0295 -1.2000  1.2538
  114OSM   H15T11880   3.769   1.446   9.774  0.5005 -0.4012  0.4908
  114OSM   C16S11881   3.873   1.474   9.599 -0.3088 -0.0095 -0.4054
  114OSM   H16S11882   3.976   1.455   9.638 -0.0800  2.7844  0.6004
  114OSM   H16T11883   3.873   1.544   9.513 -0.8042  0.1834 -0.2494
  114OSM   C17S11884   3.818   1.333   9.550 -0.9953 -0.1789 -0.4226
  114OSM   H17S11885   3.710   1.348   9.527 -0.4782  1.4221 -2.0936
  114OSM   H17T11886   3.823   1.269   9.640  1.1476  0.5462  0.0075
  114OSM   C18S11887   3.896   1.254   9.437  0.5052  0.2396  0.4708
  114OSM   H18S11888   3.832   1.165   9.415 -1.1630  1.3430  0.6701
  114OSM   H18T11889   3.998   1.220   9.463  0.1255 -2.2602 -0.9593
  114OSM   H18U11890   3.906   1.326   9.353  0.7180  2.4067  2.2453
  114OSM    C1F11891   3.700   1.441  10.905 -0.0548 -0.3798  0.3742
  114OSM     OF11892   3.605   1.478  10.970  0.0139 -0.0996 -0.4879
  114OSM    C2F11893   3.690   1.356  10.776  0.4007 -0.8039  0.0323
  114OSM    H2F11894   3.722   1.252  10.797 -0.3302 -0.8260  1.1205
  114OSM    H2G11895   3.760   1.395  10.698  0.1889  0.3086  0.3790
  114OSM    C3F11896   3.553   1.344  10.705  0.0854 -0.1428 -0.3249
  114OSM    H3F11897   3.527   1.439  10.654 -1.2323 -1.7639 -2.8520
  114OSM    H3G11898   3.473   1.330  10.781  0.9938 -3.4690  0.1750
  114OSM    C4F11899   3.548   1.227  10.603  0.3636 -0.2349  0.2102
  114OSM    H4F11900   3.450   1.175  10.603  0.8609 -1.2300 -1.2611
  114OSM    H4G11901   3.616   1.148  10.642  0.0339 -0.4380  0.3828
  114OSM    C5F11902   3.580   1.265  10.451  0.1298 -0.1166 -0.0573
  114OSM    H5F11903   3.675   1.323  10.442  0.6180 -0.7886  0.5861
  114OSM    H5G11904   3.506   1.340  10.417  0.5413  0.0560 -0.5849
  114OSM    C6F11905   3.575   1.159  10.339  0.6325  0.3139  0.2914
  114OSM    H6F11906   3.658   1.088  10.355 -0.5319 -0.6422  2.6424
  114OSM    H6G11907   3.597   1.216  10.246 -0.4169  0.0606 -0.1256
  114OSM    C7F11908   3.437   1.086  10.345 -0.3365 -0.5766  0.2036
  114OSM    H7F11909   3.353   1.154  10.320  1.1431  1.3600  0.1941
  114OSM    H7G11910   3.402   1.039  10.440 -0.8242  1.6635  1.1943
  114OSM    C8F11911   3.446   0.968  10.243  0.3332  0.1778 -0.2440
  114OSM    H8F11912   3.493   1.002  10.148 -2.7588 -2.0538 -2.7864
  114OSM    H8G11913   3.340   0.943  10.224 -0.2512  1.7547  0.7632
  114OSM    C9F11914   3.507   0.841  10.296 -0.6961 -0.0412  0.4249
  114OSM    H9F11915   3.589   0.859  10.367  0.1409  0.0557 -0.5414
  114OSM   C10F11916   3.504   0.719  10.244 -0.3901 -0.3447  0.6157
  114OSM   H10F11917   3.554   0.639  10.300  0.4297 -0.3001 -0.0404
  114OSM   C11F11918   3.444   0.679  10.110 -0.1195 -0.0972  0.2546
  114OSM   H11F11919   3.340   0.718  10.111 -0.0793  0.0366 -0.4437
  114OSM   H11G11920   3.437   0.570  10.089  0.2769  0.3810 -2.7266
  114OSM   C12F11921   3.515   0.736   9.979 -0.6581 -0.2453  0.2830
  114OSM   H12F11922   3.611   0.681   9.989 -0.5031  0.2571  1.6661
  114OSM   H12G11923   3.516   0.847   9.983  1.0404 -0.1016 -2.0202
  114OSM   C13F11924   3.445   0.697   9.850  0.5083  0.2537 -0.3177
  114OSM   H13F11925   3.351   0.746   9.818  0.4478 -1.3696 -2.9415
  114OSM   H13G11926   3.416   0.590   9.850 -2.2316  0.8074  3.2538
  114OSM   C14F11927   3.530   0.723   9.730  1.3324 -0.4820 -0.0434
  114OSM   H14F11928   3.481   0.673   9.644  0.4630  0.7585 -0.2960
  114OSM   H14G11929   3.634   0.688   9.745  0.5434 -2.4905  1.3350
  114OSM   C15F11930   3.523   0.865   9.695 -0.1016  0.6890  0.2010
  114OSM   H15F11931   3.565   0.918   9.783  0.8326  0.7915 -0.2926
  114OSM   H15G11932   3.421   0.909   9.692 -0.4722 -0.1616  0.1313
  114OSM   C16F11933   3.597   0.908   9.566  0.3480 -0.4874  0.3297
  114OSM   H16F11934   3.701   0.874   9.584  0.6567  1.4405  2.6352
  114OSM   H16G11935   3.618   1.017   9.576  2.1507 -0.8300  0.5229
  114OSM   C17F11936   3.527   0.856   9.439 -0.3545 -0.2556 -0.6038
  114OSM   H17F11937   3.515   0.748   9.457  0.7941 -0.1726  0.8841
  114OSM   H17G11938   3.596   0.862   9.353  0.6888 -1.7634  0.0850
  114OSM   C18F11939   3.391   0.916   9.400  1.4457 -0.8783 -0.5288
  114OSM   H18F11940   3.399   1.026   9.401 -1.2623 -0.5759 -2.3032
  114OSM   H18G11941   3.313   0.881   9.472  0.1332  0.1633 -1.4080
  114OSM   H18H11942   3.374   0.878   9.297 -0.2458 -0.3032 -0.4808
  115OSM      N11943   3.457   4.008   6.242 -0.6059  0.0493 -0.0183
  115OSM    C1511944   3.359   3.996   6.361 -0.6073 -0.2250  0.0514
  115OSM   H15A11945   3.412   4.003   6.455 -3.4278  2.8859  1.6265
  115OSM   H15B11946   3.305   3.903   6.353 -1.2582  0.0127  1.3593
  115OSM   H15C11947   3.283   4.072   6.363 -3.0175 -2.4074 -1.7784
  115OSM    C1411948   3.370   4.033   6.123  0.2083  0.0191  0.1975
  115OSM   H14A11949   3.289   4.103   6.140  1.0135  1.0100  0.0303
  115OSM   H14B11950   3.308   3.946   6.104 -0.8261  0.5858  0.8580
  115OSM   H14C11951   3.423   4.062   6.034 -0.4822  3.3872  0.7437
  115OSM    C1311952   3.535   4.131   6.263 -0.5274 -0.1570 -0.1678
  115OSM   H13A11953   3.462   4.207   6.287  0.6860  0.8386  0.5594
  115OSM   H13B11954   3.583   4.160   6.170 -1.7120 -0.6129 -0.9399
  115OSM   H13C11955   3.597   4.124   6.351 -1.1201  0.3893  0.3050
  115OSM    C1211956   3.539   3.878   6.225 -0.5710 -0.5490  0.1906
  115OSM   H12A11957   3.603   3.884   6.138 -0.9087  1.4337  0.0420
  115OSM   H12B11958   3.473   3.795   6.203  1.7160 -3.1217  2.2151
  115OSM    C1111959   3.627   3.839   6.351  0.9835 -0.7573  0.4591
  115OSM   H11A11960   3.657   3.732   6.348  0.2021 -0.9608 -1.8614
  115OSM   H11B11961   3.560   3.862   6.437  1.6567 -1.2556  1.1283
  115OSM      P11962   3.887   3.873   6.321  0.3853 -0.3948 -0.3042
  115OSM    O1311963   3.890   3.732   6.344  0.1748 -0.2019  0.4261
  115OSM    O1411964   3.921   3.915   6.180 -0.1625  0.4479 -1.1316
  115OSM    O1111965   3.988   3.944   6.423 -0.0156  0.4227  0.1474
  115OSM    O1211966   3.739   3.923   6.354 -0.4781  0.3811  0.2095
  115OSM    C1S11967   3.945   3.976   6.561  0.0491 -0.6989  0.0655
  115OSM    H1S11968   3.903   3.882   6.602 -2.4747  0.3766  0.1562
  115OSM    H1T11969   3.854   4.039   6.550 -0.2879 -1.5021 -2.4584
  115OSM     NF11970   4.038   4.045   6.777  0.5298  0.1480 -0.2288
  115OSM    HNF11971   4.016   4.133   6.818 -2.5275 -0.3864 -0.4652
  115OSM    C2S11972   4.058   4.042   6.640 -0.5353 -0.0106 -0.0071
  115OSM    H2S11973   4.141   3.974   6.611 -0.2402  0.7919 -1.1270
  115OSM    C3S11974   4.083   4.187   6.588 -0.0179  0.7074  0.0032
  115OSM    H3S11975   4.006   4.257   6.626 -1.4499 -0.7760 -0.0670
  115OSM     O311976   4.086   4.205   6.448  0.3180  0.1909 -0.3718
  115OSM    HO311977   4.055   4.121   6.414  0.8997 -0.1192 -0.1351
  115OSM    C4S11978   4.212   4.250   6.657  0.3115 -0.1023  0.4098
  115OSM    H4S11979   4.184   4.301   6.750 -0.3025  0.8997 -0.3022
  115OSM    C5S11980   4.342   4.220   6.622  0.2186  0.7910  0.1558
  115OSM    H5S11981   4.353   4.150   6.538 -1.9357  0.8380 -0.2346
  115OSM    C6S11982   4.458   4.272   6.694  0.2088  0.0441 -0.2412
  115OSM    H6S11983   4.433   4.368   6.743  0.6819 -1.1831  2.6649
  115OSM    H6T11984   4.553   4.287   6.637 -0.5330 -1.0177 -1.8309
  115OSM    C7S11985   4.489   4.178   6.813  0.0480 -1.0027 -0.2194
  115OSM    H7S11986   4.579   4.235   6.842 -1.6394  1.2790  0.8268
  115OSM    H7T11987   4.518   4.077   6.778 -0.6268 -0.1899 -3.4332
  115OSM    C8S11988   4.400   4.182   6.937 -0.2080 -0.4764 -0.1562
  115OSM    H8S11989   4.430   4.103   7.009 -0.6344  0.0660  0.6335
  115OSM    H8T11990   4.297   4.157   6.905 -0.6082 -0.1659  0.8716
  115OSM    C9S11991   4.415   4.316   7.022 -0.6652  0.2398  0.2775
  115OSM    H9S11992   4.437   4.400   6.952  3.9266 -1.5488 -0.7602
  115OSM    H9T11993   4.502   4.302   7.089 -1.2507 -2.0126  0.6283
  115OSM   C10S11994   4.283   4.350   7.098 -0.9525 -0.1253  0.1935
  115OSM   H10S11995   4.195   4.335   7.031 -1.1368  0.8353  0.2024
  115OSM   H10T11996   4.288   4.457   7.126 -2.5455  0.6962 -2.3190
  115OSM   C11S11997   4.257   4.269   7.225  0.1091 -0.0741 -0.3926
  115OSM   H11S11998   4.327   4.299   7.305 -0.8035  1.0873  0.0013
  115OSM   H11T11999   4.281   4.162   7.208  2.0616 -0.0281  1.6859
  115OSM   C12S12000   4.111   4.303   7.279  0.7691  0.7391 -0.2480
  115OSM   H12S12001   4.027   4.265   7.217 -0.0661  0.1353  1.2047
  115OSM   H12T12002   4.111   4.414   7.282  0.4592  0.8448 -2.3901
  115OSM   C13S12003   4.095   4.248   7.419 -0.3785  0.0369 -0.3667
  115OSM   H13S12004   4.147   4.324   7.480  0.9750 -0.8163 -0.4239
  115OSM   H13T12005   4.141   4.151   7.444 -0.1395  0.6781  1.8887
  115OSM   C14S12006   3.948   4.263   7.476 -0.3734 -0.1975 -0.0913
  115OSM   H14S12007   3.873   4.210   7.413 -1.1070  1.5044 -0.7447
  115OSM   H14T12008   3.918   4.371   7.477 -2.5359 -0.7322 -0.5138
  115OSM   C15S12009   3.936   4.203   7.621 -0.2124 -0.1316  0.0883
  115OSM   H15S12010   3.970   4.099   7.638 -1.6238 -0.2144  3.0231
  115OSM   H15T12011   3.828   4.199   7.647  0.2010  0.8700  2.1775
  115OSM   C16S12012   3.984   4.298   7.731 -0.3867 -0.0489 -0.5004
  115OSM   H16S12013   3.929   4.392   7.712 -1.5670 -0.8566 -1.2293
  115OSM   H16T12014   4.094   4.306   7.731 -0.0038 -3.3770 -2.1896
  115OSM   C17S12015   3.925   4.249   7.868  0.9046  0.5106  0.5078
  115OSM   H17S12016   3.973   4.154   7.898  0.2105 -0.0040  0.0103
  115OSM   H17T12017   3.824   4.212   7.839  1.9406  0.4263 -3.4516
  115OSM   C18S12018   3.923   4.353   7.983  0.0210  0.1426  0.3950
  115OSM   H18S12019   3.887   4.312   8.080  1.0116 -0.3772  0.5581
  115OSM   H18T12020   3.862   4.444   7.968  0.5118  0.2474 -1.1366
  115OSM   H18U12021   4.024   4.396   7.998 -0.1216  0.2842  0.9740
  115OSM    C1F12022   4.017   3.937   6.845 -0.2798  0.4760 -0.0329
  115OSM     OF12023   4.038   3.827   6.797  0.7095  0.4324 -0.5636
  115OSM    C2F12024   3.968   3.952   6.985 -0.6636  0.0813 -0.1979
  115OSM    H2F12025   3.861   3.924   6.988 -0.5788 -0.1977  2.4171
  115OSM    H2G12026   3.989   4.057   7.017 -0.8569  0.4294 -1.1962
  115OSM    C3F12027   4.047   3.852   7.077  0.5702 -0.7278 -0.0775
  115OSM    H3F12028   4.153   3.847   7.047  0.1312 -3.6786 -1.4765
  115OSM    H3G12029   4.008   3.752   7.051 -1.3970  0.2113 -1.0075
  115OSM    C4F12030   4.026   3.874   7.231 -0.8435  0.4533  0.6975
  115OSM    H4F12031   4.080   3.963   7.271  1.6917 -0.8495  0.3375
  115OSM    H4G12032   4.068   3.780   7.272 -0.6725 -0.8191 -2.1603
  115OSM    C5F12033   3.881   3.863   7.278 -0.0691 -0.0468 -0.2564
  115OSM    H5F12034   3.838   3.768   7.238 -2.4520  1.8833 -2.6683
  115OSM    H5G12035   3.824   3.946   7.232  1.3814  0.7607 -0.6724
  115OSM    C6F12036   3.870   3.861   7.428  0.0907  0.1478 -0.8645
  115OSM    H6F12037   3.920   3.952   7.467  1.4498 -0.8310 -0.2515
  115OSM    H6G12038   3.919   3.774   7.476 -2.7047 -2.0510 -1.6914
  115OSM    C7F12039   3.727   3.850   7.480  0.3503 -0.6930 -0.3566
  115OSM    H7F12040   3.680   3.753   7.452 -1.3573  0.9008 -3.4670
  115OSM    H7G12041   3.657   3.920   7.429 -0.3713 -1.0564  0.1068
  115OSM    C8F12042   3.724   3.875   7.630  0.2647  0.6211  0.5350
  115OSM    H8F12043   3.738   3.983   7.654 -2.8070  1.0460  0.7582
  115OSM    H8G12044   3.807   3.821   7.681 -1.2613  0.8815  3.4858
  115OSM    C9F12045   3.595   3.827   7.686 -0.0291 -0.2107  0.0071
  115OSM    H9F12046   3.513   3.848   7.616  0.0656 -3.2010 -1.1460
  115OSM   C10F12047   3.573   3.749   7.793 -0.5822  0.8874 -0.1536
  115OSM   H10F12048   3.467   3.731   7.817 -1.0426  0.7483 -2.0962
  115OSM   C11F12049   3.663   3.689   7.895  0.7368 -0.7932  0.1930
  115OSM   H11F12050   3.764   3.695   7.850  0.5200 -0.2466 -0.2421
  115OSM   H11G12051   3.643   3.580   7.895 -1.4346 -0.4571 -0.8135
  115OSM   C12F12052   3.639   3.741   8.042 -0.4501  0.2029  0.6883
  115OSM   H12F12053   3.691   3.678   8.118 -0.8378 -0.8369  0.1180
  115OSM   H12G12054   3.531   3.721   8.062 -0.6482  0.6401  0.0621
  115OSM   C13F12055   3.671   3.889   8.067 -0.0744 -0.1449  0.1319
  115OSM   H13F12056   3.603   3.961   8.017 -0.5205 -0.5535  0.1486
  115OSM   H13G12057   3.772   3.919   8.031 -1.4005  4.6021 -0.3873
  115OSM   C14F12058   3.676   3.916   8.218  0.3641  0.5680 -1.1649
  115OSM   H14F12059   3.734   3.838   8.272 -1.1368  0.7894  0.8829
  115OSM   H14G12060   3.577   3.910   8.267  0.6965  0.5301 -0.4927
  115OSM   C15F12061   3.735   4.046   8.264 -0.3132  0.0809  1.0876
  115OSM   H15F12062   3.665   4.125   8.227  0.2265 -0.2542 -0.7126
  115OSM   H15G12063   3.833   4.052   8.213 -1.1703  0.2640 -0.6169
  115OSM   C16F12064   3.743   4.053   8.416 -0.0075 -0.7464  0.0069
  115OSM   H16F12065   3.787   3.957   8.450  1.5141 -0.2857 -0.5876
  115OSM   H16G12066   3.645   4.064   8.468  0.8465  0.3780  1.4467
  115OSM   C17F12067   3.845   4.159   8.462 -0.2003 -0.9338  0.6267
  115OSM   H17F12068   3.812   4.257   8.421  2.3808 -0.5482 -0.6960
  115OSM   H17G12069   3.944   4.141   8.414 -0.2621 -0.7952  0.4421
  115OSM   C18F12070   3.856   4.154   8.615  0.5198  0.4223  0.6774
  115OSM   H18F12071   3.762   4.192   8.662  0.2705  1.8711 -0.8787
  115OSM   H18G12072   3.942   4.216   8.649 -0.3363  1.4922  0.9650
  115OSM   H18H12073   3.873   4.048   8.644 -0.3460 -0.5109 -1.9012
  116OSM      N12074   2.926   2.190   5.874  0.6065  0.3432 -0.0078
  116OSM    C1512075   3.047   2.277   5.850  0.1373 -0.1199  0.1184
  116OSM   H15A12076   3.118   2.266   5.931 -0.1587  0.2540  0.4296
  116OSM   H15B12077   3.010   2.376   5.826  0.9482 -0.2732 -1.9874
  116OSM   H15C12078   3.092   2.246   5.756 -2.4906 -1.2342 -0.8639
  116OSM    C1412079   2.832   2.210   5.758 -0.2172 -0.3520 -0.2818
  116OSM   H14A12080   2.758   2.132   5.752  0.0172 -0.5245 -1.1100
  116OSM   H14B12081   2.892   2.199   5.668  0.7200  0.2470  0.2485
  116OSM   H14C12082   2.775   2.301   5.761 -0.1214 -0.2456 -1.2374
  116OSM    C1312083   2.973   2.045   5.862  0.2359  0.4889 -0.4776
  116OSM   H13A12084   3.002   2.021   5.761  2.0571 -0.9859  0.3169
  116OSM   H13B12085   2.898   1.980   5.904  0.7934  0.3162  0.2741
  116OSM   H13C12086   3.063   2.039   5.922  1.7540 -1.3865 -2.7515
  116OSM    C1212087   2.857   2.219   6.008 -0.2006  0.3208  0.1776
  116OSM   H12A12088   2.783   2.147   6.037  0.0254 -0.9809 -2.2133
  116OSM   H12B12089   2.802   2.312   6.003 -1.4132 -0.2987  1.6199
  116OSM    C1112090   2.935   2.223   6.137 -0.7793 -0.4145 -1.4124
  116OSM   H11A12091   2.872   2.232   6.228 -0.5570 -0.6936 -1.2282
  116OSM   H11B12092   2.996   2.314   6.119 -1.8691  0.4982 -0.5742
  116OSM      P12093   2.979   1.980   6.220 -0.3506 -0.2325 -0.1467
  116OSM    O1312094   2.838   1.957   6.179 -0.2523  0.2199 -0.6914
  116OSM    O1412095   3.077   1.869   6.193  0.7549 -0.0678 -0.5670
  116OSM    O1112096   2.982   2.027   6.373  0.5217 -0.4136 -0.2343
  116OSM    O1212097   3.030   2.114   6.147  0.3194  0.3381  0.2059
  116OSM    C1S12098   3.078   2.105   6.446 -0.2136 -0.2490  0.8434
  116OSM    H1S12099   3.044   2.211   6.444  0.5088  0.0282  1.9993
  116OSM    H1T12100   3.181   2.101   6.404 -0.1066 -2.0446  1.1827
  116OSM     NF12101   3.192   2.139   6.662 -0.0437 -0.7852  0.0267
  116OSM    HNF12102   3.282   2.097   6.668  0.9831  1.2948 -0.0399
  116OSM    C2S12103   3.101   2.051   6.592  0.1760  0.0228  0.1866
  116OSM    H2S12104   3.010   2.065   6.654  0.2979 -1.5849  0.7635
  116OSM    C3S12105   3.145   1.903   6.594 -0.4448 -0.0465  0.5219
  116OSM    H3S12106   3.241   1.891   6.540 -1.3534 -1.3256 -0.8779
  116OSM     O312107   3.056   1.806   6.546  0.1821  0.8364  0.3291
  116OSM    HO312108   2.994   1.861   6.498 -0.2200  2.6002  2.6858
  116OSM    C4S12109   3.187   1.884   6.745 -0.1894  0.3902  0.1295
  116OSM    H4S12110   3.286   1.921   6.776  1.3449 -1.3612 -2.2732
  116OSM    C5S12111   3.112   1.827   6.846 -0.3184 -0.2772  0.3736
  116OSM    H5S12112   3.009   1.798   6.823  0.1368 -2.0253  0.4115
  116OSM    C6S12113   3.144   1.809   6.994  0.1057 -1.0410 -0.4065
  116OSM    H6S12114   3.135   1.702   7.025 -0.7872 -0.7485  0.3775
  116OSM    H6T12115   3.073   1.870   7.054  4.2045  3.0935  0.7498
  116OSM    C7S12116   3.280   1.865   7.036 -0.2826 -0.1005 -0.7983
  116OSM    H7S12117   3.294   1.972   7.007 -0.3381  0.4881  1.2218
  116OSM    H7T12118   3.363   1.808   6.989  0.6557  2.7163 -2.8967
  116OSM    C8S12119   3.290   1.878   7.189 -0.0430  0.0047 -1.2410
  116OSM    H8S12120   3.398   1.852   7.203 -0.0523  0.0831 -1.0105
  116OSM    H8T12121   3.235   1.796   7.240  2.2543 -0.9720 -0.1670
  116OSM    C9S12122   3.255   2.021   7.247  0.2747  0.4487  0.5924
  116OSM    H9S12123   3.157   2.050   7.203 -0.2191  0.5389  1.7149
  116OSM    H9T12124   3.340   2.090   7.234  1.4626 -0.7222  1.7803
  116OSM   C10S12125   3.219   2.006   7.403 -0.1303 -0.5819  0.2193
  116OSM   H10S12126   3.119   1.958   7.412 -1.9030  2.1347 -2.7067
  116OSM   H10T12127   3.197   2.109   7.438  0.5371  0.1440 -1.3713
  116OSM   C11S12128   3.316   1.923   7.487  1.0002 -0.3254 -0.2738
  116OSM   H11S12129   3.416   1.971   7.481  0.1744  2.3962  3.7060
  116OSM   H11T12130   3.311   1.816   7.459 -0.7980 -0.9421  2.0632
  116OSM   C12S12131   3.270   1.922   7.628 -0.4293 -0.0435 -0.3527
  116OSM   H12S12132   3.174   1.867   7.639 -0.5583  0.4931  1.6164
  116OSM   H12T12133   3.267   2.027   7.665  2.0518  0.5805 -1.7067
  116OSM   C13S12134   3.369   1.849   7.726 -0.8061  0.2156  0.7653
  116OSM   H13S12135   3.464   1.906   7.716 -1.4674  1.5413  1.7330
  116OSM   H13T12136   3.380   1.746   7.686  0.4568  0.7833 -0.4412
  116OSM   C14S12137   3.331   1.838   7.871  0.7407 -0.3071  0.0622
  116OSM   H14S12138   3.228   1.796   7.871  0.7103 -0.2932 -1.5613
  116OSM   H14T12139   3.317   1.938   7.918 -2.2510  0.7545 -2.7062
  116OSM   C15S12140   3.418   1.747   7.965  0.3973  0.2457 -0.1822
  116OSM   H15S12141   3.519   1.792   7.967 -0.1712  1.7121 -1.8376
  116OSM   H15T12142   3.413   1.642   7.931 -1.2343 -0.2684  1.4692
  116OSM   C16S12143   3.360   1.729   8.105  0.5466 -0.4829  0.2463
  116OSM   H16S12144   3.313   1.827   8.127  1.4137  0.4673 -1.8947
  116OSM   H16T12145   3.439   1.725   8.183  0.2344 -1.0331  0.5410
  116OSM   C17S12146   3.271   1.607   8.130  0.6310 -0.7282  0.1114
  116OSM   H17S12147   3.323   1.509   8.121  1.2199 -0.4269  0.1891
  116OSM   H17T12148   3.194   1.606   8.050  1.1625 -2.0039 -0.4277
  116OSM   C18S12149   3.186   1.616   8.253 -0.5680 -0.1522 -0.1968
  116OSM   H18S12150   3.257   1.611   8.338 -0.5551  2.0371 -0.0218
  116OSM   H18T12151   3.107   1.539   8.266 -1.4031  0.6571 -0.4098
  116OSM   H18U12152   3.142   1.717   8.270  1.8034  0.7759  0.9843
  116OSM    C1F12153   3.161   2.267   6.690  0.6837 -0.2296  0.0394
  116OSM     OF12154   3.042   2.300   6.693 -0.5792 -0.7373  0.2448
  116OSM    C2F12155   3.271   2.366   6.706 -0.7215 -0.1365 -0.2692
  116OSM    H2F12156   3.270   2.415   6.607 -1.3052 -0.2355 -0.3195
  116OSM    H2G12157   3.361   2.301   6.710 -1.1640 -0.7669 -0.3645
  116OSM    C3F12158   3.255   2.470   6.825  0.1725  0.4870 -0.0558
  116OSM    H3F12159   3.159   2.526   6.815 -1.0713 -1.1295  2.0208
  116OSM    H3G12160   3.345   2.536   6.817  0.5427 -0.0293 -0.1923
  116OSM    C4F12161   3.262   2.404   6.963  0.6294  1.0444 -0.9716
  116OSM    H4F12162   3.346   2.332   6.969  0.2209  0.6698  2.3493
  116OSM    H4G12163   3.167   2.345   6.964  0.5547  1.1585  0.4854
  116OSM    C5F12164   3.275   2.515   7.072 -0.0172  0.5911 -0.5501
  116OSM    H5F12165   3.194   2.589   7.050  0.7118  1.1496 -1.3979
  116OSM    H5G12166   3.372   2.564   7.050  0.6540 -1.0867 -1.5031
  116OSM    C6F12167   3.267   2.473   7.220 -0.2021  0.1652  0.4674
  116OSM    H6F12168   3.294   2.366   7.234 -0.3896  0.3240  2.4547
  116OSM    H6G12169   3.156   2.475   7.229 -0.3343  0.5630 -1.0506
  116OSM    C7F12170   3.341   2.570   7.319 -0.0480 -0.0240  0.6315
  116OSM    H7F12171   3.322   2.672   7.279  1.2958 -1.7105 -5.2640
  116OSM    H7G12172   3.451   2.553   7.317 -0.3103 -1.9626  0.8734
  116OSM    C8F12173   3.291   2.547   7.464 -0.1427 -0.1225 -0.6530
  116OSM    H8F12174   3.181   2.561   7.469 -0.2283 -1.0644  0.8579
  116OSM    H8G12175   3.334   2.634   7.517  1.6283 -1.0770 -0.4378
  116OSM    C9F12176   3.343   2.416   7.532 -0.2580  0.7014  0.5835
  116OSM    H9F12177   3.348   2.325   7.470 -1.1068  0.5037  0.7856
  116OSM   C10F12178   3.366   2.406   7.659 -0.5561  0.3231  0.0779
  116OSM   H10F12179   3.394   2.305   7.694 -1.7993 -0.2381 -0.5001
  116OSM   C11F12180   3.343   2.508   7.767  0.0360  0.6169 -0.6307
  116OSM   H11F12181   3.335   2.612   7.728  0.9557 -0.0403 -2.7206
  116OSM   H11G12182   3.428   2.501   7.837  0.3481 -1.7077 -1.1710
  116OSM   C12F12183   3.208   2.468   7.841  0.5562  0.1443 -0.2996
  116OSM   H12F12184   3.128   2.467   7.764 -1.2569  2.5549  1.3826
  116OSM   H12G12185   3.187   2.546   7.918  0.4559 -0.4556  0.2869
  116OSM   C13F12186   3.185   2.334   7.918 -0.4161  0.0427 -0.5603
  116OSM   H13F12187   3.222   2.259   7.845  0.2852  0.1799 -0.3492
  116OSM   H13G12188   3.079   2.331   7.950 -1.2416 -1.2305 -3.1079
  116OSM   C14F12189   3.271   2.314   8.050  0.0803 -0.0654 -0.0831
  116OSM   H14F12190   3.368   2.366   8.029 -1.1678  2.1127 -0.7916
  116OSM   H14G12191   3.300   2.215   8.090  0.7580 -0.1046 -0.6580
  116OSM   C15F12192   3.210   2.387   8.169 -0.0679 -0.7718  0.4252
  116OSM   H15F12193   3.123   2.328   8.206  0.7110 -1.8275  0.6232
  116OSM   H15G12194   3.161   2.479   8.131  0.6601 -0.0128  1.2773
  116OSM   C16F12195   3.314   2.430   8.275  0.1866  0.0393 -0.2078
  116OSM   H16F12196   3.275   2.498   8.354  0.4687  1.5433 -1.2938
  116OSM   H16G12197   3.400   2.491   8.240 -0.2507  1.7435  1.5035
  116OSM   C17F12198   3.369   2.309   8.353  0.0412  0.5328  0.0790
  116OSM   H17F12199   3.375   2.218   8.290 -0.5786 -0.3818  1.2974
  116OSM   H17G12200   3.305   2.296   8.443 -1.6657 -0.3459 -1.2063
  116OSM   C18F12201   3.511   2.340   8.414 -0.4934 -0.0656  0.6668
  116OSM   H18F12202   3.497   2.426   8.483 -0.8202  0.5282 -0.1227
  116OSM   H18G12203   3.596   2.362   8.347  0.1377 -2.9374  0.3945
  116OSM   H18H12204   3.543   2.258   8.483  3.5386  0.8180  0.0717
  117OSM      N12205   1.836   3.782   5.893  0.2297  0.0780  0.4260
  117OSM    C1512206   1.691   3.798   5.924  0.4465  0.0132 -0.0486
  117OSM   H15A12207   1.637   3.770   5.834  1.2312  1.2110 -0.9124
  117OSM   H15B12208   1.667   3.903   5.934  1.4966  0.1990  0.6098
  117OSM   H15C12209   1.658   3.743   6.011 -0.2410 -1.8975 -1.4360
  117OSM    C1412210   1.848   3.640   5.862  0.6078 -0.1884  0.1065
  117OSM   H14A12211   1.951   3.609   5.854  1.3192 -0.4960  6.1536
  117OSM   H14B12212   1.795   3.626   5.769  0.0722  1.3230  0.1452
  117OSM   H14C12213   1.795   3.564   5.916 -1.9352 -0.3043 -2.2798
  117OSM    C1312214   1.866   3.857   5.769  0.4860 -0.1827 -0.3842
  117OSM   H13A12215   1.818   3.832   5.675 -0.7452  1.2306 -0.1607
  117OSM   H13B12216   1.973   3.843   5.757  0.4392 -2.6531  1.3585
  117OSM   H13C12217   1.846   3.963   5.773 -1.2559 -0.4664 -0.6548
  117OSM    C1212218   1.919   3.815   6.015  0.2502  0.6204  0.1474
  117OSM   H12A12219   1.894   3.916   6.041 -1.9237  0.0659  0.3552
  117OSM   H12B12220   2.024   3.810   5.987  0.3904  0.3465  0.6842
  117OSM    C1112221   1.894   3.738   6.147  0.3302 -0.3611 -0.0814
  117OSM   H11A12222   1.971   3.763   6.224 -0.0397  0.9979 -0.1280
  117OSM   H11B12223   1.916   3.631   6.125  0.0763 -0.9083  2.0857
  117OSM      P12224   1.724   3.887   6.278  0.3669  0.0810 -0.2836
  117OSM    O1312225   1.757   4.009   6.199  0.0839  0.3292 -0.1200
  117OSM    O1412226   1.579   3.870   6.306  0.5852  0.6805 -0.4558
  117OSM    O1112227   1.801   3.880   6.418  0.2243  0.3107  1.3998
  117OSM    O1212228   1.759   3.761   6.196 -1.0210 -0.2625 -0.3757
  117OSM    C1S12229   1.793   3.985   6.518  0.7236 -0.3738 -0.4198
  117OSM    H1S12230   1.690   3.989   6.559  1.1975 -0.9235  0.8421
  117OSM    H1T12231   1.823   4.087   6.485 -0.7681  1.3314  2.9969
  117OSM     NF12232   1.867   4.037   6.752  0.4602  0.3998 -0.2064
  117OSM    HNF12233   1.942   4.095   6.783  0.5340 -0.0966  0.5672
  117OSM    C2S12234   1.889   3.945   6.644  0.9793 -0.7927 -0.1919
  117OSM    H2S12235   1.846   3.849   6.678 -0.4381 -0.5503 -1.2153
  117OSM    C3S12236   2.039   3.929   6.600  0.4583  0.3187 -0.2538
  117OSM    H3S12237   2.072   4.032   6.576 -1.9628  0.8921 -1.3828
  117OSM     O312238   2.065   3.847   6.484 -0.3403 -0.5612  0.1508
  117OSM    HO312239   1.981   3.819   6.447 -0.1726  0.5525 -1.1649
  117OSM    C4S12240   2.115   3.886   6.722  0.1866 -0.0102  1.1308
  117OSM    H4S12241   2.047   3.825   6.783 -2.8052  1.5197 -0.4504
  117OSM    C5S12242   2.242   3.907   6.765  0.1532  0.4120 -0.2971
  117OSM    H5S12243   2.310   3.969   6.705 -0.0679  0.4760 -0.4849
  117OSM    C6S12244   2.289   3.854   6.901  0.1448  0.0534 -0.0600
  117OSM    H6S12245   2.393   3.879   6.931 -0.7371 -1.6074  5.5559
  117OSM    H6T12246   2.300   3.744   6.895 -1.5812 -0.5846  4.5440
  117OSM    C7S12247   2.211   3.892   7.022  0.2757  0.3607 -0.4296
  117OSM    H7S12248   2.103   3.866   7.019  0.6172 -1.5655  1.3729
  117OSM    H7T12249   2.214   4.001   7.042  0.7011  0.9283 -3.2162
  117OSM    C8S12250   2.270   3.831   7.147  0.1427 -0.7652  0.3395
  117OSM    H8S12251   2.358   3.892   7.179  0.0764 -0.8884  0.7693
  117OSM    H8T12252   2.320   3.732   7.140  3.3897  0.3953  3.6814
  117OSM    C9S12253   2.182   3.826   7.277 -0.1796 -0.0760  0.8502
  117OSM    H9S12254   2.075   3.821   7.247  0.3227 -2.2000 -0.8348
  117OSM    H9T12255   2.217   3.914   7.336  0.1550  0.1256  0.3585
  117OSM   C10S12256   2.221   3.702   7.362 -0.3544  0.1029 -0.0560
  117OSM   H10S12257   2.329   3.707   7.389 -0.7010  0.7558  1.3169
  117OSM   H10T12258   2.214   3.600   7.319  1.3243  0.6716 -1.8453
  117OSM   C11S12259   2.145   3.704   7.499  0.3129  0.2755 -0.1705
  117OSM   H11S12260   2.189   3.636   7.576  2.0788  1.3833 -0.1384
  117OSM   H11T12261   2.036   3.694   7.481  0.2004 -0.1402  0.6692
  117OSM   C12S12262   2.153   3.835   7.589  0.2258  0.6470 -0.3968
  117OSM   H12S12263   2.075   3.832   7.669  1.1915  0.6739  0.5659
  117OSM   H12T12264   2.120   3.920   7.526  1.4341  1.4280  0.0029
  117OSM   C13S12265   2.283   3.868   7.656 -0.4860  0.0521 -0.1679
  117OSM   H13S12266   2.353   3.901   7.576 -0.6019 -1.6092 -0.9854
  117OSM   H13T12267   2.311   3.771   7.702 -0.0673  0.7355  1.0995
  117OSM   C14S12268   2.283   3.976   7.767 -0.3633  0.5999 -0.1591
  117OSM   H14S12269   2.260   4.076   7.723 -0.5012 -0.6822 -3.2101
  117OSM   H14T12270   2.388   3.974   7.804 -0.2812 -0.8463 -0.4081
  117OSM   C15S12271   2.194   3.944   7.887 -0.3745 -0.1389 -0.6463
  117OSM   H15S12272   2.212   3.843   7.932  0.9779 -0.6709 -2.2495
  117OSM   H15T12273   2.089   3.935   7.853 -1.6860 -0.8094  3.1132
  117OSM   C16S12274   2.205   4.045   8.005 -0.0474  0.0357 -0.4812
  117OSM   H16S12275   2.190   4.148   7.964  0.7731  0.6067  0.5921
  117OSM   H16T12276   2.310   4.049   8.040  0.3758  1.5193 -1.7706
  117OSM   C17S12277   2.103   4.016   8.110  0.1518  0.8002  0.0855
  117OSM   H17S12278   2.006   4.000   8.059 -0.4821  1.4564  1.0526
  117OSM   H17T12279   2.099   4.095   8.188  2.4719  1.3930 -0.3376
  117OSM   C18S12280   2.123   3.880   8.175 -0.1875 -0.3128  0.4160
  117OSM   H18S12281   2.219   3.867   8.230 -0.3610 -0.8581  0.5973
  117OSM   H18T12282   2.110   3.794   8.106  2.9960  0.5958 -1.5005
  117OSM   H18U12283   2.051   3.865   8.259  0.7252 -0.6049  1.1673
  117OSM    C1F12284   1.755   4.040   6.822 -0.5991 -0.1523  0.2262
  117OSM     OF12285   1.667   3.956   6.811  0.1126  0.1102 -0.3756
  117OSM    C2F12286   1.749   4.159   6.913 -0.5088 -0.6398  0.4234
  117OSM    H2F12287   1.761   4.248   6.848 -0.4383  0.4326  1.8577
  117OSM    H2G12288   1.836   4.175   6.980  1.3796  0.8825 -2.1922
  117OSM    C3F12289   1.622   4.176   6.996  0.3627  0.0997  0.3590
  117OSM    H3F12290   1.537   4.189   6.927  0.0096  2.3124  1.1318
  117OSM    H3G12291   1.622   4.278   7.041 -0.3187  0.6610 -0.8739
  117OSM    C4F12292   1.612   4.068   7.108  0.4951 -0.0015 -0.6705
  117OSM    H4F12293   1.619   3.968   7.061  0.8133 -0.6357  0.6852
  117OSM    H4G12294   1.512   4.061   7.157  1.9301 -2.6624  2.1860
  117OSM    C5F12295   1.717   4.075   7.214  0.1503 -1.0868  0.4517
  117OSM    H5F12296   1.735   4.180   7.247  3.1216 -1.2575 -0.2894
  117OSM    H5G12297   1.812   4.035   7.173  0.2056 -0.6493  0.1501
  117OSM    C6F12298   1.681   3.987   7.336  0.1506  0.3984 -0.1550
  117OSM    H6F12299   1.664   3.887   7.292  1.1483  0.4618 -0.7247
  117OSM    H6G12300   1.585   4.023   7.379 -0.4115 -1.1223 -0.1060
  117OSM    C7F12301   1.792   3.980   7.438 -0.2574 -0.1904 -0.5223
  117OSM    H7F12302   1.852   4.072   7.453  1.0035 -0.7202 -1.9608
  117OSM    H7G12303   1.864   3.911   7.387  1.5629  2.1838 -1.3596
  117OSM    C8F12304   1.767   3.904   7.566 -0.6185  0.1350  0.1694
  117OSM    H8F12305   1.858   3.843   7.587  0.0439  0.9080 -0.3787
  117OSM    H8G12306   1.681   3.836   7.548 -0.2627 -0.2153 -0.2423
  117OSM    C9F12307   1.723   3.994   7.680  0.2253 -0.5934  0.0944
  117OSM    H9F12308   1.750   4.101   7.679  1.7395 -0.9259  1.5260
  117OSM   C10F12309   1.671   3.943   7.794 -0.7392 -0.2932 -0.1216
  117OSM   H10F12310   1.655   4.014   7.877  2.3953 -0.6115  0.8918
  117OSM   C11F12311   1.635   3.796   7.819  0.8371 -1.2708  0.4137
  117OSM   H11F12312   1.709   3.734   7.764  0.6171  0.9635 -2.6681
  117OSM   H11G12313   1.537   3.785   7.768  0.8516 -0.8870  0.2973
  117OSM   C12F12314   1.635   3.775   7.974 -0.6347 -0.0880  0.2074
  117OSM   H12F12315   1.562   3.848   8.015 -0.1828 -0.5437  1.8904
  117OSM   H12G12316   1.725   3.792   8.037 -0.8870  0.5655  0.3987
  117OSM   C13F12317   1.587   3.632   8.001 -0.4246 -0.0835  0.0012
  117OSM   H13F12318   1.651   3.549   7.963 -2.3856 -0.9497 -1.6322
  117OSM   H13G12319   1.493   3.625   7.943 -0.7870  2.2425  0.2166
  117OSM   C14F12320   1.554   3.608   8.147  0.3825 -0.0152 -0.2064
  117OSM   H14F12321   1.516   3.504   8.150 -0.9093  0.4311 -0.5653
  117OSM   H14G12322   1.468   3.658   8.197 -0.0510 -0.2965 -0.6596
  117OSM   C15F12323   1.677   3.604   8.236 -0.4332 -1.1156  0.0615
  117OSM   H15F12324   1.640   3.594   8.341 -0.6412  3.0196  0.5498
  117OSM   H15G12325   1.741   3.694   8.236  0.3840 -1.6646 -0.9907
  117OSM   C16F12326   1.755   3.468   8.203 -0.8377 -0.2108 -0.5382
  117OSM   H16F12327   1.825   3.480   8.118 -2.5492 -0.0438 -1.9512
  117OSM   H16G12328   1.679   3.388   8.191  0.6299 -1.8019  0.2740
  117OSM   C17F12329   1.848   3.422   8.321  0.2359 -0.1901 -0.6934
  117OSM   H17F12330   1.936   3.489   8.327  1.0390 -0.9675 -2.7359
  117OSM   H17G12331   1.787   3.418   8.413  1.5129  1.1585  0.2597
  117OSM   C18F12332   1.905   3.279   8.297 -0.2086 -0.6344  0.0301
  117OSM   H18F12333   1.978   3.244   8.373  1.9177  0.9358 -1.2040
  117OSM   H18G12334   1.966   3.290   8.205  2.1851 -0.3808  1.5687
  117OSM   H18H12335   1.825   3.205   8.275  0.7957 -1.9771  0.7444
  118OSM      N12336   4.202   5.092   5.897 -0.7522  0.9170  0.3966
  118OSM    C1512337   4.211   5.097   5.749  0.0308 -0.1164 -0.8439
  118OSM   H15A12338   4.312   5.119   5.715  0.8780  0.5847  1.9205
  118OSM   H15B12339   4.137   5.171   5.722 -2.1368 -0.8686  2.5343
  118OSM   H15C12340   4.174   5.005   5.708  0.8916 -0.7356 -0.2609
  118OSM    C1412341   4.231   5.224   5.954 -0.0094  0.0634 -0.0743
  118OSM   H14A12342   4.254   5.219   6.060  0.5907 -2.2527 -0.2555
  118OSM   H14B12343   4.162   5.303   5.930 -0.6070 -0.7638 -1.1362
  118OSM   H14C12344   4.326   5.263   5.921  0.8962 -1.5361  0.5185
  118OSM    C1312345   4.063   5.051   5.935  0.2706  1.0166  0.1029
  118OSM   H13A12346   4.045   4.947   5.909 -0.2428  0.4813  2.3717
  118OSM   H13B12347   3.983   5.113   5.898  2.0943  3.0722 -0.6118
  118OSM   H13C12348   4.060   5.041   6.043  1.3134 -3.0444 -0.0522
  118OSM    C1212349   4.312   4.993   5.951 -0.0585 -0.4046 -0.2059
  118OSM   H12A12350   4.409   5.031   5.924 -0.2909  0.9997  0.8275
  118OSM   H12B12351   4.290   4.902   5.897  0.4817 -1.1791  0.8463
  118OSM    C1112352   4.313   4.956   6.096  0.3229  0.4310 -0.7970
  118OSM   H11A12353   4.384   4.873   6.116 -2.5677 -1.5613  2.4030
  118OSM   H11B12354   4.219   4.907   6.129  0.0155  0.8259 -1.0764
  118OSM      P12355   4.488   5.130   6.193 -0.5372  0.3273  0.3549
  118OSM    O1312356   4.576   5.083   6.086 -0.4457  0.7817 -0.3251
  118OSM    O1412357   4.460   5.271   6.198  0.3592  0.1131 -0.9882
  118OSM    O1112358   4.536   5.100   6.336 -0.0786 -0.9046  0.1024
  118OSM    O1212359   4.343   5.065   6.185 -0.6639 -0.4385  0.3039
  118OSM    C1S12360   4.483   4.986   6.403  0.3174 -0.0929  0.1887
  118OSM    H1S12361   4.518   4.894   6.351  0.8153 -0.3555  0.9687
  118OSM    H1T12362   4.372   4.976   6.402  0.4438 -1.7913 -1.1264
  118OSM     NF12363   4.508   4.848   6.597  0.7390 -0.4060  0.4211
  118OSM    HNF12364   4.452   4.834   6.678 -3.2082 -2.4918 -2.3005
  118OSM    C2S12365   4.534   4.977   6.549 -0.0866  0.6656  0.4398
  118OSM    H2S12366   4.644   4.992   6.554 -0.2560  1.8340  0.9639
  118OSM    C3S12367   4.475   5.083   6.645 -0.2986  0.0826  0.7589
  118OSM    H3S12368   4.364   5.073   6.650 -0.5114  1.6522 -0.2710
  118OSM     O312369   4.484   5.220   6.605 -0.1305  0.2695  0.2580
  118OSM    HO312370   4.494   5.228   6.510 -0.5270  1.8084  0.3234
  118OSM    C4S12371   4.533   5.065   6.785 -1.0511 -0.0580 -0.4139
  118OSM    H4S12372   4.463   5.033   6.863  0.2987  0.7619  1.1962
  118OSM    C5S12373   4.649   5.114   6.828  0.6918  0.1489 -0.3632
  118OSM    H5S12374   4.710   5.176   6.761 -0.5951  1.0734 -0.7223
  118OSM    C6S12375   4.703   5.117   6.966  0.2354 -0.6413  0.0606
  118OSM    H6S12376   4.728   5.222   6.993 -0.8849 -0.1738 -0.6370
  118OSM    H6T12377   4.795   5.056   6.981  2.6676  2.2895 -1.6479
  118OSM    C7S12378   4.602   5.083   7.081  0.0866  0.1300 -0.1895
  118OSM    H7S12379   4.565   4.980   7.062  0.3729 -0.2265  1.1503
  118OSM    H7T12380   4.523   5.161   7.091  0.2082  0.0827  1.2376
  118OSM    C8S12381   4.660   5.076   7.223  0.0226  0.1149 -0.4350
  118OSM    H8S12382   4.747   5.008   7.220  0.4598  0.6881 -1.1171
  118OSM    H8T12383   4.580   5.032   7.287  1.3557 -0.0182  1.1949
  118OSM    C9S12384   4.705   5.211   7.278  0.4295 -0.8587 -0.1246
  118OSM    H9S12385   4.618   5.279   7.262  0.5523 -0.9355 -1.1360
  118OSM    H9T12386   4.792   5.245   7.219 -1.1193  2.5022 -0.7225
  118OSM   C10S12387   4.762   5.202   7.419  0.0819  0.1690 -0.2044
  118OSM   H10S12388   4.820   5.289   7.456  0.4004 -0.2641  0.3301
  118OSM   H10T12389   4.839   5.122   7.414  1.3709  1.3080  0.8304
  118OSM   C11S12390   4.656   5.146   7.524  0.1113  0.0031 -0.6700
  118OSM   H11S12391   4.716   5.127   7.615 -2.2926  2.1776  1.5454
  118OSM   H11T12392   4.598   5.057   7.491 -0.2334 -0.6128  1.4268
  118OSM   C12S12393   4.555   5.256   7.564 -0.3999 -0.0731  0.2346
  118OSM   H12S12394   4.491   5.288   7.479  1.2350  0.4658 -0.8531
  118OSM   H12T12395   4.621   5.341   7.594 -2.2692  1.3495  0.4992
  118OSM   C13S12396   4.470   5.209   7.682  0.2418  0.9821  0.2156
  118OSM   H13S12397   4.524   5.217   7.778 -0.4717  0.4799  0.6715
  118OSM   H13T12398   4.450   5.100   7.673  0.7081  0.6943  2.2528
  118OSM   C14S12399   4.344   5.289   7.696  0.0791  0.2886 -0.1402
  118OSM   H14S12400   4.270   5.275   7.614 -1.7790  3.9956  0.6749
  118OSM   H14T12401   4.354   5.399   7.710 -0.6910  0.5001 -1.1290
  118OSM   C15S12402   4.262   5.235   7.815 -0.2787 -0.6071 -1.1527
  118OSM   H15S12403   4.322   5.244   7.908 -0.8609  1.0897 -0.9006
  118OSM   H15T12404   4.230   5.133   7.785 -2.6650  0.5442 -2.9166
  118OSM   C16S12405   4.141   5.324   7.825  0.4701 -0.4482  0.2552
  118OSM   H16S12406   4.108   5.339   7.720  2.2019  0.2168 -0.2211
  118OSM   H16T12407   4.177   5.425   7.852 -1.0495  0.1436  0.1732
  118OSM   C17S12408   4.029   5.282   7.917 -0.2184 -0.5156  0.0481
  118OSM   H17S12409   4.073   5.294   8.019 -2.6162 -0.2471  1.1220
  118OSM   H17T12410   3.988   5.180   7.899 -2.4993  0.3257  0.0953
  118OSM   C18S12411   3.912   5.375   7.899  0.0640 -0.7783 -0.0206
  118OSM   H18S12412   3.830   5.341   7.965 -2.3397  2.9017 -0.7700
  118OSM   H18T12413   3.874   5.370   7.795  1.2177  0.6738 -0.5470
  118OSM   H18U12414   3.933   5.479   7.934  1.0850 -0.6885 -0.8637
  118OSM    C1F12415   4.578   4.740   6.557 -0.9424 -0.1402 -0.5679
  118OSM     OF12416   4.663   4.737   6.469  0.4849 -0.3368 -0.3332
  118OSM    C2F12417   4.550   4.612   6.634  0.5892 -0.2592 -0.6354
  118OSM    H2F12418   4.501   4.536   6.569  0.1399 -0.6993  0.1991
  118OSM    H2G12419   4.475   4.621   6.715  3.0670 -2.0188  2.0607
  118OSM    C3F12420   4.674   4.557   6.712  0.4432  0.4848 -0.0427
  118OSM    H3F12421   4.761   4.552   6.644  0.0560 -0.1717 -0.4964
  118OSM    H3G12422   4.644   4.456   6.747  1.9930  0.1955  0.5454
  118OSM    C4F12423   4.703   4.651   6.824 -0.6831  0.2966 -1.0668
  118OSM    H4F12424   4.638   4.740   6.811 -0.7408  0.6083  1.1047
  118OSM    H4G12425   4.807   4.690   6.818 -0.0324 -0.9797  1.0677
  118OSM    C5F12426   4.686   4.596   6.958 -0.0225 -0.0889 -0.1878
  118OSM    H5F12427   4.777   4.538   6.986 -0.0382  0.8654  2.0950
  118OSM    H5G12428   4.604   4.521   6.961  0.1694 -0.3013 -0.1604
  118OSM    C6F12429   4.660   4.696   7.069 -0.5284  0.4335 -0.3433
  118OSM    H6F12430   4.556   4.731   7.051 -0.3232  2.1795  1.5868
  118OSM    H6G12431   4.721   4.789   7.076 -1.1376  0.7692  0.6047
  118OSM    C7F12432   4.682   4.629   7.204  1.4674  0.0014  0.0737
  118OSM    H7F12433   4.790   4.608   7.219  1.6960  1.7609  1.1354
  118OSM    H7G12434   4.626   4.533   7.208  0.9189  0.3683  2.3580
  118OSM    C8F12435   4.625   4.721   7.318 -0.3629 -0.2986  0.3598
  118OSM    H8F12436   4.672   4.821   7.302 -1.0844 -0.1322 -0.8380
  118OSM    H8G12437   4.654   4.674   7.414  0.0115 -0.6103  0.0996
  118OSM    C9F12438   4.479   4.734   7.321  0.2899 -0.2684  0.5972
  118OSM    H9F12439   4.428   4.806   7.255  0.9807  0.9900  1.3969
  118OSM   C10F12440   4.385   4.669   7.399 -0.1435  0.0628  0.0538
  118OSM   H10F12441   4.281   4.703   7.396  0.3074  1.5465  0.6597
  118OSM   C11F12442   4.423   4.562   7.501 -0.1946  0.1148  0.0246
  118OSM   H11F12443   4.521   4.513   7.488  0.5316  1.9607 -2.0950
  118OSM   H11G12444   4.348   4.481   7.492 -0.2737  0.2542 -0.6003
  118OSM   C12F12445   4.405   4.627   7.636 -0.2309 -0.5848 -0.3107
  118OSM   H12F12446   4.425   4.549   7.712  2.3209  0.3825  0.1100
  118OSM   H12G12447   4.319   4.693   7.661  0.9838 -0.1574  3.2846
  118OSM   C13F12448   4.531   4.712   7.664  0.1990  0.1638 -0.5312
  118OSM   H13F12449   4.519   4.807   7.608 -2.1667  0.1542 -0.1467
  118OSM   H13G12450   4.608   4.648   7.616  0.7679  1.1108 -0.9059
  118OSM   C14F12451   4.567   4.743   7.814 -0.1469 -0.4374 -0.1172
  118OSM   H14F12452   4.591   4.645   7.859 -1.4140 -0.7298 -0.0527
  118OSM   H14G12453   4.474   4.781   7.861 -1.2184 -2.2912 -0.6674
  118OSM   C15F12454   4.681   4.846   7.830  0.4623 -0.0968  0.2704
  118OSM   H15F12455   4.644   4.936   7.778  1.8309 -1.2627 -2.9678
  118OSM   H15G12456   4.764   4.796   7.775 -0.1382 -1.1790  0.3102
  118OSM   C16F12457   4.724   4.877   7.975  0.1925  0.3491 -0.2627
  118OSM   H16F12458   4.735   4.781   8.029 -0.6167 -0.6718 -1.8539
  118OSM   H16G12459   4.637   4.919   8.030 -2.4480 -3.8783 -0.8274
  118OSM   C17F12460   4.849   4.960   7.976  0.8314 -0.2282 -1.0228
  118OSM   H17F12461   4.838   5.045   7.905 -1.7141 -0.3778 -0.9148
  118OSM   H17G12462   4.929   4.902   7.927 -1.0166 -2.6308 -1.3831
  118OSM   C18F12463   4.894   5.006   8.115  0.4769 -0.2428  0.3677
  118OSM   H18F12464   4.990   5.061   8.123  1.3371 -1.7442  0.6918
  118OSM   H18G12465   4.909   4.915   8.177 -1.4873 -2.3061 -1.9622
  118OSM   H18H12466   4.817   5.070   8.163 -0.0188 -1.2626  0.9656
  119OSM      N12467   0.019   6.007   5.782 -0.3305 -0.3749  0.3059
  119OSM    C1512468  -0.072   6.124   5.767 -0.5398  0.3983  0.2814
  119OSM   H15A12469  -0.063   6.163   5.667  1.7691  0.1336  0.3296
  119OSM   H15B12470  -0.034   6.204   5.829  0.7434  0.0401 -0.0170
  119OSM   H15C12471  -0.171   6.095   5.799  0.3070 -3.7517 -0.3412
  119OSM    C1412472  -0.020   5.900   5.686  0.6159  0.9790 -0.2757
  119OSM   H14A12473   0.026   5.804   5.704 -0.2565  0.5360 -0.3296
  119OSM   H14B12474  -0.009   5.924   5.582  0.6185 -1.2132 -0.8409
  119OSM   H14C12475  -0.124   5.872   5.687  1.0388 -1.4672 -4.2141
  119OSM    C1312476   0.158   6.049   5.746 -0.2585 -0.8710  0.1530
  119OSM   H13A12477   0.163   6.070   5.640 -1.7812 -2.6828 -0.3245
  119OSM   H13B12478   0.222   5.968   5.781 -0.4773 -1.0495  0.1417
  119OSM   H13C12479   0.187   6.143   5.790 -1.7090  0.6268 -1.9050
  119OSM    C1212480   0.013   5.959   5.922 -0.1799  0.4238 -0.4223
  119OSM   H12A12481  -0.091   5.957   5.953  0.0437 -0.3056  0.3275
  119OSM   H12B12482   0.049   6.035   5.991 -2.0683 -0.0868  1.2426
  119OSM    C1112483   0.085   5.823   5.957 -0.6262  0.9452  0.4686
  119OSM   H11A12484   0.079   5.806   6.067 -0.9348  0.4667  0.3814
  119OSM   H11B12485   0.195   5.830   5.941 -0.8804  2.3634 -0.7766
  119OSM      P12486  -0.085   5.620   5.926 -0.0860 -0.0532 -0.0479
  119OSM    O1312487  -0.143   5.573   5.797 -0.0478 -0.8336 -0.2275
  119OSM    O1412488  -0.035   5.521   6.021 -0.3439 -0.9450 -0.4249
  119OSM    O1112489  -0.176   5.717   5.996  0.4289  0.2070 -0.0643
  119OSM    O1212490   0.039   5.711   5.879  0.1416 -0.0019 -0.4398
  119OSM    C1S12491  -0.271   5.677   6.091 -0.2270  0.2362 -0.6321
  119OSM    H1S12492  -0.303   5.571   6.076  2.0175 -0.3125 -2.0262
  119OSM    H1T12493  -0.368   5.728   6.070 -1.5052 -0.6481  2.5025
  119OSM     NF12494  -0.365   5.658   6.312 -0.6136 -0.1401  0.0401
  119OSM    HNF12495  -0.431   5.729   6.337  0.2407  0.7614 -0.2243
  119OSM    C2S12496  -0.254   5.713   6.239 -0.2886  0.6694 -0.3722
  119OSM    H2S12497  -0.166   5.654   6.271 -1.8219 -1.6575 -0.1675
  119OSM    C3S12498  -0.237   5.867   6.265 -0.4950 -0.3565  0.6056
  119OSM    H3S12499  -0.333   5.922   6.250 -0.7214 -0.8332  0.2748
  119OSM     O312500  -0.138   5.905   6.170 -0.6327 -0.3463  0.1195
  119OSM    HO312501  -0.146   5.832   6.109  0.3173 -0.9097  0.6466
  119OSM    C4S12502  -0.181   5.900   6.403  0.3620  0.6074 -0.3304
  119OSM    H4S12503  -0.072   5.911   6.406  0.3336  0.9335 -0.4844
  119OSM    C5S12504  -0.253   5.942   6.511 -0.1759  0.1003 -0.1642
  119OSM    H5S12505  -0.362   5.955   6.505 -0.4041 -1.6976 -0.4296
  119OSM    C6S12506  -0.198   5.975   6.646 -1.3933  0.3904 -0.2404
  119OSM    H6S12507  -0.253   5.910   6.718  0.8459  0.7742  1.9819
  119OSM    H6T12508  -0.217   6.083   6.662 -0.3407  0.4874  0.4627
  119OSM    C7S12509  -0.048   5.951   6.672 -0.3883  0.1599 -0.0825
  119OSM    H7S12510   0.015   6.022   6.613 -0.6145 -0.2633 -0.8529
  119OSM    H7T12511  -0.030   5.845   6.644 -0.1544  0.8731 -2.9423
  119OSM    C8S12512   0.004   5.964   6.821  1.2247  0.1144 -0.7016
  119OSM    H8S12513  -0.017   6.069   6.850 -0.1342 -0.5784  0.9265
  119OSM    H8T12514   0.115   5.955   6.817  1.1981  0.0786 -2.9183
  119OSM    C9S12515  -0.067   5.863   6.917  0.5924 -0.0976  0.2724
  119OSM    H9S12516  -0.061   5.760   6.876  1.7400 -0.2127  0.6901
  119OSM    H9T12517  -0.172   5.892   6.935  1.3865  2.8273  0.5739
  119OSM   C10S12518   0.010   5.843   7.053  0.0785  0.2627 -0.1682
  119OSM   H10S12519   0.028   5.947   7.088 -1.7128  0.7519 -0.5923
  119OSM   H10T12520   0.109   5.794   7.036  0.3080  0.1182  1.4218
  119OSM   C11S12521  -0.077   5.766   7.146 -0.2080 -0.2746  0.0808
  119OSM   H11S12522  -0.099   5.667   7.100  1.5224 -1.0943  0.8786
  119OSM   H11T12523  -0.171   5.818   7.172  0.5019  0.5101  1.1708
  119OSM   C12S12524  -0.005   5.738   7.279 -0.0188 -0.3304  0.0276
  119OSM   H12S12525   0.029   5.834   7.322  2.0972 -1.3918  0.8963
  119OSM   H12T12526   0.082   5.669   7.271 -0.8747 -1.2543 -2.0811
  119OSM   C13S12527  -0.099   5.672   7.385  0.2761 -0.6751 -0.1256
  119OSM   H13S12528  -0.180   5.744   7.410 -1.6591 -2.9098  0.3674
  119OSM   H13T12529  -0.044   5.673   7.481  0.1490  0.9192 -0.0422
  119OSM   C14S12530  -0.152   5.535   7.364  0.5529  0.3521 -0.5569
  119OSM   H14S12531  -0.176   5.517   7.257 -0.6605  1.1374 -0.4370
  119OSM   H14T12532  -0.242   5.520   7.427 -0.1196  2.5082 -0.9091
  119OSM   C15S12533  -0.042   5.428   7.379  0.7776 -0.9738 -0.2527
  119OSM   H15S12534   0.009   5.444   7.477 -0.6247  0.9459  0.2262
  119OSM   H15T12535   0.026   5.434   7.292  0.2541  2.1558 -0.5737
  119OSM   C16S12536  -0.103   5.291   7.390 -0.1764 -0.0194  0.0409
  119OSM   H16S12537  -0.181   5.294   7.470 -0.0005  0.5903  0.1938
  119OSM   H16T12538  -0.025   5.216   7.415 -0.9685 -0.4797  1.2749
  119OSM   C17S12539  -0.163   5.234   7.263  1.1702  0.2835  0.0583
  119OSM   H17S12540  -0.120   5.273   7.168 -0.1056 -0.1349 -0.7035
  119OSM   H17T12541  -0.268   5.270   7.264  0.6221 -1.1103 -1.9327
  119OSM   C18S12542  -0.169   5.080   7.267  0.7162  0.3889 -0.3491
  119OSM   H18S12543  -0.221   5.042   7.357 -0.2753  2.0955 -0.1531
  119OSM   H18T12544  -0.064   5.042   7.271  0.2407 -0.9696 -0.3358
  119OSM   H18U12545  -0.214   5.040   7.174  0.2164 -0.1845  0.1384
  119OSM    C1F12546  -0.374   5.528   6.322  0.7230  0.1932 -0.9016
  119OSM     OF12547  -0.278   5.451   6.316  1.1620  0.7210  0.0932
  119OSM    C2F12548  -0.513   5.481   6.362 -0.1325 -0.5457 -0.0307
  119OSM    H2F12549  -0.589   5.512   6.287  0.4563  0.4629 -0.2308
  119OSM    H2G12550  -0.532   5.546   6.450 -0.0395  0.3640 -0.6572
  119OSM    C3F12551  -0.523   5.337   6.410 -0.1759  0.3295  0.2846
  119OSM    H3F12552  -0.465   5.272   6.342  2.9960  1.9285  1.2524
  119OSM    H3G12553  -0.633   5.317   6.407 -0.9983  3.9199  1.5206
  119OSM    C4F12554  -0.459   5.301   6.544 -0.3994 -1.1507 -0.2760
  119OSM    H4F12555  -0.486   5.385   6.612  1.6505  0.0699 -0.8841
  119OSM    H4G12556  -0.350   5.295   6.526  0.0347 -0.6932  1.8841
  119OSM    C5F12557  -0.517   5.167   6.597  0.2702 -0.1939  1.1735
  119OSM    H5F12558  -0.463   5.077   6.562 -0.4149  0.4464 -1.8915
  119OSM    H5G12559  -0.623   5.156   6.566 -0.0611  2.0188  1.3626
  119OSM    C6F12560  -0.519   5.157   6.753  0.6646  0.8597 -0.5301
  119OSM    H6F12561  -0.568   5.249   6.792  3.0593  1.6062  0.9554
  119OSM    H6G12562  -0.415   5.155   6.795  0.8468  0.1608 -0.9975
  119OSM    C7F12563  -0.591   5.027   6.788  0.2458  0.0018 -0.0673
  119OSM    H7F12564  -0.525   4.942   6.759  1.2854 -0.7285  3.8914
  119OSM    H7G12565  -0.690   5.017   6.740  0.6520 -1.9062 -0.6279
  119OSM    C8F12566  -0.616   5.007   6.937 -0.1557 -0.3453 -0.8092
  119OSM    H8F12567  -0.698   4.933   6.950 -0.9264  0.7317  0.8123
  119OSM    H8G12568  -0.664   5.102   6.968 -0.6661 -0.0831 -2.3230
  119OSM    C9F12569  -0.498   4.967   7.025  0.9905 -0.0436  0.4689
  119OSM    H9F12570  -0.414   5.038   7.017  0.4063  0.4248 -3.3120
  119OSM   C10F12571  -0.485   4.844   7.085 -0.4292 -0.4973 -0.2083
  119OSM   H10F12572  -0.396   4.830   7.148 -0.3695 -1.0248 -0.4039
  119OSM   C11F12573  -0.586   4.729   7.099  0.5778  0.0670 -0.7157
  119OSM   H11F12574  -0.533   4.632   7.086  0.7209 -0.1749  1.3744
  119OSM   H11G12575  -0.666   4.728   7.021  0.1367 -1.7591 -0.2906
  119OSM   C12F12576  -0.641   4.743   7.238  0.5141  0.4949 -0.6815
  119OSM   H12F12577  -0.695   4.839   7.250  0.2994  0.3366 -0.3553
  119OSM   H12G12578  -0.566   4.744   7.319  0.6778  0.2382 -0.8283
  119OSM   C13F12579  -0.747   4.636   7.275  0.2862 -0.3817  0.0513
  119OSM   H13F12580  -0.697   4.538   7.259  1.9855  0.4238  0.1266
  119OSM   H13G12581  -0.831   4.656   7.206 -0.0630  1.2182  0.8983
  119OSM   C14F12582  -0.798   4.637   7.423 -0.4562  0.5025 -0.6946
  119OSM   H14F12583  -0.715   4.613   7.493 -0.1149  0.0046 -1.2638
  119OSM   H14G12584  -0.848   4.537   7.430  2.2695 -1.0232 -1.6905
  119OSM   C15F12585  -0.889   4.755   7.467 -0.3118 -0.6702 -0.2537
  119OSM   H15F12586  -0.958   4.778   7.383  0.3432  0.2645 -0.5617
  119OSM   H15G12587  -0.820   4.842   7.471 -1.6540  0.3679  0.6740
  119OSM   C16F12588  -0.940   4.733   7.606  1.0663 -0.5546  0.0807
  119OSM   H16F12589  -1.013   4.649   7.607  1.4094 -0.8576  1.6352
  119OSM   H16G12590  -0.990   4.827   7.640  0.2967 -0.3619 -1.4814
  119OSM   C17F12591  -0.843   4.695   7.714 -0.7684  0.5631  0.0109
  119OSM   H17F12592  -0.745   4.736   7.682  0.0099 -3.7376 -4.1019
  119OSM   H17G12593  -0.826   4.587   7.697 -1.2316  0.4479  0.2485
  119OSM   C18F12594  -0.889   4.704   7.858 -0.4843 -0.9653  0.5392
  119OSM   H18F12595  -0.811   4.649   7.916 -0.7961 -1.0271  0.9103
  119OSM   H18G12596  -0.988   4.660   7.885 -0.8075  0.6011  2.0835
  119OSM   H18H12597  -0.890   4.811   7.885 -1.0139 -0.4573 -1.3398
  120OSM      N12598   3.320   2.851   6.483 -0.1466 -0.2379 -0.2536
  120OSM    C1512599   3.224   2.936   6.402 -0.2368 -0.2249 -0.3619
  120OSM   H15A12600   3.283   2.989   6.328  1.7989 -0.8573  0.7173
  120OSM   H15B12601   3.172   3.009   6.463  1.6733  0.7459  0.2185
  120OSM   H15C12602   3.149   2.874   6.357 -1.3684 -0.0766  1.2428
  120OSM    C1412603   3.412   2.943   6.565 -0.7149  0.1616  0.4113
  120OSM   H14A12604   3.504   2.890   6.584 -0.1941  0.7321 -0.4450
  120OSM   H14B12605   3.358   2.976   6.652 -0.2077 -0.1068  0.8331
  120OSM   H14C12606   3.426   3.021   6.492 -1.2509 -1.1935 -1.2349
  120OSM    C1312607   3.233   2.775   6.578 -0.7931  0.1679 -0.6190
  120OSM   H13A12608   3.165   2.834   6.637 -1.4792  1.1866 -2.3423
  120OSM   H13B12609   3.291   2.728   6.655 -0.6255 -0.5357 -1.1682
  120OSM   H13C12610   3.172   2.700   6.529  0.3258  0.7795 -3.1040
  120OSM    C1212611   3.385   2.755   6.388 -0.5652  0.0432  0.6888
  120OSM   H12A12612   3.421   2.804   6.299 -0.8705  1.7560  1.4663
  120OSM   H12B12613   3.311   2.685   6.353  1.7041 -2.1809  0.0594
  120OSM    C1112614   3.502   2.668   6.446  1.0917  0.2744  0.1280
  120OSM   H11A12615   3.538   2.607   6.360  1.4476  3.0854 -1.8772
  120OSM   H11B12616   3.455   2.594   6.514 -3.0507 -1.1243 -3.7705
  120OSM      P12617   3.708   2.830   6.408 -0.3543  0.0856 -0.0526
  120OSM    O1312618   3.655   2.841   6.273  0.0870  0.5274 -0.1066
  120OSM    O1412619   3.731   2.954   6.477  0.0033 -0.2903  0.0151
  120OSM    O1112620   3.835   2.738   6.403  0.1501  0.0038  0.3392
  120OSM    O1212621   3.609   2.745   6.502  0.0604  0.3923 -0.7522
  120OSM    C1S12622   3.937   2.742   6.503  0.7796  0.1803 -0.4977
  120OSM    H1S12623   3.961   2.847   6.529 -1.1256  0.6047 -0.2676
  120OSM    H1T12624   4.025   2.693   6.457  0.2092 -1.7387  0.3602
  120OSM     NF12625   3.991   2.658   6.728  0.0583  0.2798 -0.3066
  120OSM    HNF12626   4.066   2.591   6.734 -1.6763 -1.7933 -0.4675
  120OSM    C2S12627   3.895   2.655   6.626 -0.0031  0.0750  0.1149
  120OSM    H2S12628   3.797   2.694   6.660  0.2813 -0.3760  1.5208
  120OSM    C3S12629   3.870   2.505   6.570 -0.2358 -0.1148 -0.8679
  120OSM    H3S12630   3.967   2.461   6.538  1.0284 -0.0795  2.4973
  120OSM     O312631   3.789   2.497   6.459  0.0208  0.7744 -0.0360
  120OSM    HO312632   3.797   2.583   6.417  2.2602 -0.0886 -1.5579
  120OSM    C4S12633   3.827   2.414   6.687  0.5291  0.0260  0.2009
  120OSM    H4S12634   3.906   2.366   6.748  0.7784  1.4210  1.0263
  120OSM    C5S12635   3.698   2.370   6.711 -0.0896  0.0342 -0.2221
  120OSM    H5S12636   3.611   2.405   6.653  0.5807  0.2907 -1.0864
  120OSM    C6S12637   3.672   2.277   6.829 -0.0934  0.2477 -0.0646
  120OSM    H6S12638   3.742   2.193   6.807 -0.6448  0.2567 -2.0911
  120OSM    H6T12639   3.568   2.238   6.827 -0.6174  1.5618  0.7318
  120OSM    C7S12640   3.681   2.334   6.976 -0.4067  0.1981  0.6198
  120OSM    H7S12641   3.611   2.420   6.975  0.5307  0.9723  0.1770
  120OSM    H7T12642   3.785   2.371   6.988 -0.8556  1.7392  0.0402
  120OSM    C8S12643   3.647   2.233   7.085  0.7552  0.5561 -0.1856
  120OSM    H8S12644   3.732   2.162   7.099 -1.2511 -1.8526  0.5549
  120OSM    H8T12645   3.549   2.185   7.066  1.7266 -1.6483  0.1016
  120OSM    C9S12646   3.640   2.315   7.215 -0.0643  0.6929 -0.1465
  120OSM    H9S12647   3.542   2.367   7.220 -0.9972 -1.0428  0.5852
  120OSM    H9T12648   3.723   2.389   7.222  0.8679 -0.4055  0.8474
  120OSM   C10S12649   3.646   2.214   7.331 -0.4555  0.4935 -0.1440
  120OSM   H10S12650   3.726   2.142   7.303 -0.0711 -0.1815  2.4644
  120OSM   H10T12651   3.550   2.158   7.332  0.7877 -1.7523 -0.2131
  120OSM   C11S12652   3.679   2.272   7.468  0.2035  0.2653  0.3625
  120OSM   H11S12653   3.632   2.373   7.461  0.8036  0.4516 -1.8551
  120OSM   H11T12654   3.788   2.292   7.477  0.1539  0.3648  0.7499
  120OSM   C12S12655   3.636   2.188   7.579 -0.0681 -0.0593 -0.2684
  120OSM   H12S12656   3.705   2.101   7.570  1.4324  0.6879  2.6583
  120OSM   H12T12657   3.531   2.156   7.564 -0.4497  0.6473  0.7975
  120OSM   C13S12658   3.660   2.237   7.718 -0.5659 -0.6979  0.3750
  120OSM   H13S12659   3.600   2.327   7.742  2.5828  1.8583 -0.6829
  120OSM   H13T12660   3.765   2.271   7.713 -0.5257 -0.9804 -1.6251
  120OSM   C14S12661   3.644   2.130   7.827  0.7795  0.3328  0.6992
  120OSM   H14S12662   3.701   2.040   7.797  0.6448  1.0108 -1.7580
  120OSM   H14T12663   3.535   2.108   7.835  0.7913  0.4511  1.2233
  120OSM   C15S12664   3.696   2.186   7.958 -0.6169  0.2600  0.5889
  120OSM   H15S12665   3.650   2.283   7.986 -0.5966  0.3002  0.4832
  120OSM   H15T12666   3.803   2.213   7.943 -0.3718 -1.0475 -0.1746
  120OSM   C16S12667   3.678   2.082   8.069 -0.7377  0.2356 -0.3396
  120OSM   H16S12668   3.719   1.981   8.046 -0.2344 -0.0672  1.6255
  120OSM   H16T12669   3.570   2.071   8.093 -0.7433  2.2745  0.7480
  120OSM   C17S12670   3.733   2.130   8.207  0.1712 -0.1030 -0.3753
  120OSM   H17S12671   3.694   2.233   8.218 -3.5239 -1.5776  2.4144
  120OSM   H17T12672   3.844   2.138   8.199  0.3642  2.7913  2.8197
  120OSM   C18S12673   3.687   2.054   8.328 -0.2577  0.5182  0.1680
  120OSM   H18S12674   3.578   2.034   8.337  0.0456 -0.9236  1.0757
  120OSM   H18T12675   3.713   2.105   8.424 -0.3544  2.5508 -0.8401
  120OSM   H18U12676   3.742   1.957   8.331 -0.5227  0.3728  0.3866
  120OSM    C1F12677   3.994   2.775   6.792 -0.1281 -0.1023  0.2127
  120OSM     OF12678   3.897   2.847   6.789  0.2426 -0.2327 -0.7862
  120OSM    C2F12679   4.129   2.815   6.847 -0.2326 -0.3149 -0.5046
  120OSM    H2F12680   4.194   2.817   6.757 -1.9552 -0.6511 -1.8228
  120OSM    H2G12681   4.173   2.731   6.905  0.8861  0.7502  0.2102
  120OSM    C3F12682   4.137   2.946   6.915 -0.8351 -0.1076  0.3058
  120OSM    H3F12683   4.065   2.950   6.999 -0.2464  0.5346  0.7924
  120OSM    H3G12684   4.114   3.028   6.844  2.7545  0.7697 -0.0317
  120OSM    C4F12685   4.287   2.981   6.946  0.2472  0.3093 -0.4097
  120OSM    H4F12686   4.286   3.087   6.980 -2.7775  0.7370 -1.4941
  120OSM    H4G12687   4.356   2.979   6.859  0.4973  1.0421 -0.2349
  120OSM    C5F12688   4.356   2.897   7.059  0.2753  0.0451 -0.3793
  120OSM    H5F12689   4.456   2.943   7.071  0.2782  0.1348 -0.7310
  120OSM    H5G12690   4.356   2.791   7.025 -2.7480 -0.0700 -0.3278
  120OSM    C6F12691   4.274   2.897   7.189 -0.2191  0.0323  0.3196
  120OSM    H6F12692   4.177   2.849   7.166  1.2538 -2.2115 -1.7778
  120OSM    H6G12693   4.252   3.000   7.225 -1.9202 -0.3354  0.4039
  120OSM    C7F12694   4.337   2.810   7.306  0.3928 -0.7913 -0.0003
  120OSM    H7F12695   4.357   2.708   7.267 -2.8569 -1.2215 -0.8045
  120OSM    H7G12696   4.263   2.804   7.389 -0.9770  0.5966 -1.0830
  120OSM    C8F12697   4.463   2.873   7.368 -0.7923 -0.3521 -0.5104
  120OSM    H8F12698   4.417   2.970   7.397 -0.8077  0.4846 -3.1416
  120OSM    H8G12699   4.535   2.886   7.285 -1.0721  0.2703 -0.6591
  120OSM    C9F12700   4.528   2.804   7.480  0.2636  0.7979 -0.7107
  120OSM    H9F12701   4.629   2.768   7.458  1.2179  1.1926  2.6232
  120OSM   C10F12702   4.484   2.791   7.605  0.0585  0.3008  0.1815
  120OSM   H10F12703   4.557   2.742   7.672 -0.4952 -1.8048 -0.6566
  120OSM   C11F12704   4.355   2.847   7.673 -0.2166  0.3967 -0.8050
  120OSM   H11F12705   4.284   2.893   7.601 -1.6544 -2.4213 -1.3343
  120OSM   H11G12706   4.374   2.928   7.747 -1.5117 -0.3772  0.4263
  120OSM   C12F12707   4.269   2.747   7.760 -0.5586  0.8370  0.8201
  120OSM   H12F12708   4.253   2.652   7.704 -0.3813  1.4747 -0.3274
  120OSM   H12G12709   4.170   2.794   7.779 -0.8242  1.0175 -0.8606
  120OSM   C13F12710   4.341   2.720   7.893 -0.5359 -0.1105  0.4380
  120OSM   H13F12711   4.351   2.814   7.951  0.5578  0.3357 -0.4470
  120OSM   H13G12712   4.445   2.687   7.877 -1.4236 -1.4139 -4.2689
  120OSM   C14F12713   4.259   2.629   7.990 -0.2207 -0.5105 -0.1556
  120OSM   H14F12714   4.221   2.537   7.941 -0.0234 -1.1390  0.8396
  120OSM   H14G12715   4.180   2.690   8.039  0.8876  0.0095  1.0598
  120OSM   C15F12716   4.346   2.593   8.107 -0.6644 -0.2820 -0.2049
  120OSM   H15F12717   4.399   2.681   8.149 -1.2092  1.7616 -3.5038
  120OSM   H15G12718   4.431   2.531   8.071  1.0235  2.1880 -0.6615
  120OSM   C16F12719   4.284   2.525   8.229 -0.7354 -0.1651  0.2291
  120OSM   H16F12720   4.247   2.424   8.201  1.9372 -1.8243  2.1435
  120OSM   H16G12721   4.197   2.576   8.275 -0.7884  0.2795 -0.3571
  120OSM   C17F12722   4.380   2.503   8.341 -0.4917  0.1600 -0.5003
  120OSM   H17F12723   4.429   2.600   8.363  1.3584 -0.5259 -1.4034
  120OSM   H17G12724   4.471   2.443   8.317 -1.3686 -1.8634  0.9281
  120OSM   C18F12725   4.320   2.448   8.465  0.2222 -0.7417  0.0103
  120OSM   H18F12726   4.390   2.392   8.531  0.7426  0.6878  0.7179
  120OSM   H18G12727   4.225   2.394   8.449 -0.8670  0.3198  2.4926
  120OSM   H18H12728   4.282   2.535   8.523  0.9293 -1.2539  1.2905
  121OSM      N12729   4.804   3.647   6.174 -0.2703  0.0301 -0.4519
  121OSM    C1512730   4.718   3.709   6.070 -0.3267  0.1702  0.0166
  121OSM   H15A12731   4.715   3.652   5.978  1.7997 -0.2831  0.1700
  121OSM   H15B12732   4.748   3.807   6.036 -1.9332 -0.1862 -2.6710
  121OSM   H15C12733   4.616   3.708   6.104 -0.3547  1.5431  0.0447
  121OSM    C1412734   4.766   3.505   6.209 -0.2814  0.1634  0.2525
  121OSM   H14A12735   4.846   3.449   6.256  0.9231  3.9087  3.1745
  121OSM   H14B12736   4.732   3.462   6.115 -1.2823  0.9155  0.2519
  121OSM   H14C12737   4.681   3.496   6.276 -1.0985 -0.5332 -0.8399
  121OSM    C1312738   4.949   3.633   6.121 -0.8856  0.2399 -0.5826
  121OSM   H13A12739   5.013   3.595   6.199  0.1160 -0.2262 -1.5972
  121OSM   H13B12740   4.991   3.729   6.092  4.0896 -2.5676 -4.3814
  121OSM   H13C12741   4.946   3.572   6.032 -0.1628 -0.7762  0.0675
  121OSM    C1212742   4.807   3.735   6.297  0.1340 -0.5406 -0.3453
  121OSM   H12A12743   4.709   3.749   6.340  0.7942 -1.6530  1.7042
  121OSM   H12B12744   4.824   3.838   6.272 -2.9041  0.3381  0.7722
  121OSM    C1112745   4.898   3.698   6.410 -0.1935  0.2707 -0.3849
  121OSM   H11A12746   4.875   3.590   6.415  0.7150  0.0575 -0.6082
  121OSM   H11B12747   4.856   3.737   6.506 -0.5428 -0.0461 -0.4089
  121OSM      P12748   5.058   3.895   6.379 -0.2239  0.1471  0.3863
  121OSM    O1312749   5.195   3.912   6.334 -0.3003  0.2328 -0.2029
  121OSM    O1412750   4.953   3.968   6.309 -0.5058 -0.9963 -0.0179
  121OSM    O1112751   5.059   3.936   6.534  0.2582 -0.0933  0.5762
  121OSM    O1212752   5.029   3.736   6.392  0.2123 -0.6795 -0.2656
  121OSM    C1S12753   5.106   3.868   6.648  0.5179 -0.0993 -0.3769
  121OSM    H1S12754   5.217   3.859   6.652  0.5665  0.6194  2.8641
  121OSM    H1T12755   5.050   3.773   6.665 -0.8153  0.2992 -2.2684
  121OSM     NF12756   5.134   3.879   6.898  0.0377  0.0376  0.6218
  121OSM    HNF12757   5.071   3.833   6.961 -0.5569  1.0958  0.8227
  121OSM    C2S12758   5.086   3.952   6.782 -0.2087 -0.8569 -0.3445
  121OSM    H2S12759   5.153   4.039   6.772 -2.9472  1.3913 -0.4155
  121OSM    C3S12760   4.944   4.003   6.799  0.1672  0.4142 -0.0535
  121OSM    H3S12761   4.895   3.918   6.852 -1.7318  1.8974  0.6701
  121OSM     O312762   4.865   4.017   6.678  0.2005 -0.5166 -0.1607
  121OSM    HO312763   4.926   4.006   6.605 -2.5775 -1.5806 -2.5208
  121OSM    C4S12764   4.930   4.130   6.885 -0.4212  0.0020  0.7753
  121OSM    H4S12765   4.968   4.221   6.837  0.1625 -0.5070  0.2442
  121OSM    C5S12766   4.870   4.130   7.002  0.1177  0.5604 -0.2100
  121OSM    H5S12767   4.821   4.039   7.039 -2.6742  2.0633  0.0725
  121OSM    C6S12768   4.828   4.251   7.083  0.3867 -0.1180  0.8637
  121OSM    H6S12769   4.731   4.294   7.050  1.0839 -0.8058 -2.4484
  121OSM    H6T12770   4.900   4.333   7.059 -2.3394  1.6038 -2.2090
  121OSM    C7S12771   4.829   4.229   7.228  0.5980  0.7392  0.1207
  121OSM    H7S12772   4.805   4.325   7.279 -0.0970  0.9851 -0.6562
  121OSM    H7T12773   4.932   4.201   7.258  0.7335 -2.1907 -2.6199
  121OSM    C8S12774   4.734   4.118   7.280  0.0416  0.2166  0.5263
  121OSM    H8S12775   4.784   4.025   7.245  2.0707  1.9809 -1.5652
  121OSM    H8T12776   4.638   4.124   7.225 -0.1251 -1.9632  0.4875
  121OSM    C9S12777   4.715   4.116   7.428  0.5036  0.2848 -0.0873
  121OSM    H9S12778   4.813   4.130   7.479  0.0295 -0.4675  1.0724
  121OSM    H9T12779   4.677   4.021   7.472 -1.7277  1.2925  0.3023
  121OSM   C10S12780   4.611   4.206   7.485  0.9389  0.0218 -0.2358
  121OSM   H10S12781   4.523   4.211   7.417  1.3494 -1.4465 -0.9283
  121OSM   H10T12782   4.644   4.311   7.502 -0.7579  0.6450 -0.5475
  121OSM   C11S12783   4.566   4.162   7.620  0.1886 -0.3325  0.0025
  121OSM   H11S12784   4.650   4.150   7.692  0.1410  2.0702  0.5198
  121OSM   H11T12785   4.508   4.067   7.616 -0.2714 -0.0142 -1.0790
  121OSM   C12S12786   4.469   4.263   7.689  0.1145 -0.1617  0.0277
  121OSM   H12S12787   4.381   4.301   7.632  0.9715  0.7217 -0.7412
  121OSM   H12T12788   4.526   4.356   7.712  1.3190 -0.9583  0.3291
  121OSM   C13S12789   4.420   4.207   7.823  0.3875  0.0829  0.2874
  121OSM   H13S12790   4.509   4.162   7.872 -0.3060 -0.4006  1.1352
  121OSM   H13T12791   4.341   4.131   7.801  0.8034  0.3619 -2.6466
  121OSM   C14S12792   4.369   4.333   7.906 -0.5921  0.4899  0.2478
  121OSM   H14S12793   4.275   4.383   7.875 -0.9649 -0.4462 -0.1742
  121OSM   H14T12794   4.444   4.415   7.907 -1.7875  1.6228  0.4922
  121OSM   C15S12795   4.368   4.299   8.057  0.3025 -0.0846  0.1983
  121OSM   H15S12796   4.343   4.383   8.125  0.9170  1.3699 -1.2875
  121OSM   H15T12797   4.468   4.254   8.079 -0.0830 -1.1289 -0.1449
  121OSM   C16S12798   4.279   4.181   8.091  0.0797  0.1387 -0.2904
  121OSM   H16S12799   4.286   4.095   8.021 -4.1843 -1.3064  0.7712
  121OSM   H16T12800   4.174   4.211   8.109  0.2963  0.5295  0.3644
  121OSM   C17S12801   4.306   4.136   8.237  0.2654  0.2429 -0.5992
  121OSM   H17S12802   4.315   4.224   8.304  3.2273 -0.4842  0.1478
  121OSM   H17T12803   4.410   4.095   8.239  0.1536 -0.0288  0.5743
  121OSM   C18S12804   4.215   4.025   8.292 -0.3735  0.0208 -0.4431
  121OSM   H18S12805   4.203   3.937   8.226  3.7310 -2.6687  1.9446
  121OSM   H18T12806   4.117   4.071   8.318  0.5955  0.9341  1.7606
  121OSM   H18U12807   4.252   3.992   8.391  1.8241  3.8090  0.2178
  121OSM    C1F12808   5.261   3.860   6.923 -0.7567 -0.2342 -0.3011
  121OSM     OF12809   5.352   3.895   6.850  0.4022  0.7707  0.1544
  121OSM    C2F12810   5.294   3.795   7.058  0.8049  0.3629  0.3807
  121OSM    H2F12811   5.366   3.713   7.036 -0.4069 -0.1712 -1.9986
  121OSM    H2G12812   5.197   3.750   7.089 -0.0488  1.1923 -0.9730
  121OSM    C3F12813   5.345   3.891   7.157 -0.2278 -0.5738 -0.2076
  121OSM    H3F12814   5.284   3.983   7.168 -1.1805 -1.2500  0.3290
  121OSM    H3G12815   5.443   3.928   7.120 -1.0602  2.2772  0.2159
  121OSM    C4F12816   5.346   3.833   7.301  0.3305 -0.2106  0.4612
  121OSM    H4F12817   5.416   3.747   7.310  0.4096 -0.2485 -0.4247
  121OSM    H4G12818   5.245   3.788   7.309  0.7023 -1.2911 -0.7113
  121OSM    C5F12819   5.378   3.936   7.406 -0.0988  0.1885 -0.0854
  121OSM    H5F12820   5.299   4.014   7.400 -1.1737 -0.8903 -0.2828
  121OSM    H5G12821   5.481   3.976   7.394 -0.3572  0.9125  0.0471
  121OSM    C6F12822   5.372   3.889   7.552  0.0774 -0.3024  0.0232
  121OSM    H6F12823   5.449   3.815   7.582 -0.0091 -1.8888 -3.2165
  121OSM    H6G12824   5.272   3.840   7.549 -1.1460  2.0881 -0.6343
  121OSM    C7F12825   5.372   4.004   7.662 -0.3257 -0.3013 -0.2590
  121OSM    H7F12826   5.274   4.057   7.657 -1.4984 -2.4659 -3.3651
  121OSM    H7G12827   5.462   4.062   7.633  0.5039 -0.7869  1.2801
  121OSM    C8F12828   5.399   3.951   7.804 -0.2438  0.0806  0.1955
  121OSM    H8F12829   5.438   4.019   7.882  2.3494 -0.2931 -0.6533
  121OSM    H8G12830   5.476   3.872   7.791 -0.2126  0.3196 -1.2654
  121OSM    C9F12831   5.282   3.878   7.868  0.1303  0.1900  0.5706
  121OSM    H9F12832   5.219   3.819   7.799  0.5096 -0.6657  0.9341
  121OSM   C10F12833   5.271   3.858   8.000  0.9462  0.2477 -0.8226
  121OSM   H10F12834   5.193   3.783   8.022  0.3822  1.0530  0.0075
  121OSM   C11F12835   5.348   3.918   8.115 -0.0262 -0.1788  0.3019
  121OSM   H11F12836   5.383   4.022   8.094  1.0233 -0.5566  0.1064
  121OSM   H11G12837   5.432   3.851   8.144 -2.6257 -3.6646  0.3397
  121OSM   C12F12838   5.268   3.917   8.241 -0.3306  0.1701 -0.2308
  121OSM   H12F12839   5.202   3.830   8.259  1.5322 -0.9717  1.5316
  121OSM   H12G12840   5.209   4.011   8.243 -1.2101 -0.3841  0.4972
  121OSM   C13F12841   5.345   3.903   8.373 -0.0360 -0.3549  1.0066
  121OSM   H13F12842   5.403   3.809   8.359 -1.9094 -1.3924 -0.1477
  121OSM   H13G12843   5.283   3.893   8.465 -1.8370 -2.1473 -0.3236
  121OSM   C14F12844   5.439   4.017   8.388  0.8384 -0.5102  0.1568
  121OSM   H14F12845   5.473   4.072   8.297 -0.1851  0.4213  0.3058
  121OSM   H14G12846   5.530   3.972   8.432  1.0660  0.5811  0.8309
  121OSM   C15F12847   5.387   4.132   8.485 -0.1670  0.2187  0.0291
  121OSM   H15F12848   5.485   4.183   8.500  0.0197 -0.1393  0.0552
  121OSM   H15G12849   5.357   4.084   8.580  0.2124 -1.9401 -0.8696
  121OSM   C16F12850   5.292   4.235   8.423 -0.4980 -0.3262 -0.3853
  121OSM   H16F12851   5.202   4.176   8.395 -0.0647 -1.5895  0.7523
  121OSM   H16G12852   5.338   4.291   8.340  1.0856 -1.5973 -0.4059
  121OSM   C17F12853   5.244   4.344   8.521 -0.9420  0.1075  0.0892
  121OSM   H17F12854   5.332   4.403   8.554  0.6076 -1.3518 -1.2693
  121OSM   H17G12855   5.205   4.292   8.611  2.0502 -1.0409  0.8340
  121OSM   C18F12856   5.151   4.450   8.449 -0.1065  0.0294 -0.2053
  121OSM   H18F12857   5.149   4.546   8.504  0.8252 -0.3801  0.5768
  121OSM   H18G12858   5.056   4.397   8.425  0.7900 -1.1441 -1.3063
  121OSM   H18H12859   5.194   4.478   8.350  0.9980 -1.1940 -0.1055
  122OSM      N12860   4.111   5.989   5.991  0.7464  0.0046 -0.3901
  122OSM    C1512861   4.197   6.103   5.946  0.5931  0.5013  0.0402
  122OSM   H15A12862   4.144   6.151   5.865  0.6675 -1.9372 -1.5665
  122OSM   H15B12863   4.285   6.065   5.897 -0.7173 -0.9460 -1.3107
  122OSM   H15C12864   4.221   6.167   6.030  2.3966 -0.4045  0.2700
  122OSM    C1412865   3.983   6.051   6.040 -0.0854  0.0330 -0.4301
  122OSM   H14A12866   3.939   6.096   5.952  1.2875  1.0945 -0.6020
  122OSM   H14B12867   4.014   6.122   6.115  0.2190 -3.4351  3.0277
  122OSM   H14C12868   3.930   5.964   6.076  1.4023 -0.3577  0.9246
  122OSM    C1312869   4.085   5.883   5.883  0.4158  0.0456  0.0371
  122OSM   H13A12870   4.164   5.815   5.853  1.0844  0.4452  0.8326
  122OSM   H13B12871   4.034   5.916   5.794  1.9021  0.8465 -0.5550
  122OSM   H13C12872   4.003   5.823   5.921 -1.0725  2.2375  0.4365
  122OSM    C1212873   4.175   5.916   6.107  0.1434 -0.3063  0.3018
  122OSM   H12A12874   4.224   5.982   6.176  0.9186  0.9082 -1.3329
  122OSM   H12B12875   4.249   5.856   6.056  0.1351  1.3764 -1.8514
  122OSM    C1112876   4.087   5.821   6.197  0.0861  0.0834 -0.1510
  122OSM   H11A12877   4.018   5.890   6.251 -1.4006 -1.1519 -0.4158
  122OSM   H11B12878   4.158   5.778   6.270  2.5758 -3.1519 -4.0763
  122OSM      P12879   3.871   5.691   6.134 -0.1396  0.2110  0.2458
  122OSM    O1312880   3.792   5.808   6.098 -0.4136 -0.1003 -0.0406
  122OSM    O1412881   3.839   5.566   6.060 -0.2135  0.2716  0.4704
  122OSM    O1112882   3.855   5.650   6.284 -0.1616  0.0519 -0.4250
  122OSM    O1212883   4.024   5.721   6.121  0.2341 -0.8969  0.0874
  122OSM    C1S12884   3.935   5.540   6.335 -0.0073  0.2666 -0.9625
  122OSM    H1S12885   4.033   5.574   6.373 -0.0878 -1.1794  0.6209
  122OSM    H1T12886   3.953   5.457   6.263  3.3907  0.6876 -0.7271
  122OSM     NF12887   3.956   5.382   6.520 -0.3561  0.3704 -0.2849
  122OSM    HNF12888   3.932   5.285   6.509 -0.2063  0.1536  1.1150
  122OSM    C2S12889   3.866   5.482   6.456 -0.7558 -0.1524 -0.2201
  122OSM    H2S12890   3.859   5.568   6.527  2.2346  1.5578 -1.7672
  122OSM    C3S12891   3.726   5.429   6.431 -0.1949  0.2707  0.2227
  122OSM    H3S12892   3.745   5.334   6.378  2.5736  1.4789 -1.1245
  122OSM     O312893   3.632   5.502   6.347  0.2627  0.1107 -0.1027
  122OSM    HO312894   3.675   5.586   6.327  0.9834 -0.1093  0.4693
  122OSM    C4S12895   3.653   5.397   6.561 -0.8409 -0.0753  0.2737
  122OSM    H4S12896   3.657   5.292   6.595  1.3752 -0.8011 -1.9028
  122OSM    C5S12897   3.573   5.478   6.627 -0.5611 -0.2135 -0.2973
  122OSM    H5S12898   3.564   5.578   6.583  2.2262 -0.6513 -2.1103
  122OSM    C6S12899   3.493   5.443   6.755  0.0770  0.1974  0.0119
  122OSM    H6S12900   3.517   5.515   6.835 -1.0762 -0.4564  0.9779
  122OSM    H6T12901   3.531   5.350   6.802  0.2350 -0.7678 -1.9092
  122OSM    C7S12902   3.343   5.445   6.733 -0.0598 -0.1173 -0.2475
  122OSM    H7S12903   3.309   5.361   6.670 -0.7158 -1.9920  2.3993
  122OSM    H7T12904   3.306   5.543   6.696 -0.2101  0.4889  1.3913
  122OSM    C8S12905   3.271   5.446   6.873 -0.7388  0.1070  0.5806
  122OSM    H8S12906   3.318   5.534   6.921  0.5269  0.0467 -0.4927
  122OSM    H8T12907   3.279   5.352   6.932  0.1156  1.0119  1.9631
  122OSM    C9S12908   3.126   5.473   6.875  0.6688  0.6309  0.2608
  122OSM    H9S12909   3.082   5.388   6.819  0.3166  1.0092 -0.0430
  122OSM    H9T12910   3.089   5.569   6.833  0.5605  0.6157  0.3200
  122OSM   C10S12911   3.060   5.455   7.015 -0.2186 -0.4090  0.1054
  122OSM   H10S12912   3.106   5.364   7.060  0.1867  0.2595  1.0713
  122OSM   H10T12913   2.953   5.441   6.990 -0.3923 -2.8211  1.8092
  122OSM   C11S12914   3.071   5.570   7.107 -0.2446 -0.3804 -0.6995
  122OSM   H11S12915   3.071   5.669   7.057  0.6184  0.3121  0.6124
  122OSM   H11T12916   3.168   5.565   7.161 -0.5204  1.5956  0.0680
  122OSM   C12S12917   2.969   5.566   7.228  0.2814 -0.0208  0.3517
  122OSM   H12S12918   2.882   5.501   7.204 -0.7501  1.2394  0.6177
  122OSM   H12T12919   2.934   5.670   7.245  1.8806  0.2141  2.6040
  122OSM   C13S12920   3.025   5.504   7.354 -0.4070  0.3188 -0.3653
  122OSM   H13S12921   3.124   5.552   7.369  0.5177 -1.5435 -0.1950
  122OSM   H13T12922   3.036   5.394   7.354 -1.2289  0.1858  2.1609
  122OSM   C14S12923   2.922   5.528   7.460  0.0342  0.1299 -0.4848
  122OSM   H14S12924   2.830   5.489   7.411  2.3981 -2.7116 -3.0826
  122OSM   H14T12925   2.909   5.637   7.476  1.6969  0.4902 -1.3531
  122OSM   C15S12926   2.947   5.466   7.593  0.4579  0.0313  0.2276
  122OSM   H15S12927   3.023   5.520   7.652  0.7788 -0.5198  0.3275
  122OSM   H15T12928   2.984   5.362   7.580 -0.0785 -0.1413  0.0493
  122OSM   C16S12929   2.818   5.467   7.677  0.0732 -0.2637 -0.2801
  122OSM   H16S12930   2.732   5.410   7.636  0.6826  0.3445 -2.5314
  122OSM   H16T12931   2.788   5.574   7.682  0.7639 -0.0027 -1.4917
  122OSM   C17S12932   2.852   5.415   7.821  0.7933 -0.1779  0.4130
  122OSM   H17S12933   2.944   5.467   7.856  0.0504  0.7984  0.9818
  122OSM   H17T12934   2.875   5.309   7.799 -0.1843 -0.2016 -0.5417
  122OSM   C18S12935   2.729   5.421   7.916  0.3614 -0.3653 -0.8625
  122OSM   H18S12936   2.647   5.362   7.869  0.0847  1.0679 -2.2902
  122OSM   H18T12937   2.701   5.525   7.943  1.1327  0.4405 -2.9766
  122OSM   H18U12938   2.763   5.376   8.012  2.7665  1.8850 -0.5584
  122OSM    C1F12939   4.073   5.412   6.586 -0.5219  0.5829 -0.0804
  122OSM     OF12940   4.105   5.526   6.608  0.0018 -0.2710 -0.6002
  122OSM    C2F12941   4.161   5.300   6.635  0.0948  0.1268 -0.6057
  122OSM    H2F12942   4.268   5.320   6.616  0.5622 -0.3377  1.2989
  122OSM    H2G12943   4.130   5.200   6.596 -1.2831  0.8522 -1.4321
  122OSM    C3F12944   4.147   5.276   6.791 -0.3038 -0.2969  0.4582
  122OSM    H3F12945   4.212   5.189   6.812 -0.9136 -0.2118  3.0913
  122OSM    H3G12946   4.039   5.262   6.811  0.0668 -0.9476  2.2553
  122OSM    C4F12947   4.210   5.401   6.865  0.2931  0.7545  0.3676
  122OSM    H4F12948   4.142   5.488   6.852  0.4495  1.0813  1.5803
  122OSM    H4G12949   4.296   5.432   6.803 -0.2390 -0.6006 -1.1065
  122OSM    C5F12950   4.242   5.385   7.006 -0.6504  0.2242 -0.2564
  122OSM    H5F12951   4.300   5.293   7.030  1.3655  1.6367  0.5259
  122OSM    H5G12952   4.151   5.381   7.070 -0.1751  0.4147  0.4417
  122OSM    C6F12953   4.318   5.507   7.057  0.4654  0.0964  0.3800
  122OSM    H6F12954   4.256   5.597   7.034  0.1851 -0.4501 -1.0916
  122OSM    H6G12955   4.411   5.512   6.997  0.1565 -0.9773 -0.2172
  122OSM    C7F12956   4.368   5.503   7.204 -0.1561 -0.8069 -1.0221
  122OSM    H7F12957   4.410   5.401   7.216  2.3114  0.3361  0.7032
  122OSM    H7G12958   4.286   5.513   7.279 -0.1397  2.1480 -1.2715
  122OSM    C8F12959   4.469   5.611   7.255  0.2262  0.1597  0.2322
  122OSM    H8F12960   4.553   5.607   7.183  0.5688 -0.3278  0.6416
  122OSM    H8G12961   4.507   5.575   7.353  1.2821 -0.6756 -0.4632
  122OSM    C9F12962   4.413   5.749   7.265 -0.6158  0.1789  0.1051
  122OSM    H9F12963   4.361   5.794   7.179  1.5517  1.7446 -0.4519
  122OSM   C10F12964   4.418   5.828   7.376 -1.0477 -0.2866 -0.1985
  122OSM   H10F12965   4.373   5.929   7.374  1.5149  1.0169  1.5256
  122OSM   C11F12966   4.496   5.794   7.507  0.0191 -0.0579 -0.2585
  122OSM   H11F12967   4.446   5.700   7.538  0.6221 -0.8564 -1.6399
  122OSM   H11G12968   4.475   5.875   7.581 -2.0936  0.5669 -1.4602
  122OSM   C12F12969   4.654   5.771   7.521  0.0517 -0.4800 -0.2306
  122OSM   H12F12970   4.693   5.874   7.530  1.8554 -1.2329  1.4501
  122OSM   H12G12971   4.698   5.734   7.427 -0.5208  0.6268 -0.9545
  122OSM   C13F12972   4.709   5.692   7.648  0.2494  0.2803 -1.2683
  122OSM   H13F12973   4.817   5.666   7.645  0.2751 -0.0790  1.0995
  122OSM   H13G12974   4.651   5.598   7.634 -1.2712  1.1378 -0.9552
  122OSM   C14F12975   4.672   5.752   7.781  0.2688 -0.0454  0.1125
  122OSM   H14F12976   4.564   5.775   7.772  0.3380 -0.5451 -2.6449
  122OSM   H14G12977   4.717   5.853   7.798 -0.1656  0.1277  0.2551
  122OSM   C15F12978   4.707   5.653   7.895  0.2218 -0.7380 -0.1437
  122OSM   H15F12979   4.677   5.705   7.988  1.2317 -0.0286 -0.1907
  122OSM   H15G12980   4.817   5.633   7.895  0.7957  1.9057  1.5056
  122OSM   C16F12981   4.611   5.528   7.890  0.0078  0.0410 -0.3564
  122OSM   H16F12982   4.657   5.459   7.816 -3.3083 -0.7709 -1.8729
  122OSM   H16G12983   4.519   5.570   7.843  0.4585  1.2338 -0.2087
  122OSM   C17F12984   4.601   5.449   8.015  1.0326 -0.4493 -0.2001
  122OSM   H17F12985   4.507   5.389   8.015  1.2479 -0.9260  2.5675
  122OSM   H17G12986   4.581   5.525   8.094 -0.6998 -1.6870  0.6292
  122OSM   C18F12987   4.717   5.360   8.050 -0.4361  0.3451 -0.0601
  122OSM   H18F12988   4.805   5.417   8.087  1.0800 -1.2172 -1.0850
  122OSM   H18G12989   4.741   5.285   7.972 -3.3907  0.5865 -1.3216
  122OSM   H18H12990   4.693   5.294   8.135 -0.2344  0.8339  0.3810
  123OSM      N12991   0.850   1.959   6.398  0.6155 -0.0117 -0.1447
  123OSM    C1512992   0.736   2.025   6.323 -0.0444  0.1830  0.1198
  123OSM   H15A12993   0.753   2.017   6.217 -2.1713  0.4254 -0.2813
  123OSM   H15B12994   0.720   2.123   6.364 -0.1890 -0.4209  1.5924
  123OSM   H15C12995   0.648   1.968   6.350  0.8819 -1.7060 -0.6529
  123OSM    C1412996   0.830   1.976   6.545  0.7142 -0.2506  0.0026
  123OSM   H14A12997   0.912   1.924   6.593  2.0629 -0.2156 -2.1554
  123OSM   H14B12998   0.741   1.925   6.578  0.8619  0.0155  0.8508
  123OSM   H14C12999   0.829   2.078   6.582  1.1870 -0.0421 -0.5393
  123OSM    C1313000   0.845   1.815   6.361  0.1474  0.0445  0.2770
  123OSM   H13A13001   0.755   1.771   6.400  0.5294  0.8146  2.1274
  123OSM   H13B13002   0.931   1.759   6.395  1.7800  0.0841 -3.3236
  123OSM   H13C13003   0.842   1.785   6.257 -1.5427 -3.4936  1.2086
  123OSM    C1213004   0.984   2.003   6.354  0.7722 -0.3031  0.9276
  123OSM   H12A13005   0.997   2.108   6.377  2.3574 -0.5039  1.0606
  123OSM   H12B13006   0.991   2.007   6.246 -0.3808  1.0725  0.8750
  123OSM    C1113007   1.118   1.941   6.407  0.3076  0.4251 -0.2050
  123OSM   H11A13008   1.101   1.943   6.517 -2.0816  3.0759 -0.5077
  123OSM   H11B13009   1.206   2.009   6.400  0.8252 -0.3211 -1.1595
  123OSM      P13010   1.215   1.699   6.443 -0.0571  0.1997 -0.1777
  123OSM    O1313011   1.224   1.573   6.369 -0.2976 -0.4908 -0.0098
  123OSM    O1413012   1.345   1.752   6.485 -0.0657 -0.9005  0.1495
  123OSM    O1113013   1.117   1.682   6.571 -0.1725  0.2700  0.3602
  123OSM    O1213014   1.145   1.809   6.357  0.7620  0.5124  0.3475
  123OSM    C1S13015   1.059   1.557   6.594 -0.2775  0.8068 -0.0935
  123OSM    H1S13016   1.113   1.467   6.557 -0.4220  0.0775  1.4199
  123OSM    H1T13017   0.959   1.558   6.545  0.7815 -0.6661 -2.4822
  123OSM     NF13018   0.991   1.411   6.764 -0.1115  0.0386 -0.0711
  123OSM    HNF13019   0.893   1.395   6.770  0.1718 -1.1953  2.3590
  123OSM    C2S13020   1.044   1.546   6.750 -0.7421 -0.1047  0.1057
  123OSM    H2S13021   1.139   1.554   6.806 -1.0931  1.0476  0.5822
  123OSM    C3S13022   0.947   1.656   6.798 -0.4774 -0.5725 -0.1253
  123OSM    H3S13023   0.856   1.643   6.737 -0.7471  1.4313 -0.2150
  123OSM     O313024   1.001   1.782   6.773  0.5244 -0.0646  0.7808
  123OSM    HO313025   1.060   1.758   6.701 -1.3703 -1.9329 -0.2460
  123OSM    C4S13026   0.906   1.628   6.940  0.6506 -0.0118 -0.1553
  123OSM    H4S13027   0.805   1.584   6.941 -0.2747  2.0114  0.2181
  123OSM    C5S13028   0.969   1.644   7.055 -0.0942 -0.4164 -0.0783
  123OSM    H5S13029   1.071   1.686   7.055 -0.7616  1.3534 -1.3301
  123OSM    C6S13030   0.911   1.609   7.185  0.0974 -0.2789 -0.4941
  123OSM    H6S13031   0.818   1.549   7.180 -0.0622  0.0208 -1.1801
  123OSM    H6T13032   0.877   1.702   7.235 -0.0485 -0.9187  0.6601
  123OSM    C7S13033   1.016   1.538   7.272  0.4659  0.5059  0.0047
  123OSM    H7S13034   1.104   1.601   7.298 -0.0761  1.6688 -0.9222
  123OSM    H7T13035   1.052   1.441   7.230 -0.6257  0.1503 -0.1295
  123OSM    C8S13036   0.943   1.504   7.403 -0.1233 -0.0619 -0.5996
  123OSM    H8S13037   0.954   1.396   7.427 -1.2629 -0.0482  0.0301
  123OSM    H8T13038   0.833   1.512   7.403 -0.0930  0.4116  0.1121
  123OSM    C9S13039   0.996   1.576   7.529 -0.4994  0.1645 -0.3524
  123OSM    H9S13040   0.998   1.686   7.513 -2.2598  0.2875  0.0208
  123OSM    H9T13041   1.096   1.555   7.573  0.1989  0.3946 -1.7647
  123OSM   C10S13042   0.904   1.549   7.651 -0.5271  0.2873  0.3696
  123OSM   H10S13043   0.904   1.441   7.678 -0.0450  0.7737  2.5796
  123OSM   H10T13044   0.803   1.582   7.620 -0.4481  2.4112  2.0921
  123OSM   C11S13045   0.945   1.621   7.780  0.1664 -0.8452  0.1413
  123OSM   H11S13046   0.945   1.732   7.769  0.5908 -0.7148  1.3076
  123OSM   H11T13047   1.044   1.599   7.825  1.1298  1.5023 -0.6410
  123OSM   C12S13048   0.840   1.582   7.883  0.3722 -0.7483  0.3764
  123OSM   H12S13049   0.816   1.474   7.878  1.2552 -0.9017 -1.4889
  123OSM   H12T13050   0.747   1.637   7.857  1.8254  0.6864 -2.2945
  123OSM   C13S13051   0.895   1.610   8.024 -0.4063  0.4315 -1.1574
  123OSM   H13S13052   0.912   1.720   8.025 -3.1302  0.9357  0.6964
  123OSM   H13T13053   0.985   1.548   8.047 -0.3455  0.2412 -1.8874
  123OSM   C14S13054   0.785   1.579   8.135 -0.4791 -0.2242  0.0731
  123OSM   H14S13055   0.774   1.471   8.111 -0.3252  0.3834 -3.1545
  123OSM   H14T13056   0.699   1.645   8.114 -0.7400 -0.1103  1.3982
  123OSM   C15S13057   0.831   1.598   8.282  0.5986 -0.2286  0.5242
  123OSM   H15S13058   0.940   1.618   8.289  0.5127  0.4887  0.0094
  123OSM   H15T13059   0.808   1.501   8.331 -0.1743 -1.4070 -1.9982
  123OSM   C16S13060   0.749   1.708   8.353  0.4805 -1.4032  0.1628
  123OSM   H16S13061   0.642   1.678   8.341  0.6379 -1.4731 -1.1841
  123OSM   H16T13062   0.783   1.802   8.304 -0.9743 -0.0977  1.5140
  123OSM   C17S13063   0.776   1.716   8.500  0.1959  0.6634 -0.1318
  123OSM   H17S13064   0.749   1.623   8.553  3.0794 -0.0167  0.3446
  123OSM   H17T13065   0.712   1.796   8.544 -3.5028 -1.8387 -0.5319
  123OSM   C18S13066   0.924   1.720   8.535 -0.4054 -0.3767  0.0185
  123OSM   H18S13067   0.968   1.622   8.505  0.6632  1.1680 -4.0058
  123OSM   H18T13068   0.941   1.749   8.641 -0.3421  1.1799 -0.3946
  123OSM   H18U13069   0.978   1.796   8.475  0.2505 -0.7190  0.1649
  123OSM    C1F13070   1.067   1.301   6.749  0.8695 -0.0763 -0.1206
  123OSM     OF13071   1.188   1.307   6.733  0.1000 -0.2667  0.2992
  123OSM    C2F13072   0.983   1.178   6.744 -0.3448  0.6836 -0.3324
  123OSM    H2F13073   1.014   1.119   6.655  1.9724  1.1519  0.1046
  123OSM    H2G13074   0.875   1.204   6.739 -0.2640  0.9819 -0.5461
  123OSM    C3F13075   1.006   1.091   6.873  0.1103  1.4748  0.0812
  123OSM    H3F13076   1.115   1.071   6.869 -0.4852 -2.9772  1.2638
  123OSM    H3G13077   0.955   0.992   6.871  0.1720  1.4447 -1.3848
  123OSM    C4F13078   0.988   1.163   7.009 -0.3934 -0.1229  0.7270
  123OSM    H4F13079   0.879   1.173   7.026 -0.3029  3.6826 -0.0571
  123OSM    H4G13080   1.049   1.256   7.008 -0.1112 -0.2981  1.3837
  123OSM    C5F13081   1.055   1.080   7.121  0.0570  0.0140 -0.5800
  123OSM    H5F13082   1.156   1.051   7.084  0.0418 -0.6749 -0.1024
  123OSM    H5G13083   0.998   0.985   7.133 -0.8611  0.6449  0.2350
  123OSM    C6F13084   1.052   1.148   7.255 -0.1372 -0.3405 -0.1434
  123OSM    H6F13085   0.953   1.197   7.268  0.4303  1.0762 -0.9728
  123OSM    H6G13086   1.128   1.228   7.257  0.1805 -0.6447  0.4840
  123OSM    C7F13087   1.079   1.050   7.371 -0.3617  0.5675  0.6689
  123OSM    H7F13088   1.023   0.956   7.356  0.9008 -0.2318  0.8712
  123OSM    H7G13089   1.048   1.097   7.467  0.8137 -2.2632  2.5425
  123OSM    C8F13090   1.228   1.019   7.391 -0.0056  0.9370 -0.1267
  123OSM    H8F13091   1.292   1.110   7.388 -1.1809  1.7593 -2.5514
  123OSM    H8G13092   1.264   0.968   7.300 -0.3801 -0.6577  0.5847
  123OSM    C9F13093   1.252   0.930   7.510 -0.0219 -0.0647 -0.0173
  123OSM    H9F13094   1.187   0.841   7.513  0.8247 -0.8941 -2.8126
  123OSM   C10F13095   1.328   0.967   7.619  0.4140  0.1332  0.6660
  123OSM   H10F13096   1.339   0.899   7.705 -0.7213  0.2628  0.9313
  123OSM   C11F13097   1.419   1.081   7.627 -1.0810  0.0704  0.0337
  123OSM   H11F13098   1.402   1.153   7.544  0.3548  0.4152  0.0095
  123OSM   H11G13099   1.528   1.061   7.626 -0.5221  2.6128 -2.3822
  123OSM   C12F13100   1.389   1.159   7.755  0.0731 -0.2491 -0.4077
  123OSM   H12F13101   1.280   1.169   7.776 -0.0378 -0.2836 -0.9511
  123OSM   H12G13102   1.418   1.265   7.735 -1.3056  0.4499  1.0298
  123OSM   C13F13103   1.458   1.107   7.876 -0.1485 -0.2290 -0.0075
  123OSM   H13F13104   1.567   1.097   7.854 -0.0045 -0.8471  0.9104
  123OSM   H13G13105   1.416   1.009   7.907 -0.5849  0.3928  1.4485
  123OSM   C14F13106   1.445   1.197   8.002  0.1048 -0.0690  0.3840
  123OSM   H14F13107   1.339   1.201   8.035  0.1546 -2.2520  0.9179
  123OSM   H14G13108   1.497   1.292   7.976 -0.2354 -0.7316 -3.1885
  123OSM   C15F13109   1.516   1.137   8.128 -0.1898  0.2089  0.1927
  123OSM   H15F13110   1.626   1.139   8.115 -0.2483 -1.2609 -0.8841
  123OSM   H15G13111   1.501   1.030   8.154 -0.5278  0.5762  1.5734
  123OSM   C16F13112   1.475   1.227   8.247  0.1603  0.2059  0.2740
  123OSM   H16F13113   1.364   1.232   8.249  0.1145  0.2996 -1.2433
  123OSM   H16G13114   1.519   1.327   8.225  0.2638  0.1594  0.2668
  123OSM   C17F13115   1.540   1.169   8.376 -1.0167 -0.1589 -0.2903
  123OSM   H17F13116   1.651   1.177   8.373 -0.7649 -2.9832 -1.3299
  123OSM   H17G13117   1.514   1.061   8.387 -0.5443 -0.0508  2.8634
  123OSM   C18F13118   1.501   1.244   8.505 -0.1273 -0.3997  0.4327
  123OSM   H18F13119   1.392   1.229   8.521 -0.4714  2.0449  0.7396
  123OSM   H18G13120   1.519   1.351   8.482  2.8115 -1.2543 -1.8933
  123OSM   H18H13121   1.558   1.200   8.589  0.9402 -1.0912 -0.6304
  124OSM      N13122   2.804   5.545   6.236 -0.4188  0.6752 -0.1288
  124OSM    C1513123   2.844   5.420   6.175 -0.5471  0.2527  0.2523
  124OSM   H15A13124   2.918   5.368   6.235  1.3995  2.9575  0.3358
  124OSM   H15B13125   2.883   5.426   6.075  0.2896 -2.1091  0.3599
  124OSM   H15C13126   2.760   5.351   6.167 -0.3501  0.1016 -0.5295
  124OSM    C1413127   2.765   5.527   6.382 -0.3652 -0.0416  0.4729
  124OSM   H14A13128   2.681   5.460   6.392 -1.3902  1.2670  0.9549
  124OSM   H14B13129   2.732   5.625   6.414 -1.1087  0.0763 -0.6201
  124OSM   H14C13130   2.853   5.496   6.437  1.1272 -0.6268 -2.0937
  124OSM    C1313131   2.930   5.625   6.226 -0.1392 -0.2630  0.3151
  124OSM   H13A13132   2.979   5.612   6.131  1.8442 -1.9610  1.5023
  124OSM   H13B13133   3.001   5.583   6.295 -0.4910  2.2018  2.3503
  124OSM   H13C13134   2.915   5.729   6.253  0.1173  0.0113 -0.5559
  124OSM    C1213135   2.694   5.620   6.159 -0.5990 -0.1970  0.1683
  124OSM   H12A13136   2.732   5.624   6.059  0.2116 -1.7041  0.3953
  124OSM   H12B13137   2.690   5.724   6.189  0.0558  0.1607 -0.9481
  124OSM    C1113138   2.550   5.574   6.150  0.2701  0.2578 -0.1576
  124OSM   H11A13139   2.498   5.654   6.093  0.2275  0.2883 -0.0772
  124OSM   H11B13140   2.499   5.566   6.249  0.2011 -2.0277 -0.3352
  124OSM      P13141   2.412   5.369   6.057  0.0487  0.0049  0.4382
  124OSM    O1313142   2.316   5.460   6.002 -0.2919 -0.0078 -0.9779
  124OSM    O1413143   2.444   5.246   5.978 -0.5627 -0.1615  0.1438
  124OSM    O1113144   2.367   5.328   6.196 -0.2864  0.1688 -0.1681
  124OSM    O1213145   2.545   5.445   6.091 -0.0579 -0.6863  0.7082
  124OSM    C1S13146   2.453   5.257   6.285  0.4568  0.6120  0.2291
  124OSM    H1S13147   2.550   5.309   6.299 -0.8276  2.9075  1.2289
  124OSM    H1T13148   2.477   5.154   6.251 -0.1605  0.1985  1.0113
  124OSM     NF13149   2.480   5.145   6.507 -0.0163  0.0463  0.1406
  124OSM    HNF13150   2.467   5.046   6.501  1.0025 -0.0556 -0.8865
  124OSM    C2S13151   2.393   5.234   6.429  0.0633 -0.5890  0.4943
  124OSM    H2S13152   2.383   5.330   6.484 -0.3969 -1.5037  2.0620
  124OSM    C3S13153   2.254   5.166   6.421  0.2591 -1.0191  0.2567
  124OSM    H3S13154   2.271   5.068   6.372 -0.2780 -0.8422 -0.2966
  124OSM     O313155   2.156   5.229   6.335 -0.1081 -0.9518 -0.3752
  124OSM    HO313156   2.213   5.293   6.291  1.6322 -1.4160  1.0649
  124OSM    C4S13157   2.197   5.142   6.557  0.6409 -0.5798  0.4287
  124OSM    H4S13158   2.224   5.046   6.604  2.7034 -0.6257 -0.6984
  124OSM    C5S13159   2.126   5.226   6.636  0.5389  0.2596  0.4234
  124OSM    H5S13160   2.082   5.318   6.594 -2.8479 -0.1892  2.5262
  124OSM    C6S13161   2.076   5.197   6.774  0.2657  1.0818  0.2736
  124OSM    H6S13162   2.063   5.090   6.798  0.5752  0.4631 -2.0081
  124OSM    H6T13163   1.980   5.251   6.788  0.2493  0.5224  2.6020
  124OSM    C7S13164   2.167   5.249   6.881  0.1613 -0.0871  0.3403
  124OSM    H7S13165   2.177   5.357   6.857 -2.0704 -0.0449 -0.6767
  124OSM    H7T13166   2.269   5.206   6.874  0.7754  1.4901 -1.8518
  124OSM    C8S13167   2.102   5.238   7.021 -0.6174 -0.2308  0.5361
  124OSM    H8S13168   2.089   5.128   7.032 -0.2854 -0.7519 -3.0429
  124OSM    H8T13169   2.008   5.297   7.021  1.1015  2.7273 -0.3269
  124OSM    C9S13170   2.187   5.298   7.139  0.3597 -0.6884  0.4462
  124OSM    H9S13171   2.205   5.404   7.110 -1.7754 -0.5712 -0.6265
  124OSM    H9T13172   2.288   5.254   7.145  0.7042  0.1898  1.6533
  124OSM   C10S13173   2.114   5.281   7.280 -1.0834  0.2901 -0.4254
  124OSM   H10S13174   2.087   5.174   7.296 -1.7214  0.9391  4.3862
  124OSM   H10T13175   2.026   5.348   7.284 -1.0783  0.2737  0.0047
  124OSM   C11S13176   2.218   5.330   7.385  0.6236 -0.1437  0.3115
  124OSM   H11S13177   2.248   5.432   7.352 -0.6295  0.6417  1.5008
  124OSM   H11T13178   2.308   5.265   7.374  2.3541  2.0438  0.8482
  124OSM   C12S13179   2.173   5.332   7.533  0.6430  0.4083 -0.0190
  124OSM   H12S13180   2.145   5.236   7.582 -0.0937  0.6220 -0.0022
  124OSM   H12T13181   2.077   5.388   7.540  0.0471 -0.5573 -0.2840
  124OSM   C13S13182   2.281   5.388   7.630  0.3326 -0.3059  0.2789
  124OSM   H13S13183   2.310   5.492   7.602  1.1432 -0.5760  0.0879
  124OSM   H13T13184   2.367   5.319   7.617 -0.5464 -1.5592  0.9420
  124OSM   C14S13185   2.242   5.397   7.778 -0.1902  1.0983 -0.0217
  124OSM   H14S13186   2.171   5.482   7.788 -1.5315  0.1350 -0.9818
  124OSM   H14T13187   2.329   5.422   7.842  0.8538  1.8604 -1.6625
  124OSM   C15S13188   2.174   5.274   7.841  0.5958  0.3641  0.0486
  124OSM   H15S13189   2.192   5.175   7.794  1.4257 -0.8042  2.6412
  124OSM   H15T13190   2.064   5.287   7.831  0.3098 -2.5075 -1.8547
  124OSM   C16S13191   2.195   5.262   7.997  0.6850  0.4054  0.0036
  124OSM   H16S13192   2.304   5.269   8.017  0.8681  0.1556 -0.8735
  124OSM   H16T13193   2.161   5.164   8.037  2.0312 -0.3677 -0.6856
  124OSM   C17S13194   2.125   5.377   8.073  0.2308  1.0482 -0.4356
  124OSM   H17S13195   2.020   5.388   8.041 -0.4657 -2.4885  0.2373
  124OSM   H17T13196   2.170   5.468   8.029 -1.0532  2.2026  0.5479
  124OSM   C18S13197   2.124   5.372   8.226  0.6543 -0.1460 -0.4507
  124OSM   H18S13198   2.061   5.455   8.263  0.8335  0.5973 -1.7760
  124OSM   H18T13199   2.223   5.380   8.276  0.0642  0.8394  0.6081
  124OSM   H18U13200   2.081   5.275   8.262  0.5318 -0.0145 -0.2401
  124OSM    C1F13201   2.587   5.196   6.560  0.3159  0.4042  0.7462
  124OSM     OF13202   2.618   5.312   6.551 -0.1303 -0.4710  0.1060
  124OSM    C2F13203   2.674   5.093   6.623  1.0773 -0.2110 -0.2634
  124OSM    H2F13204   2.770   5.088   6.567  0.8390 -0.4102 -0.6589
  124OSM    H2G13205   2.613   5.001   6.633 -0.1842  0.7799  1.9091
  124OSM    C3F13206   2.703   5.140   6.773  0.7482  1.1479  0.6206
  124OSM    H3F13207   2.606   5.158   6.823  0.2561 -0.1042  0.1632
  124OSM    H3G13208   2.766   5.231   6.767  3.0679 -0.4433 -2.6160
  124OSM    C4F13209   2.788   5.046   6.850 -0.2586 -0.3370 -0.4897
  124OSM    H4F13210   2.883   5.036   6.795  0.3452 -1.3864  0.6925
  124OSM    H4G13211   2.747   4.943   6.854  1.6634 -1.1889 -1.4064
  124OSM    C5F13212   2.823   5.091   6.994 -0.3417  0.1020  0.5535
  124OSM    H5F13213   2.886   5.183   7.004 -0.8390  0.2355  3.5392
  124OSM    H5G13214   2.886   5.013   7.041 -0.2445 -0.5203 -0.5900
  124OSM    C6F13215   2.713   5.102   7.096 -0.1070  0.1539  0.6285
  124OSM    H6F13216   2.654   5.007   7.101  0.4434 -0.1491  1.4851
  124OSM    H6G13217   2.642   5.177   7.054 -1.8374 -0.9896  1.4158
  124OSM    C7F13218   2.754   5.151   7.234 -0.2404  0.2742 -0.5001
  124OSM    H7F13219   2.800   5.252   7.231  1.8316 -0.5653  0.6171
  124OSM    H7G13220   2.837   5.082   7.261  0.2283  0.8015 -0.5657
  124OSM    C8F13221   2.649   5.122   7.348 -0.0008 -0.1478  0.1221
  124OSM    H8F13222   2.613   5.017   7.351 -1.2141  0.2721  0.7019
  124OSM    H8G13223   2.560   5.183   7.321 -0.6378 -0.6351  1.0649
  124OSM    C9F13224   2.710   5.163   7.475 -0.1437  0.2699  0.1681
  124OSM    H9F13225   2.784   5.245   7.474  0.3372 -0.1127  1.4823
  124OSM   C10F13226   2.689   5.106   7.589  0.4803 -0.0756  0.0716
  124OSM   H10F13227   2.731   5.149   7.682  0.1161  1.1557 -0.3092
  124OSM   C11F13228   2.587   4.996   7.619 -0.4808  0.3790 -0.2576
  124OSM   H11F13229   2.628   4.893   7.631 -1.1435  0.3172  1.7383
  124OSM   H11G13230   2.513   4.986   7.536  1.7387 -4.3601 -2.0655
  124OSM   C12F13231   2.499   5.017   7.745  0.1868 -0.4790  0.8038
  124OSM   H12F13232   2.409   4.952   7.753 -0.6819  0.4500 -0.8695
  124OSM   H12G13233   2.457   5.119   7.756 -1.5440 -1.1091  0.2949
  124OSM   C13F13234   2.578   4.991   7.874  0.3506  0.2204  0.2467
  124OSM   H13F13235   2.669   5.056   7.873 -0.1326  0.9046  0.1168
  124OSM   H13G13236   2.616   4.886   7.872 -0.9461 -0.2558  0.0835
  124OSM   C14F13237   2.508   5.032   8.001 -0.6111  0.4000 -0.0626
  124OSM   H14F13238   2.419   4.967   8.011 -1.6626  1.2926 -2.6637
  124OSM   H14G13239   2.465   5.133   7.986  1.1879  1.2318  0.1791
  124OSM   C15F13240   2.603   5.033   8.128 -0.1331  0.6298  0.1340
  124OSM   H15F13241   2.690   5.097   8.103 -0.0645  0.1359 -0.9477
  124OSM   H15G13242   2.632   4.925   8.134 -0.5524  0.5584  1.1878
  124OSM   C16F13243   2.545   5.074   8.260 -0.3747 -0.0928 -1.7849
  124OSM   H16F13244   2.458   5.009   8.283 -0.7383  1.0239  0.2469
  124OSM   H16G13245   2.500   5.175   8.265 -2.1417 -0.8697  3.0122
  124OSM   C17F13246   2.646   5.073   8.384  0.1444  0.2455  0.0875
  124OSM   H17F13247   2.586   5.117   8.466 -1.6419 -1.0333 -0.4654
  124OSM   H17G13248   2.738   5.134   8.369 -0.2323  1.7552  3.2115
  124OSM   C18F13249   2.671   4.939   8.443 -0.4020  0.1728  0.5978
  124OSM   H18F13250   2.741   4.943   8.529 -0.0252  0.1258  0.2928
  124OSM   H18G13251   2.715   4.871   8.367 -0.9105 -1.1022  1.4207
  124OSM   H18H13252   2.579   4.894   8.486 -0.4644  0.8068  1.1561
  125OSM      N13253   5.336   4.259   6.155 -0.4627  0.0704  0.1182
  125OSM    C1513254   5.392   4.400   6.162  0.0170  0.1904  0.0400
  125OSM   H15A13255   5.474   4.412   6.231  1.6020  1.2327 -1.9229
  125OSM   H15B13256   5.311   4.464   6.194 -1.3400 -1.6162  0.4129
  125OSM   H15C13257   5.428   4.438   6.068  0.5877  0.5650  0.4036
  125OSM    C1413258   5.226   4.258   6.050  0.2707  0.3175 -0.1561
  125OSM   H14A13259   5.156   4.337   6.074  0.0205 -0.3044  1.2507
  125OSM   H14B13260   5.176   4.163   6.040 -1.0799  1.2172 -4.1519
  125OSM   H14C13261   5.254   4.292   5.951 -0.9105  2.1982  0.0916
  125OSM    C1313262   5.433   4.161   6.102  0.1148  0.5292 -0.3851
  125OSM   H13A13263   5.394   4.063   6.076  2.1092 -0.7582  1.1666
  125OSM   H13B13264   5.507   4.137   6.176 -1.0199 -2.3506 -0.0653
  125OSM   H13C13265   5.473   4.209   6.014 -0.1725  1.9497  0.2268
  125OSM    C1213266   5.279   4.219   6.290  0.5188 -0.1384 -0.0397
  125OSM   H12A13267   5.232   4.124   6.270 -1.9467  1.2365 -1.2213
  125OSM   H12B13268   5.195   4.284   6.305  0.0313 -0.7750  0.0137
  125OSM    C1113269   5.375   4.214   6.414 -1.2243 -0.6332  0.3438
  125OSM   H11A13270   5.326   4.162   6.499  0.4606  1.0104  2.4600
  125OSM   H11B13271   5.394   4.322   6.435  0.9828 -0.9476  0.1372
  125OSM      P13272   5.639   4.200   6.396  0.0488  0.2136 -0.1390
  125OSM    O1313273   5.730   4.095   6.347 -0.4114  0.0835 -0.4414
  125OSM    O1413274   5.657   4.325   6.325  0.0832  0.0209  0.6012
  125OSM    O1113275   5.663   4.224   6.550 -0.5558  0.0560  0.2502
  125OSM    O1213276   5.495   4.138   6.390  0.2109  0.0808 -0.1484
  125OSM    C1S13277   5.635   4.095   6.622 -0.5206  0.3737  0.4436
  125OSM    H1S13278   5.714   4.018   6.614 -0.1793  0.8004 -0.4043
  125OSM    H1T13279   5.545   4.037   6.592 -0.3783 -0.7744  2.0936
  125OSM     NF13280   5.630   3.989   6.834  0.1931  0.3051  0.0495
  125OSM    HNF13281   5.547   3.956   6.879  0.6216  1.7403  2.0326
  125OSM    C2S13282   5.616   4.119   6.771  0.0184  0.2428  0.5744
  125OSM    H2S13283   5.697   4.180   6.816  0.4577  0.4817 -0.5026
  125OSM    C3S13284   5.489   4.199   6.788  0.0866  0.1245 -0.7523
  125OSM    H3S13285   5.407   4.130   6.758 -0.3726 -1.2863  3.1661
  125OSM     O313286   5.476   4.317   6.712  0.3920  0.3231  0.2349
  125OSM    HO313287   5.549   4.308   6.650  0.4987  0.0130  0.3973
  125OSM    C4S13288   5.474   4.237   6.934 -0.2445 -0.8715  0.4837
  125OSM    H4S13289   5.560   4.277   6.990 -0.0610 -0.7717  0.1328
  125OSM    C5S13290   5.366   4.214   7.010 -0.1424 -0.6544  0.8683
  125OSM    H5S13291   5.274   4.173   6.967  0.1088 -1.5424  1.1528
  125OSM    C6S13292   5.372   4.256   7.153  0.4261  0.3451  0.1895
  125OSM    H6S13293   5.439   4.344   7.166 -0.1561  0.9208 -0.5672
  125OSM    H6T13294   5.417   4.170   7.207 -0.8377  0.1997  1.0463
  125OSM    C7S13295   5.232   4.290   7.218  0.3932  0.4794  0.0674
  125OSM    H7S13296   5.180   4.192   7.221  3.1735 -1.0930  2.2805
  125OSM    H7T13297   5.173   4.365   7.162  0.5728  1.0616  0.6524
  125OSM    C8S13298   5.242   4.336   7.362  0.2691  0.0615 -0.1392
  125OSM    H8S13299   5.275   4.441   7.374 -0.1111  0.0956  0.6153
  125OSM    H8T13300   5.322   4.275   7.410  0.9177  1.5551  0.7482
  125OSM    C9S13301   5.108   4.327   7.443  0.9626  0.3451  1.2153
  125OSM    H9S13302   5.072   4.222   7.448 -0.3153  0.4856 -2.1303
  125OSM    H9T13303   5.033   4.376   7.377  2.5945  2.9703  1.1524
  125OSM   C10S13304   5.123   4.387   7.586  0.5503 -0.0047  0.0322
  125OSM   H10S13305   5.112   4.497   7.578  1.0305  0.0369 -0.0953
  125OSM   H10T13306   5.224   4.370   7.630 -0.3346 -0.7411  1.8628
  125OSM   C11S13307   5.016   4.334   7.685  0.1639  0.1238 -0.0453
  125OSM   H11S13308   5.046   4.235   7.727 -0.3311 -0.2829 -0.6272
  125OSM   H11T13309   4.927   4.300   7.627 -0.8115  1.6577  0.5012
  125OSM   C12S13310   4.980   4.430   7.799 -0.0804 -0.5551 -0.2290
  125OSM   H12S13311   4.907   4.380   7.865  0.8113 -1.2658  0.2486
  125OSM   H12T13312   4.946   4.524   7.751  0.1911 -1.6688 -2.7813
  125OSM   C13S13313   5.101   4.470   7.893 -0.0835  0.2766  0.2744
  125OSM   H13S13314   5.165   4.525   7.820 -0.3137 -1.0613 -0.9941
  125OSM   H13T13315   5.161   4.381   7.922  0.4970  1.4220  2.8259
  125OSM   C14S13316   5.073   4.586   7.993 -0.4428  0.2025 -0.4288
  125OSM   H14S13317   5.011   4.540   8.073  0.7046 -1.7525 -0.6146
  125OSM   H14T13318   5.011   4.673   7.961 -1.9848 -0.7458 -0.1386
  125OSM   C15S13319   5.201   4.630   8.070 -0.3442  0.2409 -0.1316
  125OSM   H15S13320   5.264   4.692   8.003  1.2515 -0.1198  0.9660
  125OSM   H15T13321   5.258   4.546   8.117 -0.4921  0.8492  1.1985
  125OSM   C16S13322   5.164   4.728   8.190  1.2915  0.7354  0.3407
  125OSM   H16S13323   5.104   4.667   8.261  2.1152 -2.0492 -1.2449
  125OSM   H16T13324   5.098   4.804   8.141 -0.5301 -1.4511 -0.7684
  125OSM   C17S13325   5.285   4.800   8.245 -0.2635 -0.3459  0.1261
  125OSM   H17S13326   5.336   4.845   8.157 -3.1710 -1.1359 -2.1599
  125OSM   H17T13327   5.367   4.729   8.268  0.4887 -1.1079 -4.0827
  125OSM   C18S13328   5.256   4.904   8.360  0.6202 -0.0646 -0.3467
  125OSM   H18S13329   5.343   4.964   8.392 -0.5647  2.0101 -0.8195
  125OSM   H18T13330   5.220   4.853   8.452  0.1800 -2.0491 -1.5515
  125OSM   H18U13331   5.167   4.963   8.328 -0.1246 -0.9395  0.0805
  125OSM    C1F13332   5.733   3.904   6.840  0.3956  0.3934  0.2996
  125OSM     OF13333   5.848   3.942   6.821  0.0748 -0.2805  0.6077
  125OSM    C2F13334   5.704   3.759   6.890 -0.5414  0.1452  0.0739
  125OSM    H2F13335   5.741   3.705   6.800 -0.6147  0.2273 -0.0071
  125OSM    H2G13336   5.594   3.745   6.890 -0.6078  0.5760 -0.8255
  125OSM    C3F13337   5.763   3.731   7.030 -0.1088 -0.2582 -0.1386
  125OSM    H3F13338   5.860   3.785   7.040 -1.8659  3.5548 -1.8293
  125OSM    H3G13339   5.799   3.626   7.031  4.7355  1.1436  0.1745
  125OSM    C4F13340   5.681   3.779   7.146  0.4066  0.1744  0.1553
  125OSM    H4F13341   5.575   3.751   7.126  0.6664 -1.3949  0.8209
  125OSM    H4G13342   5.684   3.890   7.159  1.9423 -0.0176  1.7372
  125OSM    C5F13343   5.707   3.704   7.278 -0.4851  0.2131  0.0348
  125OSM    H5F13344   5.669   3.600   7.271 -0.3894  0.1020  1.0176
  125OSM    H5G13345   5.640   3.746   7.357 -1.4944 -1.0213 -0.1257
  125OSM    C6F13346   5.854   3.705   7.317  0.2108 -0.4990  0.1872
  125OSM    H6F13347   5.882   3.806   7.281  0.3243  0.2220  2.1786
  125OSM    H6G13348   5.915   3.634   7.257  1.9500  2.2750 -1.5345
  125OSM    C7F13349   5.896   3.694   7.471 -0.0222 -0.6508  0.5214
  125OSM    H7F13350   5.867   3.786   7.527  0.2200 -1.4706  2.0637
  125OSM    H7G13351   6.007   3.699   7.472 -0.0100 -0.6778 -0.2763
  125OSM    C8F13352   5.834   3.570   7.528  0.3163 -0.2231 -0.3534
  125OSM    H8F13353   5.842   3.490   7.451  1.7668 -1.7305  1.2853
  125OSM    H8G13354   5.724   3.583   7.541 -0.2355 -2.6835 -1.9736
  125OSM    C9F13355   5.895   3.512   7.652  0.0368  0.8493 -0.1398
  125OSM    H9F13356   6.000   3.483   7.636 -0.2785 -0.1101 -0.5228
  125OSM   C10F13357   5.845   3.488   7.772  1.1946  0.1399 -0.0553
  125OSM   H10F13358   5.913   3.457   7.852 -0.6562 -1.2551  1.0758
  125OSM   C11F13359   5.696   3.506   7.810 -0.4615  0.2123 -0.9007
  125OSM   H11F13360   5.636   3.422   7.769 -0.4081  0.4069 -1.3741
  125OSM   H11G13361   5.647   3.600   7.777  0.6264  0.7579 -1.0057
  125OSM   C12F13362   5.683   3.527   7.962 -0.7980  0.1445 -0.1978
  125OSM   H12F13363   5.726   3.626   7.988 -0.9927 -0.3415  2.2612
  125OSM   H12G13364   5.756   3.455   8.005 -2.2241 -0.9407  0.5153
  125OSM   C13F13365   5.537   3.498   8.020 -0.1027  0.1815 -0.6338
  125OSM   H13F13366   5.504   3.397   7.987  3.5487 -1.8815  1.3673
  125OSM   H13G13367   5.454   3.562   7.986 -0.1093 -0.4529 -1.8959
  125OSM   C14F13368   5.545   3.507   8.177 -0.1690 -0.0519  0.3658
  125OSM   H14F13369   5.598   3.604   8.188  1.9471 -1.1291  0.1671
  125OSM   H14G13370   5.620   3.446   8.232  0.1858 -0.4572 -0.5368
  125OSM   C15F13371   5.402   3.514   8.236 -0.2655 -0.6758 -0.1004
  125OSM   H15F13372   5.345   3.427   8.198 -1.4309 -0.0206  0.0851
  125OSM   H15G13373   5.339   3.599   8.202  0.1090 -1.3107 -2.5981
  125OSM   C16F13374   5.398   3.487   8.383 -0.1489 -0.1801 -0.0074
  125OSM   H16F13375   5.473   3.554   8.428 -0.0390  1.3665 -2.3446
  125OSM   H16G13376   5.430   3.381   8.389 -0.0041 -0.3593 -2.5973
  125OSM   C17F13377   5.260   3.505   8.445 -0.2461 -0.4382 -0.2934
  125OSM   H17F13378   5.194   3.418   8.424 -1.0829 -0.0683  0.7201
  125OSM   H17G13379   5.208   3.591   8.399 -1.2296 -0.4015  0.8213
  125OSM   C18F13380   5.270   3.526   8.600 -1.0846  0.3394  0.4868
  125OSM   H18F13381   5.174   3.514   8.654 -1.2211 -1.2353 -0.0545
  125OSM   H18G13382   5.307   3.630   8.614  0.9264 -0.2391 -0.1613
  125OSM   H18H13383   5.347   3.459   8.645  0.9941  2.1122 -0.2366
  126OSM      N13384   3.508   1.786   6.314 -0.8257  0.0014 -0.0134
  126OSM    C1513385   3.521   1.649   6.236 -1.0062 -0.5733  0.2073
  126OSM   H15A13386   3.623   1.624   6.213 -0.4844 -0.6252  2.4032
  126OSM   H15B13387   3.467   1.656   6.142 -1.8396 -0.4486  0.6788
  126OSM   H15C13388   3.470   1.567   6.285 -0.0953 -1.5382 -0.4227
  126OSM    C1413389   3.581   1.891   6.245  0.5001 -0.6899 -0.8264
  126OSM   H14A13390   3.589   1.984   6.300 -0.3535 -1.7981  1.2975
  126OSM   H14B13391   3.546   1.911   6.145  1.0449  2.4197 -0.4926
  126OSM   H14C13392   3.683   1.855   6.233  1.0238 -0.0725  1.2884
  126OSM    C1313393   3.368   1.830   6.311 -0.0169  0.6302 -0.1406
  126OSM   H13A13394   3.347   1.849   6.206 -0.9522  2.2729  0.2990
  126OSM   H13B13395   3.343   1.915   6.373 -0.4303  1.4933 -1.4293
  126OSM   H13C13396   3.310   1.753   6.360  0.4157 -0.2563 -0.9936
  126OSM    C1213397   3.570   1.756   6.452  1.0183  0.3901 -0.3342
  126OSM   H12A13398   3.571   1.842   6.517  1.2091 -0.5454  0.9403
  126OSM   H12B13399   3.674   1.735   6.437  1.1039 -0.9404  1.6904
  126OSM    C1113400   3.503   1.654   6.546  0.1953 -0.1331 -0.5646
  126OSM   H11A13401   3.394   1.666   6.530  0.5333  0.8846 -2.4318
  126OSM   H11B13402   3.517   1.673   6.654  1.1253 -1.0062 -0.5107
  126OSM      P13403   3.662   1.453   6.592  0.4465  0.3744  0.5014
  126OSM    O1313404   3.669   1.321   6.521  0.3812 -0.6140  0.3705
  126OSM    O1413405   3.778   1.537   6.594 -0.4098 -0.4666  0.8111
  126OSM    O1113406   3.616   1.418   6.735  0.5050  0.2006 -0.1284
  126OSM    O1213407   3.542   1.521   6.518  0.4355  0.0198  0.0818
  126OSM    C1S13408   3.484   1.366   6.761  0.2325  0.1054 -0.5563
  126OSM    H1S13409   3.464   1.274   6.702  0.4947  0.9996 -2.0783
  126OSM    H1T13410   3.407   1.441   6.733 -1.1568 -1.3952 -0.9160
  126OSM     NF13411   3.329   1.258   6.932  0.8165 -0.3461  0.2128
  126OSM    HNF13412   3.248   1.313   6.951  1.6976  1.9201 -2.0135
  126OSM    C2S13413   3.449   1.336   6.916  0.0641  0.4273 -0.1117
  126OSM    H2S13414   3.539   1.276   6.944 -0.1905 -0.0485 -0.3109
  126OSM    C3S13415   3.446   1.466   6.993  0.3188  0.0655 -0.6082
  126OSM    H3S13416   3.363   1.529   6.954 -1.3893 -0.0748  2.4486
  126OSM     O313417   3.571   1.544   6.982 -0.1557  0.6237 -0.4404
  126OSM    HO313418   3.593   1.527   6.890 -0.5684  0.0586 -0.4400
  126OSM    C4S13419   3.428   1.438   7.138  0.1165 -0.0334  0.0023
  126OSM    H4S13420   3.517   1.416   7.199 -1.2372 -1.1976  1.6863
  126OSM    C5S13421   3.311   1.458   7.202 -0.4403 -0.2620  0.6500
  126OSM    H5S13422   3.236   1.527   7.162 -0.6399  0.5329  2.3113
  126OSM    C6S13423   3.299   1.437   7.350 -1.0323  0.4993  0.1303
  126OSM    H6S13424   3.255   1.523   7.406  0.0605  1.4383 -0.4087
  126OSM    H6T13425   3.399   1.422   7.395 -0.2507  0.3156 -1.6238
  126OSM    C7S13426   3.214   1.317   7.391  0.1150  0.4217 -0.3022
  126OSM    H7S13427   3.271   1.224   7.367  1.4819  1.2211 -0.2840
  126OSM    H7T13428   3.129   1.321   7.320 -0.3013 -1.5487  0.0183
  126OSM    C8S13429   3.165   1.323   7.536  0.3606  0.1663 -0.9776
  126OSM    H8S13430   3.071   1.263   7.534  0.3338  0.1528  0.2242
  126OSM    H8T13431   3.122   1.423   7.555  1.0174  0.2773  0.0081
  126OSM    C9S13432   3.262   1.282   7.650  0.0640  0.5215  0.4425
  126OSM    H9S13433   3.357   1.340   7.646 -1.5115  3.4087  1.9160
  126OSM    H9T13434   3.299   1.179   7.634  1.6073  1.1470 -0.2902
  126OSM   C10S13435   3.187   1.284   7.790  0.0729 -0.4879  0.1303
  126OSM   H10S13436   3.102   1.216   7.770  0.4090 -0.4365 -1.6195
  126OSM   H10T13437   3.161   1.392   7.790  4.2374  0.7018  0.2303
  126OSM   C11S13438   3.269   1.232   7.906  0.8452 -0.1982 -0.2890
  126OSM   H11S13439   3.350   1.306   7.927  1.4921 -0.9234 -0.2154
  126OSM   H11T13440   3.305   1.129   7.885 -1.6399 -1.0608 -0.6401
  126OSM   C12S13441   3.193   1.223   8.037 -0.2286  0.0089  0.6983
  126OSM   H12S13442   3.111   1.150   8.023 -1.3692  1.3125  0.3660
  126OSM   H12T13443   3.149   1.322   8.063 -1.2110  0.1766 -1.4325
  126OSM   C13S13444   3.288   1.195   8.154  0.5529 -0.4778 -0.7989
  126OSM   H13S13445   3.384   1.250   8.145  0.8661 -0.3100  2.3392
  126OSM   H13T13446   3.311   1.087   8.164  1.8148 -0.2496 -1.1138
  126OSM   C14S13447   3.227   1.243   8.298  0.2380  0.3058 -0.9016
  126OSM   H14S13448   3.121   1.213   8.314  0.1316  1.2163  0.2020
  126OSM   H14T13449   3.233   1.353   8.311  1.5923  0.2311 -0.7126
  126OSM   C15S13450   3.308   1.187   8.417 -0.2971  0.0888  0.2865
  126OSM   H15S13451   3.392   1.258   8.436 -2.9096  3.2361  1.1131
  126OSM   H15T13452   3.339   1.085   8.388 -0.1604  0.6259 -1.6176
  126OSM   C16S13453   3.228   1.180   8.553  0.3786  0.2930  0.0270
  126OSM   H16S13454   3.297   1.116   8.613  0.6614 -0.0426 -0.6427
  126OSM   H16T13455   3.131   1.130   8.531  1.1422 -1.9864  1.4616
  126OSM   C17S13456   3.192   1.312   8.627  0.1708  0.2252 -0.6123
  126OSM   H17S13457   3.102   1.364   8.588  0.0217  1.2661  1.0617
  126OSM   H17T13458   3.278   1.381   8.617  1.6976 -1.3219  1.2195
  126OSM   C18S13459   3.162   1.291   8.780  0.4622 -0.4656 -0.2634
  126OSM   H18S13460   3.060   1.248   8.793 -0.8931  2.5074 -0.0132
  126OSM   H18T13461   3.158   1.393   8.826 -2.7582 -0.8652  0.5918
  126OSM   H18U13462   3.243   1.238   8.833  1.6902  1.9134  0.4057
  126OSM    C1F13463   3.315   1.127   6.904  0.3981  0.2739 -0.3611
  126OSM     OF13464   3.375   1.078   6.809 -0.3771  0.2008 -0.8881
  126OSM    C2F13465   3.216   1.052   6.977 -0.0430 -0.5117 -0.1732
  126OSM    H2F13466   3.118   1.103   6.990  0.0697 -0.6281  1.2497
  126OSM    H2G13467   3.249   1.043   7.082  0.4399  0.9073 -0.1859
  126OSM    C3F13468   3.203   0.903   6.932 -0.4207 -0.3431  0.6582
  126OSM    H3F13469   3.308   0.868   6.945 -0.5386 -1.0563 -0.2081
  126OSM    H3G13470   3.163   0.895   6.829 -1.1315 -0.5398  0.9469
  126OSM    C4F13471   3.097   0.833   7.019  0.1821 -0.0528 -0.7102
  126OSM    H4F13472   3.132   0.727   7.015  2.6958  0.7349 -1.4202
  126OSM    H4G13473   2.993   0.829   6.980 -1.0732 -0.8595  2.4040
  126OSM    C5F13474   3.080   0.872   7.169 -0.5658 -0.0679 -0.0996
  126OSM    H5F13475   3.022   0.966   7.184 -0.8498 -0.3522  0.6419
  126OSM    H5G13476   3.185   0.876   7.204 -0.5311  0.1784 -0.2247
  126OSM    C6F13477   3.006   0.764   7.242  0.9588  0.0426 -0.2239
  126OSM    H6F13478   3.050   0.662   7.238 -0.7601 -0.9831  3.0258
  126OSM    H6G13479   2.906   0.751   7.195  1.0472 -0.4381 -0.2880
  126OSM    C7F13480   2.971   0.793   7.384 -0.2518 -0.2619 -0.4235
  126OSM    H7F13481   2.943   0.705   7.446 -0.6409  0.6637  0.7590
  126OSM    H7G13482   2.880   0.856   7.374 -0.2261 -0.5754 -3.5133
  126OSM    C8F13483   3.068   0.874   7.468 -0.4284 -0.8568  0.3894
  126OSM    H8F13484   3.018   0.881   7.567  0.1116  0.7483  0.5732
  126OSM    H8G13485   3.077   0.977   7.427  1.4208 -0.3671  1.8630
  126OSM    C9F13486   3.198   0.797   7.480  0.0355  0.0176  0.1976
  126OSM    H9F13487   3.258   0.784   7.388  1.3654  0.0337  1.0363
  126OSM   C10F13488   3.256   0.745   7.590 -0.3825 -0.0358  0.5190
  126OSM   H10F13489   3.351   0.691   7.584 -0.0518  0.5124  0.7868
  126OSM   C11F13490   3.209   0.748   7.727 -0.0315 -0.3395  0.4934
  126OSM   H11F13491   3.182   0.645   7.759 -1.2529 -0.4197 -0.6813
  126OSM   H11G13492   3.112   0.803   7.732 -0.7248 -1.5054  0.3170
  126OSM   C12F13493   3.302   0.802   7.838 -0.0399 -0.2998  0.1719
  126OSM   H12F13494   3.308   0.912   7.830 -0.2190 -0.3604 -0.8833
  126OSM   H12G13495   3.406   0.765   7.820  0.0831  0.4420 -0.7056
  126OSM   C13F13496   3.251   0.755   7.976 -0.2459  0.6573  0.6538
  126OSM   H13F13497   3.311   0.806   8.054 -0.4736 -1.2301  2.1421
  126OSM   H13G13498   3.252   0.646   8.001  0.8080  0.9425  1.9523
  126OSM   C14F13499   3.105   0.798   8.002 -0.4932  0.0537 -0.4043
  126OSM   H14F13500   3.034   0.726   7.957 -0.8242 -0.1879  0.4811
  126OSM   H14G13501   3.085   0.888   7.940 -2.0507 -0.2119 -0.3339
  126OSM   C15F13502   3.076   0.819   8.151 -0.4654  0.3739  0.1092
  126OSM   H15F13503   2.967   0.836   8.159 -0.7582 -1.1091 -0.3622
  126OSM   H15G13504   3.128   0.900   8.207 -0.7881 -0.3126  1.4602
  126OSM   C16F13505   3.097   0.687   8.226  0.3105 -0.3932  1.2428
  126OSM   H16F13506   3.200   0.651   8.205  0.5735  1.9023 -2.2647
  126OSM   H16G13507   3.023   0.612   8.192  0.2256  0.3200 -0.1901
  126OSM   C17F13508   3.081   0.694   8.379  0.4276  0.5236  0.0788
  126OSM   H17F13509   2.981   0.731   8.410  0.4965 -0.3854  1.4836
  126OSM   H17G13510   3.155   0.759   8.431 -0.3069  2.8070 -1.5505
  126OSM   C18F13511   3.096   0.556   8.453  0.6502 -0.5845  0.2437
  126OSM   H18F13512   3.031   0.481   8.404  0.1610  0.9507 -1.5474
  126OSM   H18G13513   3.063   0.568   8.559  0.4638  0.8377  0.0344
  126OSM   H18H13514   3.202   0.522   8.448  0.4114 -1.2626 -0.2449
  127OSM      N13515   1.708   1.938   6.271 -0.4989 -0.6960  0.6132
  127OSM    C1513516   1.797   2.029   6.350  0.1591 -0.6226  0.4428
  127OSM   H15A13517   1.890   2.058   6.303  0.1951  2.4151  2.1595
  127OSM   H15B13518   1.813   1.982   6.446  0.6144 -1.0509  0.1648
  127OSM   H15C13519   1.747   2.122   6.373 -0.2280 -0.8718  0.6173
  127OSM    C1413520   1.786   1.817   6.219 -0.1367  0.1505  0.7863
  127OSM   H14A13521   1.726   1.764   6.147  3.8899 -2.0951 -1.2509
  127OSM   H14B13522   1.812   1.741   6.292  2.4759  1.0349  0.8879
  127OSM   H14C13523   1.882   1.831   6.172  0.8409 -0.4059  2.5152
  127OSM    C1313524   1.593   1.893   6.358 -0.1013 -0.0466 -0.3199
  127OSM   H13A13525   1.543   1.806   6.319  0.6027 -2.0906  2.9593
  127OSM   H13B13526   1.533   1.979   6.382 -0.2359 -0.1923 -0.1371
  127OSM   H13C13527   1.646   1.854   6.444  3.2991  3.2890 -0.6334
  127OSM    C1213528   1.650   2.023   6.152 -0.8702 -0.1422 -0.8898
  127OSM   H12A13529   1.589   1.960   6.089  0.3612 -0.5584 -1.7166
  127OSM   H12B13530   1.732   2.064   6.095 -0.6181  2.0893  0.9242
  127OSM    C1113531   1.566   2.152   6.184  0.3067  0.1300  0.2009
  127OSM   H11A13532   1.465   2.131   6.224  0.7513 -0.9771  0.7836
  127OSM   H11B13533   1.543   2.197   6.085 -3.6327  1.5410  1.5754
  127OSM      P13534   1.607   2.397   6.262 -0.2806  0.0614 -0.0310
  127OSM    O1313535   1.738   2.467   6.252 -0.0849  0.3778  0.0862
  127OSM    O1413536   1.495   2.419   6.167  0.4279  0.6642  0.4914
  127OSM    O1113537   1.543   2.437   6.402  0.1315 -0.2411  0.1843
  127OSM    O1213538   1.625   2.243   6.274  0.0095 -0.3760  0.5404
  127OSM    C1S13539   1.598   2.357   6.514 -0.2628  0.4392 -0.2350
  127OSM    H1S13540   1.695   2.392   6.556 -0.7001 -0.7907  1.9662
  127OSM    H1T13541   1.616   2.251   6.487 -2.5075  0.1081 -0.6032
  127OSM     NF13542   1.534   2.263   6.726  0.4338 -0.0226  0.2683
  127OSM    HNF13543   1.492   2.173   6.727 -0.5069  0.3962  0.4492
  127OSM    C2S13544   1.485   2.344   6.616 -0.5191 -0.0451 -0.7485
  127OSM    H2S13545   1.453   2.435   6.673 -0.7046 -1.4346  1.4889
  127OSM    C3S13546   1.350   2.289   6.553 -0.3226  0.2675 -0.3327
  127OSM    H3S13547   1.379   2.190   6.510  1.5995  0.2671  0.7983
  127OSM     O313548   1.296   2.369   6.452 -0.3730  0.6072  0.1108
  127OSM    HO313549   1.377   2.418   6.439  0.7269 -1.1458 -0.0113
  127OSM    C4S13550   1.252   2.254   6.658 -0.0096 -0.8659 -0.6378
  127OSM    H4S13551   1.287   2.166   6.714  0.6980 -0.8743 -1.0712
  127OSM    C5S13552   1.143   2.324   6.695 -0.7103 -0.4249 -0.1322
  127OSM    H5S13553   1.131   2.417   6.638  0.9745 -0.4552 -0.5971
  127OSM    C6S13554   1.038   2.286   6.792 -0.8242  0.0384  0.1994
  127OSM    H6S13555   0.946   2.286   6.730  0.4583  0.6392 -1.7963
  127OSM    H6T13556   1.026   2.370   6.864  0.1866  0.0231  0.4061
  127OSM    C7S13557   1.058   2.150   6.860  0.6775  0.1484 -0.0026
  127OSM    H7S13558   1.143   2.144   6.931  0.9309  0.9929 -0.2211
  127OSM    H7T13559   1.066   2.076   6.778 -0.0583  0.5053 -0.4132
  127OSM    C8S13560   0.929   2.111   6.943 -0.0284  0.5314 -0.6545
  127OSM    H8S13561   0.880   2.022   6.897 -0.1100  1.1268 -1.7757
  127OSM    H8T13562   0.860   2.197   6.930  1.5287  2.1376  1.1713
  127OSM    C9S13563   0.959   2.080   7.094 -0.6137  0.2149  0.2690
  127OSM    H9S13564   1.012   2.163   7.144  3.2251 -0.6913 -1.8776
  127OSM    H9T13565   1.016   1.985   7.106 -1.9785 -0.6417  0.1804
  127OSM   C10S13566   0.820   2.038   7.165  0.3737  0.1125 -0.2739
  127OSM   H10S13567   0.777   1.946   7.119  0.3785 -0.7728  1.4186
  127OSM   H10T13568   0.753   2.123   7.140 -1.5693 -1.7272 -1.7277
  127OSM   C11S13569   0.836   2.020   7.319  0.0846 -0.7573  0.7486
  127OSM   H11S13570   0.884   2.109   7.365 -0.5947 -1.1053  2.1931
  127OSM   H11T13571   0.899   1.929   7.329 -1.0522 -2.1464 -2.9042
  127OSM   C12S13572   0.700   2.000   7.369 -0.1192  1.0847  0.1043
  127OSM   H12S13573   0.646   1.910   7.329 -0.1025  0.6804  0.9643
  127OSM   H12T13574   0.635   2.088   7.355 -2.5887 -0.4113  1.4061
  127OSM   C13S13575   0.705   1.965   7.518  0.0994 -0.3816 -0.5904
  127OSM   H13S13576   0.760   2.043   7.575 -1.7816  0.6628 -0.1376
  127OSM   H13T13577   0.774   1.879   7.529  1.5067  0.9555  1.7742
  127OSM   C14S13578   0.557   1.959   7.581  0.0909 -0.0618  0.4857
  127OSM   H14S13579   0.500   1.887   7.517 -0.1865 -0.0576  0.7280
  127OSM   H14T13580   0.512   2.059   7.572  1.2874  0.3826 -1.0077
  127OSM   C15S13581   0.566   1.925   7.728 -0.4861  0.1263 -0.3248
  127OSM   H15S13582   0.618   1.829   7.747 -1.4649 -1.0477 -2.9989
  127OSM   H15T13583   0.459   1.917   7.758 -1.3465  2.6269 -2.3129
  127OSM   C16S13584   0.629   2.040   7.811 -0.0791 -0.1476 -0.4834
  127OSM   H16S13585   0.608   2.142   7.773 -1.3824 -0.4594 -0.6659
  127OSM   H16T13586   0.737   2.028   7.789  0.2478  2.5141 -0.6844
  127OSM   C17S13587   0.612   2.027   7.956 -0.3989  0.3058  0.0826
  127OSM   H17S13588   0.503   2.046   7.971 -0.4735  1.7380 -1.9190
  127OSM   H17T13589   0.670   2.105   8.010 -0.8082 -0.0901  1.1257
  127OSM   C18S13590   0.644   1.892   8.012  0.4102 -0.0692  0.0333
  127OSM   H18S13591   0.563   1.820   7.992 -0.3081  0.8045 -0.2685
  127OSM   H18T13592   0.650   1.900   8.123  1.2160  2.8041 -0.1221
  127OSM   H18U13593   0.735   1.854   7.960  2.6755  2.1267  2.0905
  127OSM    C1F13594   1.635   2.294   6.810 -0.1524  0.2521 -0.3964
  127OSM     OF13595   1.680   2.407   6.812 -0.0283  0.0743 -0.4833
  127OSM    C2F13596   1.698   2.191   6.894 -0.0962 -0.6164 -0.3319
  127OSM    H2F13597   1.786   2.149   6.840  0.4181 -0.6988  0.5511
  127OSM    H2G13598   1.623   2.109   6.903 -2.8764  1.5403 -2.4107
  127OSM    C3F13599   1.743   2.226   7.040 -0.5666 -0.2874 -0.0263
  127OSM    H3F13600   1.771   2.333   7.042  0.5716 -0.5688 -0.0705
  127OSM    H3G13601   1.839   2.171   7.048 -0.6141 -0.1976  1.4151
  127OSM    C4F13602   1.651   2.171   7.147 -0.2610  0.1043 -0.2580
  127OSM    H4F13603   1.623   2.064   7.136  1.0288 -0.5752  2.2470
  127OSM    H4G13604   1.558   2.231   7.144  0.4734  1.4094  1.3903
  127OSM    C5F13605   1.723   2.190   7.280 -0.5881  0.0830 -0.5002
  127OSM    H5F13606   1.747   2.296   7.301 -3.9635  0.7875  0.4469
  127OSM    H5G13607   1.817   2.132   7.290 -0.7888  0.1621  3.3816
  127OSM    C6F13608   1.628   2.149   7.399  0.2204  0.1016  0.3332
  127OSM    H6F13609   1.590   2.046   7.383 -0.9365  0.1472  2.4882
  127OSM    H6G13610   1.539   2.215   7.405 -3.0423 -3.7681 -0.8012
  127OSM    C7F13611   1.719   2.129   7.524 -0.3987 -0.4348 -0.8648
  127OSM    H7F13612   1.766   2.227   7.549 -1.5208 -0.1694  0.3137
  127OSM    H7G13613   1.803   2.059   7.502  0.5780  0.6276 -0.6519
  127OSM    C8F13614   1.641   2.096   7.655 -0.0545  0.7084  0.5459
  127OSM    H8F13615   1.542   2.046   7.639 -0.2744  1.2801  0.0765
  127OSM    H8G13616   1.596   2.191   7.691 -1.2472  0.3182  0.1422
  127OSM    C9F13617   1.726   2.032   7.762 -0.3323 -0.6206  0.3397
  127OSM    H9F13618   1.835   2.045   7.754 -0.1571  0.3300  3.1136
  127OSM   C10F13619   1.690   1.946   7.859 -0.2859 -0.6632  0.2114
  127OSM   H10F13620   1.765   1.919   7.935  1.5586  0.6829 -1.0566
  127OSM   C11F13621   1.548   1.894   7.895  0.1630 -0.1954 -0.9617
  127OSM   H11F13622   1.463   1.940   7.840 -0.5591 -0.9327 -0.4958
  127OSM   H11G13623   1.526   1.892   8.004  0.5798 -1.2160 -0.8834
  127OSM   C12F13624   1.519   1.754   7.844 -0.3100 -0.2271  0.0322
  127OSM   H12F13625   1.601   1.688   7.881 -0.2220 -0.0930  0.0799
  127OSM   H12G13626   1.524   1.765   7.734 -0.0891  0.5685  0.1179
  127OSM   C13F13627   1.383   1.689   7.861  0.6169 -0.3966  0.1726
  127OSM   H13F13628   1.360   1.618   7.778  0.2621 -0.9181  0.7116
  127OSM   H13G13629   1.298   1.761   7.860 -2.1098 -3.3334  1.3966
  127OSM   C14F13630   1.359   1.600   7.984 -0.9673  0.1076  0.2560
  127OSM   H14F13631   1.463   1.573   8.010 -0.9317  0.5646  0.6000
  127OSM   H14G13632   1.304   1.508   7.956 -0.0717 -0.9169  1.7217
  127OSM   C15F13633   1.293   1.684   8.093  0.3921 -0.8472 -0.0578
  127OSM   H15F13634   1.188   1.703   8.061  0.8680  3.2341  0.2431
  127OSM   H15G13635   1.342   1.784   8.095 -0.4124 -0.4005 -1.2453
  127OSM   C16F13636   1.310   1.611   8.224 -0.5344 -0.0911  0.2380
  127OSM   H16F13637   1.418   1.596   8.243 -0.2450  0.4582 -0.9031
  127OSM   H16G13638   1.258   1.513   8.219 -0.5352 -0.0839  0.1144
  127OSM   C17F13639   1.252   1.689   8.351 -0.4787 -0.1081 -0.0824
  127OSM   H17F13640   1.145   1.709   8.330 -0.5046 -0.5001 -0.3445
  127OSM   H17G13641   1.291   1.793   8.358 -0.1194 -0.1612 -1.1069
  127OSM   C18F13642   1.276   1.612   8.480 -0.0013 -0.3255  0.0294
  127OSM   H18F13643   1.382   1.588   8.501  0.3270  0.6584 -0.4475
  127OSM   H18G13644   1.226   1.513   8.490  0.7400 -0.8993 -1.6035
  127OSM   H18H13645   1.230   1.664   8.568  0.7470 -0.9569  0.8055
  128OSM      N13646   1.422   5.830   5.852  0.3869  0.1098  1.2307
  128OSM    C1513647   1.478   5.887   5.724  0.3583 -0.0374  0.6406
  128OSM   H15A13648   1.460   5.821   5.640  0.0416  0.6286  0.1668
  128OSM   H15B13649   1.586   5.893   5.728  0.3690  1.4854 -0.6296
  128OSM   H15C13650   1.440   5.983   5.692  1.9612 -0.2284 -2.2195
  128OSM    C1413651   1.282   5.781   5.820  0.1824 -0.5582 -0.7542
  128OSM   H14A13652   1.228   5.870   5.791  0.1874  0.7464  2.7870
  128OSM   H14B13653   1.230   5.755   5.910 -0.3665 -0.4908 -1.0480
  128OSM   H14C13654   1.273   5.700   5.749 -4.9900 -0.2414 -0.8218
  128OSM    C1313655   1.507   5.707   5.884  0.5811  0.2767 -0.7120
  128OSM   H13A13656   1.608   5.735   5.857  0.5738  2.1194  0.9310
  128OSM   H13B13657   1.470   5.632   5.816  0.0966 -0.0818 -0.0641
  128OSM   H13C13658   1.500   5.682   5.989  0.4284  4.1772  0.3948
  128OSM    C1213659   1.429   5.927   5.971 -0.6084 -0.6369  0.6501
  128OSM   H12A13660   1.379   6.017   5.939 -0.8127 -0.5388  1.2406
  128OSM   H12B13661   1.529   5.965   5.982 -0.8050 -0.2335  1.0685
  128OSM    C1113662   1.356   5.888   6.104  0.1421 -0.3694  0.5255
  128OSM   H11A13663   1.250   5.883   6.071  0.7379  0.8829 -1.8350
  128OSM   H11B13664   1.351   5.965   6.185 -3.2278 -1.4424  1.4990
  128OSM      P13665   1.310   5.645   6.203  0.0811 -0.1368  0.2818
  128OSM    O1313666   1.197   5.631   6.107  0.0009 -0.0530  0.2733
  128OSM    O1413667   1.394   5.527   6.238  0.0886  0.1324 -0.5561
  128OSM    O1113668   1.228   5.704   6.327 -0.0829  0.2193  0.3901
  128OSM    O1213669   1.401   5.768   6.158 -0.7902  0.2338 -0.0371
  128OSM    C1S13670   1.300   5.745   6.441  0.1154  0.0945 -0.0063
  128OSM    H1S13671   1.360   5.836   6.420 -2.7660  1.8891 -1.0531
  128OSM    H1T13672   1.367   5.661   6.470  2.0020  0.2074 -3.4530
  128OSM     NF13673   1.265   5.854   6.663 -0.5574  0.3765 -0.2122
  128OSM    HNF13674   1.280   5.816   6.754  2.7783  0.3670 -0.6569
  128OSM    C2S13675   1.200   5.766   6.561  0.0015  0.4060 -0.0281
  128OSM    H2S13676   1.111   5.822   6.527 -0.9889 -0.3808  1.2029
  128OSM    C3S13677   1.157   5.625   6.609  0.4137  0.1464 -0.3290
  128OSM    H3S13678   1.254   5.592   6.653  0.6681  0.5055 -0.6128
  128OSM     O313679   1.113   5.543   6.498 -0.4598 -0.3964 -0.1529
  128OSM    HO313680   1.130   5.591   6.417  3.1877 -0.2476  0.5266
  128OSM    C4S13681   1.052   5.633   6.717 -0.0030  0.6660  0.5140
  128OSM    H4S13682   1.099   5.671   6.809 -0.8433  1.3144  0.6798
  128OSM    C5S13683   0.920   5.625   6.702  0.9417  0.3228 -0.5050
  128OSM    H5S13684   0.878   5.596   6.605 -0.4533  2.0815 -0.4698
  128OSM    C6S13685   0.822   5.641   6.819 -0.1073 -0.1972 -0.6466
  128OSM    H6S13686   0.753   5.554   6.811 -0.1456 -0.2217 -0.0712
  128OSM    H6T13687   0.768   5.737   6.803 -0.5145 -0.5835 -1.6636
  128OSM    C7S13688   0.885   5.648   6.954 -0.4117  0.8499 -0.0663
  128OSM    H7S13689   0.919   5.752   6.972  0.2059  0.7401 -0.5849
  128OSM    H7T13690   0.969   5.577   6.970  0.5331  2.3888  2.3413
  128OSM    C8S13691   0.791   5.617   7.074  0.0041 -0.7289 -0.3630
  128OSM    H8S13692   0.753   5.513   7.071  1.4859 -1.2732 -0.9979
  128OSM    H8T13693   0.702   5.683   7.060 -0.8263 -2.2091 -2.5918
  128OSM    C9S13694   0.852   5.643   7.214 -0.0087  0.2277  0.5349
  128OSM    H9S13695   0.887   5.748   7.216  2.0680 -0.4351  1.4450
  128OSM    H9T13696   0.953   5.596   7.214  0.5587  1.4198  0.8421
  128OSM   C10S13697   0.781   5.596   7.336 -0.0455 -0.1244 -0.3959
  128OSM   H10S13698   0.743   5.492   7.343 -1.0634  0.2847  0.3347
  128OSM   H10T13699   0.692   5.660   7.346  1.2858  1.8931 -0.9153
  128OSM   C11S13700   0.870   5.623   7.461  0.1251  0.4285  0.2972
  128OSM   H11S13701   0.886   5.733   7.466  0.2277  0.3753  1.6123
  128OSM   H11T13702   0.971   5.576   7.459  0.7996  1.8521 -0.5481
  128OSM   C12S13703   0.792   5.577   7.585 -0.2250 -0.4071  0.1941
  128OSM   H12S13704   0.780   5.467   7.582  2.3969 -0.7763  0.9912
  128OSM   H12T13705   0.695   5.630   7.577  0.1029 -0.0408 -1.9959
  128OSM   C13S13706   0.862   5.616   7.711  0.9058 -0.5690  0.2764
  128OSM   H13S13707   0.842   5.724   7.726  1.4432 -0.3205 -0.7506
  128OSM   H13T13708   0.970   5.612   7.685  0.9210 -1.5132  0.4366
  128OSM   C14S13709   0.828   5.537   7.841 -0.3544  0.4278  0.5951
  128OSM   H14S13710   0.867   5.433   7.835  0.6341  0.4303  4.3232
  128OSM   H14T13711   0.717   5.533   7.855 -0.3382  0.4364  0.7300
  128OSM   C15S13712   0.886   5.612   7.962  1.0764  0.4030 -0.0976
  128OSM   H15S13713   0.848   5.716   7.969 -0.4507 -0.0712 -0.9536
  128OSM   H15T13714   0.997   5.606   7.963  1.2327  2.4586  0.8373
  128OSM   C16S13715   0.826   5.550   8.086 -0.4335  0.1820 -0.1000
  128OSM   H16S13716   0.836   5.441   8.072  0.9768  0.2381  0.2981
  128OSM   H16T13717   0.719   5.577   8.071  0.2445  2.2463 -1.6706
  128OSM   C17S13718   0.876   5.605   8.223  0.1683  0.0764  0.2809
  128OSM   H17S13719   0.850   5.710   8.248  1.6770  0.5151  0.1254
  128OSM   H17T13720   0.986   5.587   8.227  0.3729  0.9456 -0.9718
  128OSM   C18S13721   0.806   5.518   8.333 -0.0841 -0.4430 -1.0448
  128OSM   H18S13722   0.696   5.530   8.324 -0.1638  0.0355  0.3311
  128OSM   H18T13723   0.832   5.551   8.436  2.6710 -2.4398 -0.9843
  128OSM   H18U13724   0.839   5.414   8.312 -1.3421 -0.6040 -2.3552
  128OSM    C1F13725   1.300   5.982   6.638  0.3628  0.2879  0.1133
  128OSM     OF13726   1.265   6.036   6.527 -0.3479  0.1350 -0.3694
  128OSM    C2F13727   1.369   6.052   6.753  0.1855  0.0002 -0.2453
  128OSM    H2F13728   1.467   6.085   6.711  0.5095 -1.0103 -0.3277
  128OSM    H2G13729   1.383   5.987   6.842 -2.4228 -0.9035 -0.4291
  128OSM    C3F13730   1.297   6.167   6.810  0.1043  0.1081 -0.0124
  128OSM    H3F13731   1.196   6.129   6.838  0.3544  0.4721  1.4640
  128OSM    H3G13732   1.284   6.247   6.734 -0.8142  1.5790  1.6373
  128OSM    C4F13733   1.367   6.210   6.935 -0.2308 -0.1098  1.0041
  128OSM    H4F13734   1.460   6.266   6.910  0.2664 -1.4838 -0.3864
  128OSM    H4G13735   1.386   6.126   7.006 -1.6076  0.3453  1.9531
  128OSM    C5F13736   1.281   6.310   7.009 -0.5432 -0.5980  0.8128
  128OSM    H5F13737   1.183   6.260   7.025 -1.0739  0.6649  1.6348
  128OSM    H5G13738   1.272   6.397   6.941 -1.6014 -2.3885 -1.4486
  128OSM    C6F13739   1.342   6.353   7.144  0.2053 -0.3230  1.1724
  128OSM    H6F13740   1.407   6.441   7.121  0.1619 -0.5083  0.3081
  128OSM    H6G13741   1.401   6.271   7.190 -1.1396 -1.9947  0.0284
  128OSM    C7F13742   1.231   6.390   7.244  0.1620 -1.1816  0.0696
  128OSM    H7F13743   1.154   6.310   7.253 -1.2207  0.2585  1.8949
  128OSM    H7G13744   1.172   6.468   7.191  1.8948 -0.8734 -1.5095
  128OSM    C8F13745   1.278   6.434   7.381 -0.0021 -0.3202 -0.2284
  128OSM    H8F13746   1.197   6.478   7.443 -0.2450 -2.4124  1.0362
  128OSM    H8G13747   1.353   6.511   7.351  1.6216 -2.3236 -1.6605
  128OSM    C9F13748   1.345   6.336   7.467  0.8993  0.5852 -0.4352
  128OSM    H9F13749   1.282   6.247   7.481 -1.3641  2.1699  0.0018
  128OSM   C10F13750   1.472   6.342   7.509  0.0848  0.3717  0.4583
  128OSM   H10F13751   1.507   6.269   7.582  1.3916  1.8618  1.3861
  128OSM   C11F13752   1.565   6.456   7.495  0.1934 -0.4294  0.4512
  128OSM   H11F13753   1.628   6.456   7.587 -0.1982  2.6698  0.8121
  128OSM   H11G13754   1.506   6.549   7.506  0.4641 -0.2320  0.2224
  128OSM   C12F13755   1.655   6.461   7.368  0.8852  0.0248 -0.4723
  128OSM   H12F13756   1.590   6.487   7.282 -0.9146  0.2169  0.9014
  128OSM   H12G13757   1.699   6.360   7.350 -0.4683 -0.3893 -1.6994
  128OSM   C13F13758   1.762   6.563   7.393  0.3514 -0.0832  0.1230
  128OSM   H13F13759   1.816   6.543   7.488 -1.4032 -0.6177  1.0635
  128OSM   H13G13760   1.710   6.662   7.395 -0.8316 -0.6959  2.0515
  128OSM   C14F13761   1.874   6.552   7.288  0.1811 -0.6145 -0.0441
  128OSM   H14F13762   1.819   6.553   7.191 -1.3080  0.9572  0.7678
  128OSM   H14G13763   1.929   6.456   7.285 -1.2607 -1.4662 -1.5285
  128OSM   C15F13764   1.984   6.662   7.294 -0.1936 -0.3825  0.3193
  128OSM   H15F13765   2.034   6.672   7.393 -0.0584  1.8100  0.0823
  128OSM   H15G13766   1.935   6.761   7.284  0.4890 -0.0749 -0.0821
  128OSM   C16F13767   2.089   6.654   7.181  0.2331  0.4816  0.0575
  128OSM   H16F13768   2.159   6.570   7.201 -0.4400 -0.5658 -1.8211
  128OSM   H16G13769   2.160   6.739   7.194  0.1122  0.4774  0.8185
  128OSM   C17F13770   2.032   6.648   7.036  0.0630  0.0652  0.1536
  128OSM   H17F13771   1.961   6.730   7.014 -0.8639 -0.8210 -0.2380
  128OSM   H17G13772   1.978   6.552   7.027  1.7248 -0.7936 -1.1896
  128OSM   C18F13773   2.142   6.645   6.931  0.5297  0.0022  0.3378
  128OSM   H18F13774   2.203   6.738   6.939  0.6741 -0.1954  1.9566
  128OSM   H18G13775   2.098   6.642   6.829 -1.3662  1.8290  1.0348
  128OSM   H18H13776   2.207   6.560   6.959 -1.3512 -1.4582  0.4233
  129OSM      N13777   0.623   0.766   6.036 -0.0205 -0.3596 -0.1812
  129OSM    C1513778   0.512   0.793   5.933  0.1370  0.3288 -0.5999
  129OSM   H15A13779   0.504   0.711   5.863  1.2870 -0.3740  0.0528
  129OSM   H15B13780   0.518   0.885   5.877 -0.9142  0.9536  0.2821
  129OSM   H15C13781   0.418   0.788   5.985 -0.1076  0.0332 -1.0754
  129OSM    C1413782   0.736   0.733   5.948 -0.0467  0.4491 -0.3457
  129OSM   H14A13783   0.826   0.709   6.003 -0.3730 -0.8771 -0.3748
  129OSM   H14B13784   0.749   0.813   5.876 -1.3957  0.9882 -0.0010
  129OSM   H14C13785   0.715   0.650   5.883  0.9058  1.2521 -1.7476
  129OSM    C1313786   0.659   0.887   6.115 -0.6625  0.4225 -0.1322
  129OSM   H13A13787   0.712   0.960   6.055 -1.3685 -0.3529 -1.7615
  129OSM   H13B13788   0.727   0.855   6.193 -2.2332  1.3368  1.6927
  129OSM   H13C13789   0.569   0.925   6.160  0.7584  4.4022 -0.2403
  129OSM    C1213790   0.575   0.643   6.111  0.1329  0.4569 -1.0435
  129OSM   H12A13791   0.640   0.604   6.189 -1.0910 -1.8066 -1.0793
  129OSM   H12B13792   0.569   0.560   6.042 -0.0650 -1.2584  0.9129
  129OSM    C1113793   0.444   0.656   6.196 -0.0189 -0.0091  0.3325
  129OSM   H11A13794   0.437   0.759   6.235  4.0552  1.1925 -1.5520
  129OSM   H11B13795   0.439   0.590   6.286 -0.3282 -0.1046  0.2466
  129OSM      P13796   0.187   0.648   6.167  0.3817 -0.1873  0.2938
  129OSM    O1313797   0.157   0.794   6.158 -0.2506  0.5446  0.2305
  129OSM    O1413798   0.093   0.567   6.082  0.4568 -0.4117  1.0134
  129OSM    O1113799   0.188   0.605   6.318  0.2816  0.0135  0.2145
  129OSM    O1213800   0.333   0.623   6.112 -0.1641 -0.0182 -0.2303
  129OSM    C1S13801   0.076   0.624   6.394  0.2511  0.6287 -0.7088
  129OSM    H1S13802   0.020   0.528   6.394  2.5585 -0.7952  0.2053
  129OSM    H1T13803   0.019   0.716   6.370  0.3229  0.7264 -0.5083
  129OSM     NF13804  -0.000   0.618   6.632  0.1910  0.0338 -0.0862
  129OSM    HNF13805  -0.041   0.698   6.674 -1.7101 -0.2438 -1.2863
  129OSM    C2S13806   0.118   0.641   6.543 -0.6082 -0.6972 -0.4172
  129OSM    H2S13807   0.204   0.575   6.567  0.1647  0.9255  1.5605
  129OSM    C3S13808   0.172   0.793   6.569  0.9410  0.1745 -0.2959
  129OSM    H3S13809   0.081   0.856   6.555  0.4544 -0.5010 -0.1961
  129OSM     O313810   0.269   0.846   6.470  0.7621  0.1130  0.1228
  129OSM    HO313811   0.252   0.784   6.398  0.2137  0.6144 -0.1940
  129OSM    C4S13812   0.203   0.803   6.714  0.1555 -0.2783 -0.3222
  129OSM    H4S13813   0.129   0.860   6.772 -0.6833 -1.6250 -0.0218
  129OSM    C5S13814   0.316   0.770   6.776  0.5896  0.6485 -0.4888
  129OSM    H5S13815   0.379   0.711   6.707 -2.6080 -2.1298 -1.3231
  129OSM    C6S13816   0.348   0.775   6.924  0.0432 -0.5569  0.2311
  129OSM    H6S13817   0.448   0.819   6.944 -1.1343  1.7208  1.4882
  129OSM    H6T13818   0.350   0.669   6.959  1.8709 -0.1110  1.6155
  129OSM    C7S13819   0.255   0.863   7.007 -0.2643  0.3547  0.3155
  129OSM    H7S13820   0.148   0.861   6.979 -0.2913  1.0181  0.3550
  129OSM    H7T13821   0.284   0.970   6.998 -1.3228  0.5579 -0.8663
  129OSM    C8S13822   0.246   0.805   7.153  0.7534  0.0649 -0.6465
  129OSM    H8S13823   0.346   0.772   7.188 -0.3543 -2.9507 -0.0623
  129OSM    H8T13824   0.196   0.706   7.157 -1.5385  1.1551 -0.8519
  129OSM    C9S13825   0.176   0.897   7.253 -0.6558 -0.0581 -0.2772
  129OSM    H9S13826   0.069   0.913   7.228 -0.4522  1.4736 -0.2160
  129OSM    H9T13827   0.229   0.992   7.231  0.4165 -0.4100  0.6988
  129OSM   C10S13828   0.210   0.853   7.395 -0.0006 -0.4699 -0.7644
  129OSM   H10S13829   0.320   0.848   7.410 -0.1427 -3.2730 -0.1075
  129OSM   H10T13830   0.182   0.746   7.399  0.3829 -0.5284  0.7473
  129OSM   C11S13831   0.133   0.933   7.498  0.9603 -0.4465  0.5834
  129OSM   H11S13832   0.025   0.910   7.504  1.4165 -2.2903  3.2706
  129OSM   H11T13833   0.155   1.037   7.463  2.5050 -0.6542  0.8712
  129OSM   C12S13834   0.194   0.911   7.634 -0.3937 -0.1886  0.2919
  129OSM   H12S13835   0.280   0.981   7.633  0.1251 -0.6241 -3.5240
  129OSM   H12T13836   0.250   0.817   7.653  1.9335  1.1256  0.2659
  129OSM   C13S13837   0.100   0.927   7.761 -0.7424  0.7064 -0.4951
  129OSM   H13S13838   0.017   0.858   7.735 -1.1640  1.3578 -0.9105
  129OSM   H13T13839   0.054   1.028   7.760 -3.5128 -0.4743 -0.9073
  129OSM   C14S13840   0.153   0.887   7.902  0.5183  0.1080  0.2400
  129OSM   H14S13841   0.242   0.951   7.922 -0.5599  1.4512  0.8347
  129OSM   H14T13842   0.201   0.787   7.887  0.6973  0.1453  0.5591
  129OSM   C15S13843   0.042   0.886   8.004  0.1025 -0.3746 -0.8492
  129OSM   H15S13844  -0.032   0.806   7.983 -1.7971  1.0612  0.1238
  129OSM   H15T13845  -0.027   0.971   7.991 -2.4512 -1.9810  1.2083
  129OSM   C16S13846   0.096   0.868   8.147  0.1177 -0.6243  0.0129
  129OSM   H16S13847   0.168   0.951   8.165  2.9577 -3.1204  1.0839
  129OSM   H16T13848   0.154   0.773   8.153 -0.5788 -1.2085 -1.7894
  129OSM   C17S13849  -0.017   0.861   8.261 -0.6043  0.0963  0.2503
  129OSM   H17S13850  -0.114   0.907   8.231 -0.3362  0.7922  0.4113
  129OSM   H17T13851   0.023   0.918   8.348  1.5029  0.0109 -0.5914
  129OSM   C18S13852  -0.041   0.719   8.306 -0.1269 -0.1688 -0.3306
  129OSM   H18S13853  -0.121   0.696   8.380 -1.3543  1.9588 -0.9289
  129OSM   H18T13854   0.060   0.696   8.347  0.3533  3.4147  0.8203
  129OSM   H18U13855  -0.059   0.651   8.220 -1.5078 -0.6745  0.3298
  129OSM    C1F13856  -0.041   0.496   6.667 -0.1652  0.3480 -0.0762
  129OSM     OF13857   0.013   0.404   6.613 -0.1288  0.2131  0.1632
  129OSM    C2F13858  -0.141   0.463   6.770  0.2724  0.2608 -0.1328
  129OSM    H2F13859  -0.102   0.367   6.810 -0.8142 -0.0895  0.1154
  129OSM    H2G13860  -0.235   0.448   6.713  0.3223 -1.3933  0.1734
  129OSM    C3F13861  -0.146   0.578   6.873  0.3868 -0.1266  0.3294
  129OSM    H3F13862  -0.236   0.579   6.938 -1.2144 -1.6225 -1.7295
  129OSM    H3G13863  -0.166   0.674   6.821 -0.9580 -0.4409  0.2370
  129OSM    C4F13864  -0.023   0.606   6.961 -0.1731  0.0001 -0.8579
  129OSM    H4F13865  -0.025   0.711   6.998  0.0957  0.3378 -1.7833
  129OSM    H4G13866   0.072   0.601   6.904  0.3630 -0.2012  0.0283
  129OSM    C5F13867  -0.018   0.516   7.090 -0.1047  0.4410 -0.3107
  129OSM    H5F13868   0.093   0.505   7.098 -0.2219 -0.8169 -0.1834
  129OSM    H5G13869  -0.055   0.415   7.062 -1.1381  0.7858 -0.2400
  129OSM    C6F13870  -0.078   0.562   7.219  0.7797 -0.5264 -0.2740
  129OSM    H6F13871  -0.140   0.653   7.208  1.7239  0.4814  2.0313
  129OSM    H6G13872  -0.005   0.605   7.290  1.5343  0.7291 -1.7756
  129OSM    C7F13873  -0.155   0.455   7.293  0.0242  0.6833 -0.2095
  129OSM    H7F13874  -0.088   0.368   7.310  0.3823  1.3708  2.2679
  129OSM    H7G13875  -0.236   0.416   7.227  1.2058 -0.8172 -0.8378
  129OSM    C8F13876  -0.194   0.499   7.440  0.4555  0.3566 -0.5504
  129OSM    H8F13877  -0.252   0.422   7.495 -1.4231  1.7578 -0.4738
  129OSM    H8G13878  -0.268   0.581   7.431  0.4893  0.2689 -1.7992
  129OSM    C9F13879  -0.084   0.545   7.527  0.1705  0.0147 -0.4142
  129OSM    H9F13880  -0.056   0.648   7.502  1.2520 -0.0142  0.6203
  129OSM   C10F13881  -0.019   0.483   7.628 -0.3600 -0.3621 -0.2214
  129OSM   H10F13882   0.064   0.541   7.670 -1.5891  0.4681  1.1830
  129OSM   C11F13883  -0.052   0.350   7.692 -0.4829  0.0260 -0.4807
  129OSM   H11F13884   0.038   0.292   7.721 -0.4675  0.7379  0.9651
  129OSM   H11G13885  -0.102   0.292   7.611 -1.8568 -1.3791  1.3160
  129OSM   C12F13886  -0.147   0.352   7.810  0.9795 -0.2713 -0.2935
  129OSM   H12F13887  -0.144   0.248   7.851  2.8983 -0.0387  0.2462
  129OSM   H12G13888  -0.252   0.376   7.783  0.6793 -1.3218 -0.1472
  129OSM   C13F13889  -0.099   0.441   7.924 -0.7809 -0.5403 -0.5977
  129OSM   H13F13890  -0.177   0.439   8.003  1.1584  0.5961  1.4911
  129OSM   H13G13891  -0.073   0.545   7.893  1.5434 -1.3477 -1.5404
  129OSM   C14F13892   0.042   0.399   7.985  0.1868  0.1989 -0.6395
  129OSM   H14F13893   0.092   0.485   8.037 -2.1118  1.6958 -0.7645
  129OSM   H14G13894   0.108   0.378   7.898  1.5150 -2.3817  0.8758
  129OSM   C15F13895   0.022   0.278   8.077 -0.8792  0.1368 -0.6159
  129OSM   H15F13896   0.023   0.190   8.009 -1.2820 -0.1232 -0.2947
  129OSM   H15G13897  -0.072   0.286   8.136 -0.0221 -0.3956  0.8608
  129OSM   C16F13898   0.133   0.272   8.189  0.1239 -1.1108  0.5808
  129OSM   H16F13899   0.116   0.364   8.248  1.7320 -0.3487 -0.0582
  129OSM   H16G13900   0.237   0.280   8.150  0.6109 -6.0275  0.2779
  129OSM   C17F13901   0.136   0.138   8.284 -0.0175  0.0618 -0.3222
  129OSM   H17F13902   0.219   0.160   8.354 -1.0384  1.1787  0.5774
  129OSM   H17G13903   0.164   0.053   8.217 -2.0112  0.3342 -1.5717
  129OSM   C18F13904   0.010   0.118   8.367  0.2217 -0.1736  0.4446
  129OSM   H18F13905  -0.019   0.214   8.414  0.1567 -0.4174  0.9116
  129OSM   H18G13906   0.015   0.042   8.448 -1.4327 -0.2885  0.4859
  129OSM   H18H13907  -0.074   0.078   8.305  0.4060 -0.4315  0.3602
  130OSM      N13908   0.795   3.756   6.175 -0.5103  0.5751  1.1389
  130OSM    C1513909   0.917   3.846   6.170  0.3552  0.2444 -0.8792
  130OSM   H15A13910   0.961   3.880   6.077 -0.6882 -0.3895 -1.6282
  130OSM   H15B13911   0.993   3.813   6.239 -1.3240  1.7740  1.9019
  130OSM   H15C13912   0.890   3.944   6.206  2.0567  0.2314  0.5506
  130OSM    C1413913   0.705   3.791   6.059 -0.3286 -0.2448 -0.8747
  130OSM   H14A13914   0.750   3.770   5.963 -0.3107 -0.5762 -0.7952
  130OSM   H14B13915   0.681   3.896   6.065 -2.9346 -0.7838 -0.6943
  130OSM   H14C13916   0.616   3.731   6.060 -1.2463  1.0676  0.1799
  130OSM    C1313917   0.844   3.621   6.154  0.0795  0.0290 -0.7443
  130OSM   H13A13918   0.865   3.598   6.050  1.1355 -1.0533 -0.3064
  130OSM   H13B13919   0.769   3.549   6.186 -0.0642  0.9517  1.0706
  130OSM   H13C13920   0.928   3.594   6.216  0.3534 -3.1059 -2.2782
  130OSM    C1213921   0.734   3.784   6.310 -0.2872 -0.3935  0.3583
  130OSM   H12A13922   0.799   3.743   6.385 -0.3864  1.8345  1.7759
  130OSM   H12B13923   0.641   3.729   6.309 -0.0710 -0.7711 -0.7849
  130OSM    C1113924   0.711   3.932   6.358  0.1437 -0.5171 -1.3184
  130OSM   H11A13925   0.801   3.974   6.409 -1.0761 -1.0890  1.5138
  130OSM   H11B13926   0.633   3.921   6.436  1.3517  0.8629  0.1604
  130OSM      P13927   0.727   4.160   6.233  0.0037 -0.5773 -0.0208
  130OSM    O1313928   0.874   4.147   6.213  0.3252  0.6220 -0.4385
  130OSM    O1413929   0.663   4.237   6.124 -0.0203  0.6033 -0.0849
  130OSM    O1113930   0.697   4.232   6.374  0.0081 -0.2520  0.6418
  130OSM    O1213931   0.667   4.017   6.255  0.0792 -0.1430 -0.0676
  130OSM    C1S13932   0.559   4.268   6.396  0.2787  0.3372 -0.2226
  130OSM    H1S13933   0.492   4.180   6.390  1.0354 -0.1857 -1.8255
  130OSM    H1T13934   0.529   4.347   6.323 -0.1791  0.7002  0.3461
  130OSM     NF13935   0.405   4.341   6.580  0.5410 -0.5667 -0.7266
  130OSM    HNF13936   0.381   4.437   6.597  0.8560 -0.0284 -3.0368
  130OSM    C2S13937   0.544   4.323   6.542  1.0986  0.0548 -0.4722
  130OSM    H2S13938   0.592   4.250   6.611  0.7267 -0.3901 -0.6732
  130OSM    C3S13939   0.623   4.453   6.556 -0.4618 -0.4869 -0.2296
  130OSM    H3S13940   0.575   4.533   6.496  3.4168  0.7223 -2.0798
  130OSM     O313941   0.760   4.451   6.509  0.3220 -0.2743 -0.2560
  130OSM    HO313942   0.749   4.363   6.472  1.1265 -0.4891  0.0161
  130OSM    C4S13943   0.619   4.501   6.700 -0.3990 -0.3839 -0.3689
  130OSM    H4S13944   0.672   4.440   6.774  1.5356  0.4534 -0.9924
  130OSM    C5S13945   0.569   4.617   6.741  0.1845 -0.2373  0.4271
  130OSM    H5S13946   0.514   4.686   6.674  1.1801  0.4839  0.3347
  130OSM    C6S13947   0.568   4.656   6.890  0.1018  0.9811  0.0755
  130OSM    H6S13948   0.463   4.665   6.924  0.0057  0.0493  0.0412
  130OSM    H6T13949   0.611   4.759   6.898  1.1692  0.4939  0.9257
  130OSM    C7S13950   0.651   4.570   6.981 -0.5382 -0.5172  0.2750
  130OSM    H7S13951   0.751   4.561   6.933 -1.4171 -0.6943 -1.6259
  130OSM    H7T13952   0.605   4.469   6.980  0.9790 -1.2445  0.5378
  130OSM    C8S13953   0.665   4.634   7.121 -0.3849 -0.0886 -0.3144
  130OSM    H8S13954   0.691   4.560   7.200 -1.9238  0.1865  0.4841
  130OSM    H8T13955   0.561   4.664   7.145 -0.9076 -2.4417  0.6412
  130OSM    C9S13956   0.771   4.746   7.140  0.2300  0.5033 -0.1139
  130OSM    H9S13957   0.738   4.830   7.076 -0.5403  1.0340  0.9546
  130OSM    H9T13958   0.870   4.708   7.108 -0.9386 -2.6110 -0.4050
  130OSM   C10S13959   0.784   4.806   7.276  0.5782  0.0640 -0.3812
  130OSM   H10S13960   0.793   4.726   7.353  1.8217 -0.8955 -1.4686
  130OSM   H10T13961   0.701   4.876   7.299  0.0172 -0.0608 -1.9518
  130OSM   C11S13962   0.915   4.889   7.272  0.2820  0.5105  0.5401
  130OSM   H11S13963   0.915   4.960   7.187  1.1648 -0.2599 -0.1282
  130OSM   H11T13964   1.002   4.821   7.260  0.0382  0.2765  0.0611
  130OSM   C12S13965   0.923   4.966   7.394  0.5339 -0.4926 -0.1665
  130OSM   H12S13966   0.843   5.043   7.404  1.0169  0.1805 -1.3204
  130OSM   H12T13967   1.022   5.012   7.415  1.2762 -2.6131  1.2578
  130OSM   C13S13968   0.906   4.890   7.533  1.0386  0.1451 -0.4527
  130OSM   H13S13969   0.973   4.803   7.517  1.2872  0.1159  0.6735
  130OSM   H13T13970   0.802   4.850   7.542 -0.5642  3.6235 -1.6323
  130OSM   C14S13971   0.947   4.961   7.661 -0.7195 -0.7045  0.2176
  130OSM   H14S13972   0.890   5.051   7.690 -0.1418 -0.0584 -0.6146
  130OSM   H14T13973   1.056   4.982   7.665 -1.2818  2.9957 -0.7003
  130OSM   C15S13974   0.934   4.878   7.795  0.2939 -0.2269  0.0155
  130OSM   H15S13975   0.993   4.785   7.791  1.3719  0.4259  0.2892
  130OSM   H15T13976   0.829   4.851   7.820  0.3351 -1.9382 -1.5063
  130OSM   C16S13977   0.973   4.962   7.919 -0.0053 -0.9348 -0.2912
  130OSM   H16S13978   0.905   5.047   7.945 -0.2562 -0.7181 -1.5776
  130OSM   H16T13979   1.075   4.995   7.892 -0.6537  0.8318 -0.7304
  130OSM   C17S13980   0.987   4.875   8.047 -0.4541  0.4984 -0.0876
  130OSM   H17S13981   1.062   4.796   8.027  2.1352  2.8174 -0.1389
  130OSM   H17T13982   0.887   4.832   8.068  1.0461 -2.2611  2.0731
  130OSM   C18S13983   1.030   4.947   8.169 -1.6400 -0.2450 -0.0941
  130OSM   H18S13984   0.952   5.013   8.212  0.8896  2.8485  0.1517
  130OSM   H18T13985   1.111   5.020   8.149 -0.0209 -1.8700  0.1962
  130OSM   H18U13986   1.070   4.881   8.250 -2.3966 -1.1495 -0.4342
  130OSM    C1F13987   0.320   4.244   6.605  0.0716 -0.2813  0.3208
  130OSM     OF13988   0.350   4.129   6.571 -0.0333  0.2167  0.2879
  130OSM    C2F13989   0.193   4.282   6.680 -0.1210  0.2198 -0.1059
  130OSM    H2F13990   0.116   4.225   6.624 -0.6687  0.4988  0.3616
  130OSM    H2G13991   0.167   4.390   6.672 -1.6209 -0.1156 -0.0285
  130OSM    C3F13992   0.201   4.244   6.824 -0.2371  0.1558  0.0779
  130OSM    H3F13993   0.244   4.143   6.842 -2.0557 -0.7267 -0.2776
  130OSM    H3G13994   0.097   4.247   6.863 -0.4059 -0.7545 -0.2633
  130OSM    C4F13995   0.287   4.348   6.913  0.2418 -0.1199  0.0393
  130OSM    H4F13996   0.272   4.454   6.885  0.5224 -0.2414 -0.5924
  130OSM    H4G13997   0.392   4.329   6.881  0.5008  0.7520  0.3598
  130OSM    C5F13998   0.264   4.328   7.064 -0.1120 -0.3840 -0.0137
  130OSM    H5F13999   0.299   4.230   7.104  1.6963  0.4305  0.5161
  130OSM    H5G14000   0.156   4.331   7.089  0.1649 -0.3026  1.2045
  130OSM    C6F14001   0.330   4.435   7.150  0.9417  0.2415 -0.3170
  130OSM    H6F14002   0.331   4.534   7.100  2.8161 -0.5157 -1.8931
  130OSM    H6G14003   0.438   4.409   7.164  0.7188 -0.4050  0.2990
  130OSM    C7F14004   0.266   4.455   7.291 -0.4893 -0.5715  0.2613
  130OSM    H7F14005   0.239   4.353   7.324 -0.8568 -0.4835  0.2380
  130OSM    H7G14006   0.170   4.512   7.292  2.1663  4.5111  2.3342
  130OSM    C8F14007   0.367   4.499   7.400 -0.3883 -0.7218 -0.1788
  130OSM    H8F14008   0.454   4.430   7.390 -2.0448 -3.1056  1.0262
  130OSM    H8G14009   0.320   4.487   7.500  0.5408  0.3552  0.4099
  130OSM    C9F14010   0.391   4.646   7.384  0.9671 -0.1013 -0.1167
  130OSM    H9F14011   0.359   4.689   7.288 -0.6317 -0.7135  0.1247
  130OSM   C10F14012   0.447   4.723   7.472 -0.0322  0.0054  0.2260
  130OSM   H10F14013   0.473   4.821   7.427  0.0840 -1.4714 -3.2932
  130OSM   C11F14014   0.498   4.670   7.599  0.1424 -0.1763  0.4398
  130OSM   H11F14015   0.579   4.604   7.562 -0.5598 -0.3460 -0.8649
  130OSM   H11G14016   0.413   4.620   7.648 -0.7718  1.5234  0.6800
  130OSM   C12F14017   0.540   4.773   7.704 -0.5695  0.6460  0.7353
  130OSM   H12F14018   0.460   4.848   7.726 -1.3213  0.5050 -1.3305
  130OSM   H12G14019   0.622   4.834   7.660 -0.5307  1.1327  1.4453
  130OSM   C13F14020   0.588   4.712   7.839  0.4563 -0.0081  0.2615
  130OSM   H13F14021   0.647   4.786   7.896  0.8621 -1.2563  1.5093
  130OSM   H13G14022   0.659   4.630   7.811  4.1147  2.2959  2.0331
  130OSM   C14F14023   0.475   4.647   7.923  0.5956 -0.0973  0.1216
  130OSM   H14F14024   0.433   4.560   7.868 -0.8662 -0.6913  2.0143
  130OSM   H14G14025   0.403   4.732   7.927  2.1047  1.3282 -1.6103
  130OSM   C15F14026   0.512   4.599   8.060  0.1738 -0.8434  0.1028
  130OSM   H15F14027   0.574   4.686   8.092 -0.7253  0.2340 -0.9886
  130OSM   H15G14028   0.568   4.504   8.048 -1.0484 -1.4992 -0.6261
  130OSM   C16F14029   0.390   4.571   8.149  0.5635  0.1602  0.2145
  130OSM   H16F14030   0.343   4.480   8.106 -1.8236  1.5045 -0.2084
  130OSM   H16G14031   0.313   4.650   8.139  1.2085  0.5264 -2.8646
  130OSM   C17F14032   0.433   4.536   8.298  0.5763  0.1143 -0.0836
  130OSM   H17F14033   0.503   4.450   8.285  0.7902  0.2048  0.4518
  130OSM   H17G14034   0.338   4.500   8.341 -0.6586  1.8092 -1.2671
  130OSM   C18F14035   0.502   4.645   8.372  0.5730  0.5617 -0.2637
  130OSM   H18F14036   0.604   4.661   8.330  0.2797  1.4820 -0.6496
  130OSM   H18G14037   0.507   4.620   8.480  0.7964  1.8932  0.0510
  130OSM   H18H14038   0.446   4.740   8.366  0.9258  0.7247 -1.0794
  131OSM      N14039   6.280   3.524   6.081 -0.7385 -0.4907  0.0478
  131OSM    C1514040   6.385   3.628   6.074 -0.5402  0.0353  0.1749
  131OSM   H15A14041   6.411   3.657   6.174  0.8064 -1.2400  0.2170
  131OSM   H15B14042   6.354   3.723   6.032 -0.6331  0.1601  0.5214
  131OSM   H15C14043   6.473   3.588   6.026 -1.3958 -3.0063  0.9179
  131OSM    C1414044   6.153   3.589   6.143 -0.4135  0.7278 -0.1154
  131OSM   H14A14045   6.154   3.591   6.251  0.3118  0.9171 -0.1199
  131OSM   H14B14046   6.064   3.537   6.111 -2.2077  1.6936  2.9110
  131OSM   H14C14047   6.139   3.690   6.108 -0.9994  0.7973  0.3139
  131OSM    C1314048   6.250   3.496   5.934  0.0533  1.4324 -0.1533
  131OSM   H13A14049   6.220   3.587   5.885 -0.7547  1.3997  0.2686
  131OSM   H13B14050   6.162   3.434   5.925  1.3825 -0.6507  0.4007
  131OSM   H13C14051   6.327   3.454   5.871 -0.2138  1.1206 -0.2776
  131OSM    C1214052   6.329   3.412   6.159  0.4496 -0.1761  0.4878
  131OSM   H12A14053   6.252   3.337   6.165 -0.9524  1.3389  2.8373
  131OSM   H12B14054   6.345   3.440   6.262 -1.1444 -0.3879  0.8149
  131OSM    C1114055   6.459   3.345   6.097 -0.3293  0.5135 -0.0810
  131OSM   H11A14056   6.462   3.369   5.989  3.7835  2.4662  0.2534
  131OSM   H11B14057   6.463   3.236   6.116 -3.9679  0.3108  0.2290
  131OSM      P14058   6.691   3.344   6.220 -0.0181 -0.0080  0.3224
  131OSM    O1314059   6.689   3.200   6.184 -0.3243 -0.0818 -0.0277
  131OSM    O1414060   6.810   3.415   6.191 -0.1214 -0.7570  0.0249
  131OSM    O1114061   6.672   3.356   6.372  0.1238 -0.4646 -0.4302
  131OSM    O1214062   6.566   3.416   6.166  0.7071  0.0105  0.2420
  131OSM    C1S14063   6.546   3.360   6.447 -0.5550  0.0003 -0.7613
  131OSM    H1S14064   6.469   3.296   6.399 -3.5785  2.6007  0.2772
  131OSM    H1T14065   6.512   3.465   6.461  0.1842  0.0873  0.5413
  131OSM     NF14066   6.445   3.271   6.656  0.5074 -0.1629 -0.0306
  131OSM    HNF14067   6.406   3.330   6.726 -1.8161 -3.7245  1.9886
  131OSM    C2S14068   6.572   3.298   6.592  0.7893 -0.0558 -0.2865
  131OSM    H2S14069   6.621   3.200   6.576 -1.6697 -1.4428  0.2820
  131OSM    C3S14070   6.663   3.393   6.678 -0.1319  0.4413 -0.5509
  131OSM    H3S14071   6.608   3.482   6.715 -1.1241 -0.4284  0.1059
  131OSM     O314072   6.768   3.451   6.601 -0.3522 -0.1267  0.3346
  131OSM    HO314073   6.752   3.424   6.510  0.0797 -1.6254  0.6677
  131OSM    C4S14074   6.719   3.313   6.797  0.8095 -0.7857  0.0705
  131OSM    H4S14075   6.651   3.315   6.884  0.1979  1.6134 -0.3969
  131OSM    C5S14076   6.836   3.250   6.808 -0.8046 -0.2219 -0.6382
  131OSM    H5S14077   6.911   3.251   6.728 -0.0597  2.2953  0.0219
  131OSM    C6S14078   6.875   3.195   6.948  0.1375 -0.5998  0.2874
  131OSM    H6S14079   6.986   3.203   6.952  0.0276  0.5426  2.2458
  131OSM    H6T14080   6.861   3.087   6.930  1.6054 -1.0375  1.5226
  131OSM    C7S14081   6.815   3.241   7.083 -0.7028  0.5298  0.3115
  131OSM    H7S14082   6.705   3.225   7.088 -0.6649  0.5993  1.6296
  131OSM    H7T14083   6.822   3.351   7.093  2.4863  0.6120 -1.4483
  131OSM    C8S14084   6.882   3.186   7.209 -0.0649 -0.0610 -0.1497
  131OSM    H8S14085   6.991   3.207   7.211 -0.3801  1.6615  0.9660
  131OSM    H8T14086   6.877   3.076   7.226  2.6911 -0.1797  0.2070
  131OSM    C9S14087   6.827   3.247   7.335 -0.6095 -0.5121 -0.0216
  131OSM    H9S14088   6.717   3.236   7.349 -0.5322 -0.9468  0.2712
  131OSM    H9T14089   6.833   3.356   7.317 -1.1004 -0.2916  1.0717
  131OSM   C10S14090   6.908   3.202   7.459 -0.1398 -0.4044  0.2562
  131OSM   H10S14091   7.014   3.230   7.443  0.0370 -1.7211 -1.0684
  131OSM   H10T14092   6.908   3.091   7.451 -0.5925 -0.2866 -2.1837
  131OSM   C11S14093   6.863   3.271   7.595  0.2969  0.2700 -0.1630
  131OSM   H11S14094   6.761   3.231   7.612  0.5712 -0.8810 -1.1169
  131OSM   H11T14095   6.859   3.381   7.583 -1.9821  0.2648  0.1049
  131OSM   C12S14096   6.952   3.236   7.715 -0.3205  0.0244 -0.6155
  131OSM   H12S14097   7.046   3.295   7.708 -1.2689  1.7081  0.2105
  131OSM   H12T14098   6.978   3.128   7.717  1.2787  0.3862  0.0601
  131OSM   C13S14099   6.886   3.278   7.855 -0.5759  0.0806 -0.0055
  131OSM   H13S14100   6.943   3.211   7.923 -0.4107 -0.4218 -0.6251
  131OSM   H13T14101   6.781   3.242   7.853 -0.4229 -0.6181 -4.2248
  131OSM   C14S14102   6.913   3.420   7.917 -0.4099 -0.3975 -0.7097
  131OSM   H14S14103   6.871   3.497   7.848 -0.9470 -1.7617 -1.9602
  131OSM   H14T14104   7.023   3.432   7.922 -0.5052  0.0545  0.5933
  131OSM   C15S14105   6.848   3.450   8.053  0.4511 -0.9860  0.1892
  131OSM   H15S14106   6.742   3.416   8.046  0.3776 -0.7285 -0.0010
  131OSM   H15T14107   6.844   3.561   8.062  1.3563 -0.8379 -1.0628
  131OSM   C16S14108   6.909   3.382   8.178  1.1384 -0.0130 -0.3547
  131OSM   H16S14109   7.017   3.410   8.186  1.2351 -0.4437 -0.0960
  131OSM   H16T14110   6.914   3.272   8.167  2.0662  0.2194 -2.7699
  131OSM   C17S14111   6.848   3.423   8.314  0.5039 -0.1492 -0.4484
  131OSM   H17S14112   6.744   3.382   8.316  0.9122 -1.2178  1.0336
  131OSM   H17T14113   6.847   3.533   8.327 -0.2133  0.0503 -1.9495
  131OSM   C18S14114   6.903   3.352   8.438  0.3481 -0.3491  0.1655
  131OSM   H18S14115   6.886   3.244   8.416  0.4337 -0.0165 -1.7771
  131OSM   H18T14116   6.850   3.380   8.531  2.2326 -0.8493  1.4392
  131OSM   H18U14117   7.009   3.380   8.455 -0.5498  2.5919  1.5687
  131OSM    C1F14118   6.381   3.158   6.613  0.5010 -0.3429 -0.6771
  131OSM     OF14119   6.420   3.088   6.516 -0.2307  0.2190  0.4597
  131OSM    C2F14120   6.261   3.121   6.698  0.3413 -0.0666 -0.0479
  131OSM    H2F14121   6.188   3.067   6.634  0.0018 -0.2284  0.4677
  131OSM    H2G14122   6.209   3.211   6.738  0.4073  0.0896 -0.3122
  131OSM    C3F14123   6.303   3.038   6.818  0.9283 -0.0645 -0.4896
  131OSM    H3F14124   6.378   3.099   6.874  2.0994 -2.0720  0.2306
  131OSM    H3G14125   6.351   2.946   6.778  3.3640  1.5291 -1.4486
  131OSM    C4F14126   6.180   3.016   6.911  0.1498 -0.2167  0.4816
  131OSM    H4F14127   6.102   2.965   6.851 -0.0199  1.3369 -0.6749
  131OSM    H4G14128   6.127   3.109   6.936 -3.2717 -2.2831  1.5248
  131OSM    C5F14129   6.214   2.951   7.048  0.0248 -0.3022  0.1050
  131OSM    H5F14130   6.315   2.984   7.081  0.3562 -0.1867 -0.9986
  131OSM    H5G14131   6.229   2.842   7.033  1.0834 -0.4603  1.9919
  131OSM    C6F14132   6.107   2.984   7.153 -0.9302  0.4531  0.1663
  131OSM    H6F14133   6.021   2.918   7.128 -0.0706 -0.6146 -0.0329
  131OSM    H6G14134   6.068   3.087   7.135 -1.1279  0.3802  0.1681
  131OSM    C7F14135   6.162   2.957   7.293  0.1025  0.0117 -0.7328
  131OSM    H7F14136   6.221   3.042   7.334 -1.1895 -0.2863  1.9274
  131OSM    H7G14137   6.228   2.867   7.288  0.9776  0.7112 -2.6711
  131OSM    C8F14138   6.052   2.922   7.408  0.0854  0.1243  0.4534
  131OSM    H8F14139   6.103   2.890   7.502  0.6017 -0.3810  0.0117
  131OSM    H8G14140   5.988   2.834   7.386  0.3758  0.0682 -0.2001
  131OSM    C9F14141   5.957   3.034   7.423  0.0287  0.3858 -0.4725
  131OSM    H9F14142   5.871   3.032   7.355 -0.2309  1.6072 -0.1940
  131OSM   C10F14143   5.962   3.118   7.527 -0.2128 -0.1577 -0.4355
  131OSM   H10F14144   5.878   3.187   7.544 -1.6214 -2.1318  1.0721
  131OSM   C11F14145   6.075   3.111   7.635  0.3409 -0.1007  0.5016
  131OSM   H11F14146   6.089   3.216   7.667  0.1457 -0.0207  0.3234
  131OSM   H11G14147   6.174   3.081   7.593  1.8924  0.7404  3.2688
  131OSM   C12F14148   6.042   3.032   7.766  0.8481  1.2757  0.5410
  131OSM   H12F14149   6.121   2.954   7.766 -0.2703  0.1089  1.5961
  131OSM   H12G14150   5.942   2.993   7.739  1.6359  0.8456 -2.0601
  131OSM   C13F14151   6.037   3.113   7.890 -0.4176  0.7573  0.0811
  131OSM   H13F14152   5.952   3.184   7.901  1.0525  2.4127  1.3889
  131OSM   H13G14153   6.127   3.177   7.901  0.7726 -1.1156  1.9832
  131OSM   C14F14154   6.039   3.022   8.020  0.8054 -0.5523 -0.0360
  131OSM   H14F14155   6.081   2.924   7.988 -0.2884 -1.3257  0.8290
  131OSM   H14G14156   5.932   3.004   8.046  0.2771  0.4804 -1.3464
  131OSM   C15F14157   6.114   3.082   8.137  0.2847  0.0593  0.3487
  131OSM   H15F14158   6.219   3.101   8.109  1.5272 -2.9400  2.4229
  131OSM   H15G14159   6.120   3.014   8.225  0.8644  1.7599  1.6735
  131OSM   C16F14160   6.061   3.218   8.186  0.3865  0.1718  0.5902
  131OSM   H16F14161   5.951   3.234   8.187  0.4570  1.5405 -2.3706
  131OSM   H16G14162   6.109   3.292   8.118  1.0279 -0.0832  0.7556
  131OSM   C17F14163   6.121   3.256   8.323 -0.4607 -0.0297 -0.3170
  131OSM   H17F14164   6.090   3.183   8.401 -0.6454  0.7911  0.3946
  131OSM   H17G14165   6.077   3.353   8.355 -2.6983 -1.1528  0.2115
  131OSM   C18F14166   6.270   3.279   8.315  0.0719 -0.5553 -0.2173
  131OSM   H18F14167   6.325   3.183   8.319  1.8434  0.4303  0.0603
  131OSM   H18G14168   6.303   3.345   8.398 -1.1981 -1.8850  1.4179
  131OSM   H18H14169   6.288   3.327   8.216 -2.5756 -0.4475 -0.7106
  132OSM      N14170   2.136   0.085   6.257 -0.5759  0.6828  0.8379
  132OSM    C1514171   2.169  -0.011   6.368  0.2224  0.3419 -0.2562
  132OSM   H15A14172   2.269   0.011   6.403  0.3119  1.4784 -1.1748
  132OSM   H15B14173   2.181  -0.113   6.333 -1.5070 -0.2254  0.6867
  132OSM   H15C14174   2.104  -0.002   6.453 -0.6830  1.1117 -1.0202
  132OSM    C1414175   2.252   0.096   6.163  0.1320  0.5761  0.6845
  132OSM   H14A14176   2.329   0.151   6.215  0.3162 -0.0259  1.0613
  132OSM   H14B14177   2.224   0.145   6.071 -2.9575  0.0579  1.2388
  132OSM   H14C14178   2.291  -0.004   6.149 -0.9029  0.2219  0.2561
  132OSM    C1314179   2.016   0.037   6.181  0.6187 -0.3017  0.0133
  132OSM   H13A14180   1.927   0.025   6.242  0.1845  0.8981 -0.3496
  132OSM   H13B14181   2.036  -0.060   6.139  1.6821 -0.2609  0.3928
  132OSM   H13C14182   1.991   0.104   6.100  1.0923 -1.4584 -1.1124
  132OSM    C1214183   2.103   0.220   6.316  0.8336  0.0769 -0.9961
  132OSM   H12A14184   2.008   0.214   6.367  1.0713 -1.4523 -0.6653
  132OSM   H12B14185   2.087   0.297   6.242 -0.6709  0.4752 -0.2898
  132OSM    C1114186   2.203   0.283   6.414  0.0938  0.6068  0.2625
  132OSM   H11A14187   2.224   0.224   6.506  2.5812 -0.9881 -1.2006
  132OSM   H11B14188   2.155   0.378   6.446 -0.9877  0.0539  0.3087
  132OSM      P14189   2.379   0.442   6.295  0.2878  0.6850 -0.0901
  132OSM    O1314190   2.464   0.424   6.173 -0.1122 -0.6511  0.1134
  132OSM    O1414191   2.259   0.526   6.273  0.3558  0.0712  0.1710
  132OSM    O1114192   2.470   0.499   6.408 -0.4852  0.8368 -0.1890
  132OSM    O1214193   2.326   0.305   6.347  0.3659  0.1854  0.1808
  132OSM    C1S14194   2.438   0.489   6.549 -0.7721 -0.6712 -0.0539
  132OSM    H1S14195   2.355   0.418   6.567 -0.4434 -0.7260  1.3630
  132OSM    H1T14196   2.413   0.591   6.586  2.8079  1.0622 -1.8661
  132OSM     NF14197   2.506   0.419   6.780 -0.1822  0.1281  0.8309
  132OSM    HNF14198   2.548   0.479   6.848 -0.2658  0.7997  0.2968
  132OSM    C2S14199   2.552   0.433   6.637  0.0941 -0.3921 -0.2460
  132OSM    H2S14200   2.570   0.335   6.589 -0.7298 -1.0945  0.8214
  132OSM    C3S14201   2.672   0.532   6.621 -0.2579  0.0071 -0.2147
  132OSM    H3S14202   2.646   0.638   6.635 -1.2565 -0.3230  0.5207
  132OSM     O314203   2.723   0.527   6.488 -0.4710  0.5525  0.6884
  132OSM    HO314204   2.649   0.507   6.429  1.2768 -0.3749 -1.3016
  132OSM    C4S14205   2.782   0.505   6.715 -0.5443 -0.0275  0.3789
  132OSM    H4S14206   2.810   0.588   6.780  0.7367 -0.0890 -0.0619
  132OSM    C5S14207   2.846   0.387   6.730  0.6065  0.0981 -1.1947
  132OSM    H5S14208   2.819   0.305   6.662 -0.9160  1.0457 -1.7662
  132OSM    C6S14209   2.956   0.356   6.827 -0.2533 -0.4157 -0.2347
  132OSM    H6S14210   2.999   0.448   6.874  0.6877 -0.8118 -0.3114
  132OSM    H6T14211   3.039   0.290   6.793  0.2450 -0.0971  0.3345
  132OSM    C7S14212   2.888   0.278   6.946  0.4167 -0.2123  0.5707
  132OSM    H7S14213   2.817   0.198   6.917  0.1146  0.7975 -1.7541
  132OSM    H7T14214   2.830   0.352   7.005  0.4657 -0.8190  1.3919
  132OSM    C8S14215   2.985   0.226   7.050  0.9613  0.7721 -0.2187
  132OSM    H8S14216   3.049   0.150   7.000  2.5229  2.6810 -1.2427
  132OSM    H8T14217   2.936   0.162   7.127  0.3178 -0.5844 -1.6952
  132OSM    C9S14218   3.074   0.332   7.118 -0.0682 -0.1287  0.3992
  132OSM    H9S14219   3.023   0.430   7.131  0.7757  0.0431  3.0471
  132OSM    H9T14220   3.167   0.349   7.059  1.9980 -1.1262  3.1642
  132OSM   C10S14221   3.138   0.295   7.251 -0.1683  0.4541 -0.1066
  132OSM   H10S14222   3.189   0.374   7.310 -1.1268 -1.3640  3.4932
  132OSM   H10T14223   3.216   0.218   7.233 -0.7721 -0.1740 -0.0970
  132OSM   C11S14224   3.043   0.231   7.360 -0.5064 -0.4474  0.4867
  132OSM   H11S14225   3.101   0.223   7.455  0.4928 -1.6153 -0.2001
  132OSM   H11T14226   3.006   0.129   7.337 -0.1044  0.0609 -2.8794
  132OSM   C12S14227   2.925   0.322   7.381  0.7433 -0.4256 -0.6454
  132OSM   H12S14228   2.854   0.319   7.296 -0.4424 -0.2832  0.3010
  132OSM   H12T14229   2.963   0.425   7.396 -0.2345  0.2226 -2.3774
  132OSM   C13S14230   2.841   0.299   7.509  0.2288  0.0130 -0.1383
  132OSM   H13S14231   2.866   0.197   7.545 -4.0184 -1.9288 -2.0010
  132OSM   H13T14232   2.737   0.312   7.473  1.5733  2.7482 -3.6210
  132OSM   C14S14233   2.866   0.403   7.613 -0.0599  0.0748  0.8111
  132OSM   H14S14234   2.862   0.503   7.566  1.3941  1.1161  2.7387
  132OSM   H14T14235   2.972   0.387   7.645  0.7556  2.5309 -0.3741
  132OSM   C15S14236   2.785   0.393   7.741  0.4639 -0.3624 -0.5212
  132OSM   H15S14237   2.829   0.310   7.800  1.1878  0.2262 -0.2134
  132OSM   H15T14238   2.680   0.365   7.721  1.0146 -1.8387 -1.4838
  132OSM   C16S14239   2.786   0.530   7.812  0.4257  0.6919 -0.0053
  132OSM   H16S14240   2.752   0.613   7.747 -1.9058 -0.4796 -0.3616
  132OSM   H16T14241   2.885   0.561   7.853  0.7821  0.3150 -0.5640
  132OSM   C17S14242   2.692   0.517   7.933 -0.5618  0.3124 -0.0023
  132OSM   H17S14243   2.737   0.444   8.005  1.1530  1.6846  0.3842
  132OSM   H17T14244   2.597   0.470   7.902 -1.1748  1.8988 -0.6223
  132OSM   C18S14245   2.661   0.643   8.009  0.1476  0.1661  0.3523
  132OSM   H18S14246   2.590   0.619   8.091  1.6111  0.7925  1.8528
  132OSM   H18T14247   2.604   0.705   7.937  0.9325  0.3772 -0.0975
  132OSM   H18U14248   2.747   0.696   8.054  0.9331 -0.8591  0.1142
  132OSM    C1F14249   2.416   0.323   6.816  0.1341  0.2174 -0.2471
  132OSM     OF14250   2.363   0.255   6.728 -0.2713 -0.3781 -0.5735
  132OSM    C2F14251   2.371   0.326   6.960  0.6245 -0.2406  0.1476
  132OSM    H2F14252   2.262   0.349   6.965  0.9701  1.3146  1.4094
  132OSM    H2G14253   2.414   0.415   7.011 -0.4563 -0.0171  0.7193
  132OSM    C3F14254   2.402   0.189   7.028  0.0889 -0.4628 -0.0295
  132OSM    H3F14255   2.510   0.168   7.017 -0.0996 -1.6715  0.2756
  132OSM    H3G14256   2.349   0.118   6.960 -0.7791  0.5599 -0.4547
  132OSM    C4F14257   2.343   0.177   7.165  0.0372 -0.2488 -0.7116
  132OSM    H4F14258   2.237   0.145   7.171 -0.5323  1.7604  2.0964
  132OSM    H4G14259   2.352   0.277   7.212 -0.1767 -0.7314  0.3800
  132OSM    C5F14260   2.440   0.086   7.247  0.3027  0.3902  0.1931
  132OSM    H5F14261   2.545   0.124   7.245 -0.1818  1.7661 -0.2832
  132OSM    H5G14262   2.448  -0.014   7.199 -1.0328 -0.5896  1.8964
  132OSM    C6F14263   2.409   0.075   7.401 -0.0085  0.4532  0.7572
  132OSM    H6F14264   2.471  -0.010   7.436 -1.8650 -2.0348 -1.5299
  132OSM    H6G14265   2.302   0.047   7.412 -1.1341  3.3221 -1.4135
  132OSM    C7F14266   2.436   0.203   7.480  0.3062  0.1274  0.1143
  132OSM    H7F14267   2.362   0.278   7.443  1.0247  0.4005 -0.8303
  132OSM    H7G14268   2.539   0.238   7.454  1.1954 -3.5552 -2.0297
  132OSM    C8F14269   2.417   0.174   7.622  0.9933 -0.0485 -0.9123
  132OSM    H8F14270   2.324   0.118   7.645  1.1373  0.3772  0.8382
  132OSM    H8G14271   2.410   0.275   7.668 -0.5038 -0.5196 -0.0468
  132OSM    C9F14272   2.532   0.103   7.695 -0.4523  0.1245  0.2944
  132OSM    H9F14273   2.622   0.090   7.633 -0.8984 -0.8449 -0.1672
  132OSM   C10F14274   2.541   0.061   7.821 -0.2824  1.0254 -0.1337
  132OSM   H10F14275   2.633   0.015   7.860 -1.0320  0.3802  0.9434
  132OSM   C11F14276   2.444   0.082   7.933  0.5078 -1.2500  0.1846
  132OSM   H11F14277   2.413  -0.015   7.978  1.5352 -1.0438  1.3919
  132OSM   H11G14278   2.349   0.123   7.891  0.1662 -1.5261  0.6745
  132OSM   C12F14279   2.484   0.189   8.028 -0.0969  0.3929  0.4697
  132OSM   H12F14280   2.498   0.283   7.970  3.1004 -0.1893  0.1266
  132OSM   H12G14281   2.583   0.179   8.077 -0.8931 -1.8077  1.7241
  132OSM   C13F14282   2.377   0.210   8.143 -0.2748  0.0403  0.2834
  132OSM   H13F14283   2.282   0.255   8.106 -0.1318 -0.5022 -0.7965
  132OSM   H13G14284   2.423   0.289   8.206  1.2755  1.4031 -2.3779
  132OSM   C14F14285   2.351   0.081   8.226  0.2341  0.3433  0.0537
  132OSM   H14F14286   2.448   0.056   8.275  0.8914 -0.7360 -1.7124
  132OSM   H14G14287   2.324  -0.006   8.163  1.7594 -0.4762  0.4644
  132OSM   C15F14288   2.237   0.104   8.333  0.3683  0.4262  0.1162
  132OSM   H15F14289   2.142   0.106   8.276 -0.4316  1.3612  1.4355
  132OSM   H15G14290   2.253   0.212   8.356 -1.5910  1.2159 -1.8515
  132OSM   C16F14291   2.250   0.021   8.456 -0.5960 -0.0622 -0.0138
  132OSM   H16F14292   2.350   0.040   8.500 -1.9965  0.2140  3.3675
  132OSM   H16G14293   2.237  -0.083   8.419 -1.0743  0.2616 -0.7951
  132OSM   C17F14294   2.140   0.031   8.556 -0.4144  0.0229 -0.7343
  132OSM   H17F14295   2.094   0.133   8.554 -1.0734 -0.1545  1.8228
  132OSM   H17G14296   2.188   0.017   8.655 -0.5257 -0.6054 -0.7694
  132OSM   C18F14297   2.025  -0.064   8.555  0.1808  0.5401 -0.6477
  132OSM   H18F14298   2.057  -0.167   8.579 -0.2390  0.8947  1.6831
  132OSM   H18G14299   1.978  -0.069   8.455  1.1740 -0.9009 -1.0768
  132OSM   H18H14300   1.958  -0.025   8.634  1.4979 -0.2287  0.9132
  133SAPE     N14301   5.448   4.893  10.783 -0.3985  0.2692  0.0073
  133SAPE   HN114302   5.537   4.918  10.737 -0.1971 -2.1703 -1.0603
  133SAPE   HN214303   5.381   4.941  10.719  3.0783  2.6339 -2.1967
  133SAPE   HN314304   5.441   4.930  10.880 -0.5313  1.1840 -0.3378
  133SAPE   C1214305   5.428   4.741  10.786  0.2522  0.2683 -0.2742
  133SAPE  H12A14306   5.423   4.699  10.683 -1.3983 -1.0539  0.2924
  133SAPE  H12B14307   5.327   4.732  10.832  0.1221  1.5617 -0.2746
  133SAPE   C1114308   5.524   4.661  10.869 -0.5618  0.0788 -0.2809
  133SAPE  H11A14309   5.496   4.680  10.975  0.8150  0.8722 -0.0428
  133SAPE  H11B14310   5.629   4.696  10.865 -1.2242  2.4022  0.7017
  133SAPE     P14311   5.594   4.459  10.729  0.5062  0.4258  0.2683
  133SAPE   O1314312   5.726   4.434  10.794 -0.7745 -0.1482 -0.4206
  133SAPE   O1414313   5.525   4.343  10.664  0.3992  0.6213 -0.1606
  133SAPE   O1214314   5.495   4.527  10.833 -0.0684 -0.5866 -0.3635
  133SAPE   O1114315   5.609   4.568  10.621 -0.4503 -0.5544 -0.0457
  133SAPE    C114316   5.668   4.548  10.498  0.0912 -0.0771  0.0185
  133SAPE    HA14317   5.779   4.549  10.506  0.4296 -1.4239 -3.1565
  133SAPE    HB14318   5.644   4.452  10.448 -0.9821  0.0830  0.2140
  133SAPE    C214319   5.644   4.670  10.405 -0.1204 -0.1912 -0.0528
  133SAPE    HS14320   5.691   4.756  10.457 -1.6960  0.8085 -0.2078
  133SAPE   O2114321   5.503   4.688  10.375 -0.1774  1.1084  0.6953
  133SAPE   C2114322   5.461   4.819  10.376 -0.4583  0.3396 -0.1140
  133SAPE   O2214323   5.525   4.913  10.415 -0.7742 -0.1219 -0.4297
  133SAPE   C2214324   5.316   4.823  10.331  0.4746 -0.4155  0.3523
  133SAPE   H2R14325   5.291   4.726  10.282 -0.1578 -0.5893  1.0035
  133SAPE   H2S14326   5.262   4.822  10.428  1.5452  0.3213  0.9804
  133SAPE    C314327   5.725   4.655  10.269  0.5914 -0.0226 -0.5512
  133SAPE    HX14328   5.672   4.585  10.201 -0.1340  0.1266 -0.1493
  133SAPE    HY14329   5.823   4.607  10.287 -0.2207 -1.7817 -0.6052
  133SAPE   O3114330   5.724   4.778  10.202 -0.0845 -0.2120  0.8517
  133SAPE   C3114331   5.811   4.871  10.251  0.4981  0.2219  0.1028
  133SAPE   O3214332   5.895   4.862  10.340  0.5094  1.1634  0.0179
  133SAPE   C3214333   5.785   5.005  10.177  0.0629 -0.9924 -0.2111
  133SAPE   H2X14334   5.794   5.090  10.248 -1.0774  0.6360 -1.9047
  133SAPE   H2Y14335   5.680   5.002  10.141 -0.4820  0.5073  1.1300
  133SAPE   C2314336   5.274   4.953  10.256 -0.4466 -0.0818  0.2056
  133SAPE   H3R14337   5.350   5.032  10.277 -1.0844 -0.3013  3.8753
  133SAPE   H3S14338   5.172   4.977  10.291 -1.2728 -2.0219 -0.7413
  133SAPE   C2414339   5.255   4.935  10.100 -0.3308  0.6694 -0.3615
  133SAPE   H4R14340   5.189   4.846  10.097  1.7674 -0.9436 -1.2928
  133SAPE   H4S14341   5.344   4.892  10.048  0.6394  0.2061  1.5959
  133SAPE   C2514342   5.195   5.058  10.033  0.5822  0.0450 -0.0587
  133SAPE   H5R14343   5.158   5.138  10.099  1.7201  0.3722  0.2012
  133SAPE   C2614344   5.189   5.073   9.900 -0.8086 -0.7450 -0.1470
  133SAPE   H6R14345   5.157   5.171   9.861 -1.2094 -1.0480 -0.5942
  133SAPE   C2714346   5.246   4.983   9.789  0.0084  0.4788  0.3765
  133SAPE   H7R14347   5.314   4.907   9.832 -0.1178 -1.1310 -2.0685
  133SAPE   H7S14348   5.305   5.044   9.718 -1.2672 -0.0620 -1.2127
  133SAPE   C2814349   5.133   4.910   9.717  0.2767  0.0217  0.4508
  133SAPE   H8R14350   5.054   4.885   9.790 -0.3188 -0.3812 -0.3144
  133SAPE   C2914351   5.121   4.883   9.590  0.1940  0.3184 -0.6125
  133SAPE   H9R14352   5.023   4.842   9.562  0.0419  0.2834 -0.0387
  133SAPE  C21014353   5.210   4.918   9.474  0.6581  0.3157  0.1126
  133SAPE  H10R14354   5.238   4.819   9.432 -1.4431 -2.2879  4.1538
  133SAPE  H10S14355   5.311   4.950   9.508 -0.4717  2.4325  1.7574
  133SAPE  C21114356   5.146   5.005   9.373 -0.0384 -0.4797  0.4770
  133SAPE  H11R14357   5.089   5.089   9.415  0.0592 -0.0587 -0.2091
  133SAPE  C21214358   5.150   4.983   9.239  0.3702 -0.5631  0.2365
  133SAPE  H12R14359   5.112   5.043   9.155  1.1690 -1.0799 -0.5116
  133SAPE  C21314360   5.224   4.865   9.175  0.2130  0.6155  0.0151
  133SAPE  H13R14361   5.153   4.828   9.098 -0.6717  3.7354 -0.8150
  133SAPE  H13S14362   5.241   4.774   9.237 -1.7398  0.3276  0.2050
  133SAPE  C21414363   5.354   4.908   9.120  0.3429 -1.0959  0.2763
  133SAPE  H14R14364   5.425   4.926   9.202 -1.5632 -1.1780  2.0190
  133SAPE  C21514365   5.380   4.929   8.990 -0.3004 -0.6183 -0.3243
  133SAPE  H15R14366   5.468   4.990   8.963 -2.6725  3.3592  0.1373
  133SAPE  C21614367   5.294   4.901   8.874 -0.4899  0.4633  0.9367
  133SAPE  H16R14368   5.259   5.003   8.845  0.3638  0.1858 -1.2230
  133SAPE  H16S14369   5.207   4.835   8.897  1.3297 -2.5659 -0.2979
  133SAPE  C21714370   5.354   4.844   8.744  0.1007 -0.2938 -0.1513
  133SAPE  H17R14371   5.438   4.912   8.721 -0.2763  0.1789 -0.1478
  133SAPE  H17S14372   5.282   4.863   8.662 -2.7533 -2.4561  1.6331
  133SAPE  C21814373   5.407   4.699   8.742  0.7343  0.5884  0.1208
  133SAPE  H18R14374   5.320   4.634   8.769  0.4850  1.7637  2.3359
  133SAPE  H18S14375   5.486   4.687   8.819 -0.9057  1.0985  1.9622
  133SAPE  C21914376   5.461   4.674   8.596  0.5746  0.3258 -1.3909
  133SAPE  H19R14377   5.398   4.740   8.533 -0.2122  0.3005 -0.6479
  133SAPE  H19S14378   5.440   4.571   8.561 -2.3590  0.4256 -0.2025
  133SAPE  C22014379   5.613   4.696   8.582  0.1863  0.1544 -0.4893
  133SAPE  H20R14380   5.667   4.618   8.639 -1.1111 -0.4959 -0.1013
  133SAPE  H20S14381   5.634   4.797   8.624  1.7923 -0.7107  0.8903
  133SAPE  H20T14382   5.641   4.694   8.475 -1.9007  0.8214 -1.1031
  133SAPE   C3314383   5.873   5.019  10.051  0.3778  0.2264  0.1437
  133SAPE   H3X14384   5.830   5.107  10.000  1.7828  1.9044  1.7212
  133SAPE   H3Y14385   5.863   4.924   9.994 -2.8619  0.5763 -0.0870
  133SAPE   C3414386   6.016   5.059  10.082 -0.0913 -0.5818 -0.4198
  133SAPE   H4X14387   6.052   4.964  10.126  0.2028 -0.8061 -1.1160
  133SAPE   H4Y14388   6.011   5.149  10.146 -1.6029 -0.3949 -0.7623
  133SAPE   C3514389   6.105   5.103   9.960 -0.2258 -0.4159 -0.5691
  133SAPE   H5X14390   6.211   5.125   9.982 -0.0569 -1.0970 -0.6819
  133SAPE   H5Y14391   6.066   5.204   9.933 -0.2046 -0.7740 -2.0687
  133SAPE   C3614392   6.089   5.017   9.826 -0.4354 -0.5055  0.1902
  133SAPE   H6X14393   5.986   4.983   9.798 -0.4312  0.6900 -1.4289
  133SAPE   H6Y14394   6.150   4.925   9.839  1.8649  0.9894  0.5076
  133SAPE   C3714395   6.126   5.091   9.697 -0.2076 -0.0278 -0.1816
  133SAPE   H7X14396   6.234   5.115   9.693 -0.2093 -0.2255 -2.4754
  133SAPE   H7Y14397   6.085   5.194   9.694  1.8157  0.8016 -2.1921
  133SAPE   C3814398   6.097   5.010   9.567 -0.7388 -0.4220  0.0162
  133SAPE   H8X14399   5.992   5.042   9.548  0.0234  2.9438  0.7300
  133SAPE   H8Y14400   6.106   4.901   9.586  1.5504 -0.7066 -2.1536
  133SAPE   C3914401   6.191   5.053   9.455  0.4667 -1.1063 -0.2083
  133SAPE   H9X14402   6.292   5.007   9.466  0.6815 -0.1546  2.2843
  133SAPE   H9Y14403   6.205   5.163   9.457  0.2781 -1.0690 -0.8394
  133SAPE  C31014404   6.137   5.012   9.319  0.4975  0.0908 -0.0579
  133SAPE  H10X14405   6.033   5.050   9.312  0.3655  0.0555  1.3880
  133SAPE  H10Y14406   6.114   4.904   9.323 -3.6907  0.7398 -1.1179
  133SAPE  C31114407   6.225   5.053   9.207  0.5369 -0.3041 -0.1156
  133SAPE  H11X14408   6.328   5.012   9.217  0.2108 -0.7883  1.4327
  133SAPE  H11Y14409   6.234   5.164   9.206 -0.1104 -0.0168  4.3522
  133SAPE  C31214410   6.165   4.998   9.077 -0.2265  0.3828 -0.2604
  133SAPE  H12X14411   6.069   5.050   9.056  0.2251  0.5124 -2.2343
  133SAPE  H12Y14412   6.147   4.891   9.102 -1.1168  0.3365 -1.0495
  133SAPE  C31314413   6.249   5.026   8.953  0.1157 -1.0575  0.4224
  133SAPE  H13X14414   6.355   5.002   8.973  0.7206  1.2482  0.2666
  133SAPE  H13Y14415   6.252   5.134   8.927 -0.2723 -1.4925 -1.5871
  133SAPE  C31414416   6.215   4.954   8.824 -0.0210  0.4281 -0.1879
  133SAPE  H14X14417   6.225   4.846   8.845  2.0828  0.3763 -1.1819
  133SAPE  H14Y14418   6.293   4.985   8.751  0.6214  2.0004  1.0877
  133SAPE  C31514419   6.078   4.996   8.778 -0.4373  0.1223  0.4313
  133SAPE  H15X14420   6.074   5.106   8.769  0.2459  0.2420  1.4661
  133SAPE  H15Y14421   6.001   4.970   8.854 -1.5241 -0.1311 -0.7320
  133SAPE  C31614422   6.054   4.948   8.638  0.6151  0.0288 -0.7463
  133SAPE  H16X14423   6.125   5.001   8.570  0.7217  2.1941  0.9361
  133SAPE  H16Y14424   5.956   4.982   8.600 -0.6001 -1.7812  0.5904
  133SAPE  C31714425   6.060   4.791   8.622  0.2980 -0.9084  0.1993
  133SAPE  H17X14426   5.968   4.751   8.669  1.5545 -1.4438  2.3264
  133SAPE  H17Y14427   6.159   4.770   8.667  1.1392  1.2174 -0.5291
  133SAPE  C31814428   6.063   4.757   8.474  0.7733 -0.9149 -0.1416
  133SAPE  H18X14429   6.143   4.808   8.415 -0.7788 -0.9300 -2.4047
  133SAPE  H18Y14430   5.966   4.782   8.427  1.0193  0.4260  0.0256
  133SAPE  H18Z14431   6.071   4.648   8.453  1.2483 -1.0781  0.8278
  134SAPE     N14432   0.953   4.222  10.606  0.5135  0.2202  0.4407
  134SAPE   HN114433   0.870   4.206  10.544  0.8220  1.3488 -0.3067
  134SAPE   HN214434   0.934   4.314  10.651 -0.2607  0.8724 -1.1261
  134SAPE   HN314435   1.028   4.228  10.535  0.1766 -1.7135 -0.1227
  134SAPE   C1214436   0.966   4.105  10.696  0.3672 -0.0011 -0.7855
  134SAPE  H12A14437   0.873   4.098  10.756  0.1828  0.6519 -0.9892
  134SAPE  H12B14438   1.056   4.115  10.760 -1.1727  1.8516  1.2349
  134SAPE   C1114439   0.970   3.970  10.624 -0.6446 -0.1223  0.3060
  134SAPE  H11A14440   0.974   3.891  10.702  1.4358  0.4047  0.7905
  134SAPE  H11B14441   1.067   3.954  10.572 -0.6704  0.1327  0.1784
  134SAPE     P14442   0.726   3.891  10.586 -0.2273 -0.2177 -0.3759
  134SAPE   O1314443   0.739   3.750  10.564 -0.0425  0.0469  0.3244
  134SAPE   O1414444   0.694   3.937  10.722 -0.2278  0.2475  0.0425
  134SAPE   O1214445   0.861   3.963  10.528  0.5993 -0.9317 -0.3547
  134SAPE   O1114446   0.624   3.949  10.478 -0.0730 -0.3012  0.2927
  134SAPE    C114447   0.576   3.864  10.382  0.7549  0.0298 -0.5394
  134SAPE    HA14448   0.656   3.795  10.348  0.7489  0.2438 -0.9863
  134SAPE    HB14449   0.491   3.804  10.423  1.5122  1.3725  3.3744
  134SAPE    C214450   0.538   3.933  10.250 -0.1671 -0.0957  0.8454
  134SAPE    HS14451   0.537   3.852  10.174  0.1665  0.0543  0.6778
  134SAPE   O2114452   0.627   4.039  10.209  0.1693  0.0566  0.1091
  134SAPE   C2114453   0.746   3.993  10.189 -0.5081  0.4384  0.0023
  134SAPE   O2214454   0.779   3.879  10.173  0.2795  0.5636  0.6667
  134SAPE   C2214455   0.851   4.105  10.174  0.1599  0.3279 -0.5571
  134SAPE   H2R14456   0.873   4.148  10.274  0.0863  0.0301 -0.4128
  134SAPE   H2S14457   0.936   4.050  10.128  1.2024  2.3870 -1.2141
  134SAPE    C314458   0.398   4.003  10.267 -0.0847 -0.5724 -0.6486
  134SAPE    HX14459   0.418   4.089  10.334  0.5831 -1.2186 -0.0136
  134SAPE    HY14460   0.324   3.935  10.314 -0.2990 -0.3173 -0.6178
  134SAPE   O3114461   0.340   4.051  10.142  0.0742 -0.3046 -0.2878
  134SAPE   C3114462   0.230   4.127  10.160 -0.2603  0.5823 -0.0013
  134SAPE   O3214463   0.170   4.134  10.262 -0.2747 -0.2114  0.2258
  134SAPE   C3214464   0.227   4.215  10.037  0.8120 -0.2676  1.0226
  134SAPE   H2X14465   0.323   4.269  10.029  0.4598  0.1509 -1.0570
  134SAPE   H2Y14466   0.146   4.288  10.059  2.8883  1.8164  2.1222
  134SAPE   C2314467   0.790   4.215  10.077 -0.0364 -0.0855  0.7900
  134SAPE   H3R14468   0.850   4.308  10.078 -0.6919  0.3528  0.4895
  134SAPE   H3S14469   0.692   4.254  10.111 -0.8824 -0.0493 -1.4945
  134SAPE   C2414470   0.768   4.162   9.932  0.3916  0.2180  0.5100
  134SAPE   H4R14471   0.723   4.250   9.880  0.4948  1.7351  2.8526
  134SAPE   H4S14472   0.688   4.085   9.932 -0.4513  1.0447 -0.9027
  134SAPE   C2514473   0.895   4.100   9.872 -0.7165 -0.1611  0.2754
  134SAPE   H5R14474   0.948   4.027   9.935  1.2027  0.4431 -0.5577
  134SAPE   C2614475   0.937   4.107   9.741  0.1624  0.4776  0.1705
  134SAPE   H6R14476   1.031   4.050   9.729  1.0318  1.9567 -0.4024
  134SAPE   C2714477   0.866   4.170   9.624  0.5466 -0.0752 -0.0384
  134SAPE   H7R14478   0.763   4.195   9.657  0.6239 -0.8761  0.8465
  134SAPE   H7S14479   0.847   4.092   9.548 -1.0727 -2.5898  2.7200
  134SAPE   C2814480   0.931   4.297   9.571 -0.1500  0.0219 -0.0922
  134SAPE   H8R14481   0.970   4.363   9.650 -1.7845  1.1905 -0.2188
  134SAPE   C2914482   0.933   4.338   9.442  0.0933  0.2613 -0.8658
  134SAPE   H9R14483   0.987   4.432   9.425 -0.6950  1.6177  3.0502
  134SAPE  C21014484   0.871   4.270   9.325 -0.3484  0.1153  0.2783
  134SAPE  H10R14485   0.806   4.347   9.279  0.0868  0.7422  0.6895
  134SAPE  H10S14486   0.794   4.199   9.362 -0.3152  1.4653  3.2894
  134SAPE  C21114487   0.963   4.208   9.226 -0.8406 -0.0626 -0.6468
  134SAPE  H11R14488   1.041   4.141   9.266 -0.8657 -0.4524 -1.2490
  134SAPE  C21214489   0.965   4.224   9.097  0.3663 -0.2662 -0.5471
  134SAPE  H12R14490   1.050   4.180   9.042  0.4726 -3.0309  1.5770
  134SAPE  C21314491   0.878   4.308   9.013 -0.0701  0.1657 -0.0701
  134SAPE  H13R14492   0.929   4.395   8.967 -1.4010  0.1495 -1.7061
  134SAPE  H13S14493   0.797   4.361   9.068 -0.7807 -1.9214  1.0101
  134SAPE  C21414494   0.806   4.224   8.910 -0.2402 -0.1200  0.0554
  134SAPE  H14R14495   0.767   4.130   8.951 -0.7573 -0.7902 -1.8321
  134SAPE  C21514496   0.794   4.251   8.779  0.8959  0.2337  0.0490
  134SAPE  H15R14497   0.743   4.185   8.707  1.5745  0.6824 -0.8605
  134SAPE  C21614498   0.852   4.364   8.696  0.2272 -0.0742 -0.5735
  134SAPE  H16R14499   0.946   4.341   8.641 -0.7334  1.8637 -3.2694
  134SAPE  H16S14500   0.881   4.451   8.759 -1.2322 -0.8193  1.2396
  134SAPE  C21714501   0.756   4.416   8.585 -0.0687 -0.3264 -0.2949
  134SAPE  H17R14502   0.665   4.462   8.631  0.9212 -0.6977  2.1678
  134SAPE  H17S14503   0.721   4.325   8.531 -1.3205 -0.8022  1.2184
  134SAPE  C21814504   0.810   4.510   8.475 -0.4960  0.1442 -0.6423
  134SAPE  H18R14505   0.832   4.612   8.514 -0.3258 -0.9614  2.3688
  134SAPE  H18S14506   0.733   4.513   8.395  0.7400 -2.7527 -2.0878
  134SAPE  C21914507   0.943   4.445   8.422  0.0670  0.1253  0.3097
  134SAPE  H19R14508   0.923   4.343   8.384  0.3844 -0.8764  2.7140
  134SAPE  H19S14509   1.009   4.446   8.511  1.2035 -2.7973 -0.4040
  134SAPE  C22014510   1.011   4.532   8.318 -0.1025  0.6521  0.0872
  134SAPE  H20R14511   0.943   4.533   8.230 -1.8978  2.6531  1.3950
  134SAPE  H20S14512   1.115   4.499   8.294 -0.7291 -1.4536  0.0830
  134SAPE  H20T14513   1.019   4.632   8.365  0.0918  0.5665  0.2433
  134SAPE   C3314514   0.198   4.137   9.902  0.6343 -0.0397 -0.0187
  134SAPE   H3X14515   0.269   4.052   9.893 -1.6752 -2.0308 -0.5176
  134SAPE   H3Y14516   0.223   4.215   9.826 -0.3776  0.2791 -0.0425
  134SAPE   C3414517   0.063   4.084   9.896  0.2389  0.1444  0.1519
  134SAPE   H4X14518  -0.012   4.165   9.901  1.3566  1.3866 -1.6990
  134SAPE   H4Y14519   0.052   4.016   9.983  0.0402 -0.7014 -0.5137
  134SAPE   C3514520   0.045   4.011   9.765  0.2713  0.0790 -0.1845
  134SAPE   H5X14521   0.080   3.907   9.780 -2.1781 -0.9229 -0.9106
  134SAPE   H5Y14522   0.111   4.052   9.685 -0.4316  3.0247  0.6073
  134SAPE   C3614523  -0.103   4.016   9.719  0.1952 -0.0300  0.0895
  134SAPE   H6X14524  -0.129   4.123   9.714  2.0966  0.4410 -0.6014
  134SAPE   H6Y14525  -0.173   3.969   9.792 -1.9315  1.2858 -1.0163
  134SAPE   C3714526  -0.134   3.958   9.583 -0.2771 -0.3231  0.0327
  134SAPE   H7X14527  -0.240   3.977   9.559 -0.4047 -0.4532  0.4788
  134SAPE   H7Y14528  -0.111   3.850   9.594  1.4027  0.2701  4.3889
  134SAPE   C3814529  -0.058   4.037   9.470  0.0235  0.2768  0.0191
  134SAPE   H8X14530   0.048   4.005   9.464  0.1325  0.7725 -0.9129
  134SAPE   H8Y14531  -0.070   4.143   9.503  1.9792  0.2031  1.1721
  134SAPE   C3914532  -0.124   4.025   9.331  0.0598 -0.5483  0.3812
  134SAPE   H9X14533  -0.226   4.067   9.342  0.1327 -0.7425  1.9773
  134SAPE   H9Y14534  -0.142   3.919   9.302 -2.0700 -0.1517  0.1279
  134SAPE  C31014535  -0.042   4.101   9.213 -0.1022 -0.3050 -0.2882
  134SAPE  H10X14536   0.059   4.054   9.214  0.3647  0.6554  0.9784
  134SAPE  H10Y14537  -0.038   4.210   9.238  0.2874 -0.2976 -0.3670
  134SAPE  C31114538  -0.113   4.081   9.083  0.1430 -0.5349 -0.0294
  134SAPE  H11X14539  -0.210   4.135   9.086 -0.9363 -2.3993  0.7152
  134SAPE  H11Y14540  -0.138   3.974   9.062 -1.0680 -0.0489 -1.2171
  134SAPE  C31214541  -0.027   4.149   8.967  0.9128  0.9011 -0.5120
  134SAPE  H12X14542   0.072   4.098   8.964  0.9997  1.0322  0.0477
  134SAPE  H12Y14543  -0.007   4.255   8.991  1.8042  0.1811  2.3696
  134SAPE  C31314544  -0.103   4.143   8.834 -1.0008 -0.4755 -0.4306
  134SAPE  H13X14545  -0.200   4.196   8.841 -0.5910  0.0600  2.3548
  134SAPE  H13Y14546  -0.117   4.035   8.814  0.9838 -1.0161  0.7817
  134SAPE  C31414547  -0.011   4.198   8.727  0.6509  0.1440  0.3605
  134SAPE  H14X14548   0.094   4.164   8.714  0.0996 -0.8981 -1.8910
  134SAPE  H14Y14549   0.005   4.306   8.747  0.8861  0.8335 -2.9913
  134SAPE  C31514550  -0.078   4.182   8.590 -0.3293 -0.0891 -0.3086
  134SAPE  H15X14551  -0.177   4.232   8.597  0.9399  2.5208 -0.2532
  134SAPE  H15Y14552  -0.104   4.074   8.575 -0.6042 -0.2946  1.4291
  134SAPE  C31614553  -0.001   4.247   8.482 -0.4010  0.1517  0.0084
  134SAPE  H16X14554   0.089   4.182   8.494 -0.0459  0.8061  1.0515
  134SAPE  H16Y14555   0.027   4.350   8.511  3.4615 -0.6353 -0.3553
  134SAPE  C31714556  -0.072   4.239   8.351  0.0264  0.0128  0.1871
  134SAPE  H17X14557  -0.015   4.290   8.270  0.6667 -2.1461 -0.7955
  134SAPE  H17Y14558  -0.172   4.286   8.363  0.4322  0.4039  2.3517
  134SAPE  C31814559  -0.098   4.099   8.302  0.4309 -0.3683  0.9166
  134SAPE  H18X14560  -0.171   4.053   8.372 -0.6180  1.7777  1.3295
  134SAPE  H18Y14561  -0.006   4.040   8.287  0.3900 -0.0979 -0.5500
  134SAPE  H18Z14562  -0.136   4.097   8.198  2.8614 -0.0226 -0.0339
  135SAPE     N14563   5.437   4.114  10.582 -0.1861  0.5456 -0.3621
  135SAPE   HN114564   5.373   4.124  10.501  0.9492  0.7847 -1.2641
  135SAPE   HN214565   5.472   4.209  10.607 -0.0045  0.1633  0.9224
  135SAPE   HN314566   5.515   4.053  10.551 -0.4272 -0.0327  0.1394
  135SAPE   C1214567   5.377   4.072  10.713 -0.0381 -0.5249 -0.1701
  135SAPE  H12A14568   5.297   4.146  10.731 -0.3063 -0.9055  0.2087
  135SAPE  H12B14569   5.464   4.084  10.780 -0.9982  1.4948  0.7621
  135SAPE   C1114570   5.335   3.928  10.709 -0.3547 -0.0716 -0.1574
  135SAPE  H11A14571   5.308   3.888  10.809 -1.1602  1.5914  0.3263
  135SAPE  H11B14572   5.423   3.867  10.679 -1.0182 -1.1339 -0.0071
  135SAPE     P14573   5.191   3.755  10.571  0.1180 -0.4827  0.2878
  135SAPE   O1314574   5.185   3.662  10.681  0.5504  0.5838 -0.9408
  135SAPE   O1414575   5.074   3.762  10.477  0.0414  0.3884  0.5793
  135SAPE   O1214576   5.215   3.904  10.624 -0.6883  0.1602  0.4817
  135SAPE   O1114577   5.327   3.722  10.496  0.4098 -0.3632 -0.2030
  135SAPE    C114578   5.375   3.783  10.383  0.1689  0.0512  0.4163
  135SAPE    HA14579   5.316   3.874  10.362 -1.2655 -0.1911  2.9696
  135SAPE    HB14580   5.479   3.816  10.407  0.4184 -1.9303  2.3611
  135SAPE    C214581   5.384   3.682  10.266  0.3398 -0.1850  0.2431
  135SAPE    HS14582   5.467   3.719  10.202 -2.0064  2.2489 -1.5875
  135SAPE   O2114583   5.264   3.676  10.193 -0.3410 -0.6886  0.6836
  135SAPE   C2114584   5.233   3.779  10.116 -0.3143  0.9387  0.2795
  135SAPE   O2214585   5.311   3.868  10.097 -0.3674 -0.0055 -0.2115
  135SAPE   C2214586   5.096   3.770  10.048  0.3642  0.4588  0.0986
  135SAPE   H2R14587   5.018   3.740  10.122  0.8374 -4.0748 -0.9636
  135SAPE   H2S14588   5.081   3.874  10.012 -2.0657 -0.9613 -3.4693
  135SAPE    C314589   5.427   3.542  10.317 -0.1253  0.4653  0.4439
  135SAPE    HX14590   5.335   3.499  10.361 -0.1557  1.0329  0.9539
  135SAPE    HY14591   5.499   3.547  10.402 -0.2265 -1.5795  0.7071
  135SAPE   O3114592   5.491   3.470  10.210 -0.2041 -0.6114  0.3597
  135SAPE   C3114593   5.420   3.402  10.126 -1.0274 -0.5323 -0.3174
  135SAPE   O3214594   5.310   3.362  10.148 -0.9880  0.0440 -0.8072
  135SAPE   C3214595   5.498   3.374  10.001 -0.1093  0.2076 -0.1997
  135SAPE   H2X14596   5.463   3.272   9.976  0.5536 -0.2009  0.5036
  135SAPE   H2Y14597   5.606   3.366  10.022 -0.4968 -1.5769  1.4539
  135SAPE   C2314598   5.091   3.675   9.924 -0.3142  0.2726 -0.1551
  135SAPE   H3R14599   4.987   3.670   9.883 -0.8831 -2.9271  1.3284
  135SAPE   H3S14600   5.126   3.574   9.955  1.1527  0.6234 -0.6015
  135SAPE   C2414601   5.194   3.709   9.812  0.1034 -0.7312  0.5520
  135SAPE   H4R14602   5.181   3.658   9.714  2.3618  0.6191 -0.5191
  135SAPE   H4S14603   5.291   3.681   9.858  0.4087  2.0755  1.8065
  135SAPE   C2514604   5.205   3.869   9.790 -1.0230 -0.1168  0.1227
  135SAPE   H5R14605   5.222   3.934   9.877 -0.7589 -2.0777  1.6203
  135SAPE   C2614606   5.205   3.924   9.668 -0.3874  0.0064 -0.6822
  135SAPE   H6R14607   5.204   4.034   9.681 -3.1290  0.0749 -0.7369
  135SAPE   C2714608   5.185   3.857   9.532 -0.4607  0.4985 -0.3572
  135SAPE   H7R14609   5.203   3.748   9.541 -1.0428  0.3041 -1.4149
  135SAPE   H7S14610   5.268   3.892   9.467 -0.4742  3.5038  1.0585
  135SAPE   C2814611   5.048   3.875   9.494  0.3670  0.1036 -0.6867
  135SAPE   H8R14612   4.971   3.820   9.551 -0.7652  0.3657 -1.9011
  135SAPE   C2914613   5.011   3.948   9.386  0.3498 -0.0286 -0.6729
  135SAPE   H9R14614   4.904   3.960   9.366  0.2235  1.8734  0.9037
  135SAPE  C21014615   5.091   4.031   9.294  0.8784  0.3536  0.6351
  135SAPE  H10R14616   5.153   4.105   9.350  2.7360  0.8184 -1.8675
  135SAPE  H10S14617   5.017   4.093   9.240  2.1883  2.4913  1.1709
  135SAPE  C21114618   5.174   3.968   9.186 -0.9678 -0.1328  0.1646
  135SAPE  H11R14619   5.267   4.026   9.187 -1.1541  0.1632  0.4952
  135SAPE  C21214620   5.145   3.870   9.099  0.3290 -0.1463  0.4320
  135SAPE  H12R14621   5.216   3.852   9.017  0.1034 -1.2139  0.4578
  135SAPE  C21314622   5.011   3.799   9.089  0.2884  0.4614  0.7558
  135SAPE  H13R14623   4.925   3.868   9.077 -0.5101 -0.3712  1.5361
  135SAPE  H13S14624   4.985   3.755   9.188 -1.5018 -0.3971 -0.0451
  135SAPE  C21414625   5.012   3.683   8.989  0.0262  0.0821 -1.0747
  135SAPE  H14R14626   5.103   3.624   9.006 -1.7880 -2.5442  0.1291
  135SAPE  C21514627   4.926   3.655   8.889 -0.9502  0.6890  0.5844
  135SAPE  H15R14628   4.941   3.563   8.831 -0.3721 -0.7893  2.9315
  135SAPE  C21614629   4.806   3.739   8.863  0.0037 -0.3309 -0.6501
  135SAPE  H16R14630   4.786   3.741   8.753 -0.6086  1.2590 -0.5393
  135SAPE  H16S14631   4.823   3.842   8.901 -1.4172 -0.4119  0.2970
  135SAPE  C21714632   4.678   3.692   8.934 -0.0579  0.7457  0.2129
  135SAPE  H17R14633   4.593   3.751   8.894  0.1968  0.0942 -1.3450
  135SAPE  H17S14634   4.676   3.715   9.043 -1.7145  1.5608  0.0426
  135SAPE  C21814635   4.653   3.539   8.919  0.0806 -0.3125  0.4678
  135SAPE  H18R14636   4.732   3.472   8.958 -0.7314 -0.4963  1.8770
  135SAPE  H18S14637   4.657   3.514   8.811 -1.2536  1.2374 -0.0009
  135SAPE  C21914638   4.526   3.490   8.977  0.1793  0.2302 -0.8975
  135SAPE  H19R14639   4.437   3.540   8.932  0.5637  2.2675  0.4590
  135SAPE  H19S14640   4.514   3.530   9.080  1.2104 -1.5784 -0.0248
  135SAPE  C22014641   4.507   3.340   8.977 -0.0561 -0.4813  0.1604
  135SAPE  H20R14642   4.403   3.318   9.007  0.2595 -1.5681  0.5227
  135SAPE  H20S14643   4.585   3.282   9.032  1.9515  1.5078 -0.4216
  135SAPE  H20T14644   4.493   3.306   8.872  0.3410  0.7300 -0.3068
  135SAPE   C3314645   5.451   3.465   9.889 -0.3895  0.2574 -0.3336
  135SAPE   H3X14646   5.496   3.566   9.895  0.9390 -0.3938  1.6091
  135SAPE   H3Y14647   5.341   3.480   9.880 -0.2345  0.7446 -1.6133
  135SAPE   C3414648   5.502   3.410   9.750  0.0818 -0.0368  0.1810
  135SAPE   H4X14649   5.479   3.302   9.736  2.0661 -0.2453 -2.3726
  135SAPE   H4Y14650   5.613   3.413   9.757 -0.0136 -0.8797  4.0219
  135SAPE   C3514651   5.467   3.495   9.635  0.4852 -0.3158 -0.2934
  135SAPE   H5X14652   5.518   3.593   9.648  0.7861 -0.1589 -2.3217
  135SAPE   H5Y14653   5.357   3.511   9.642  0.3983 -1.1282  0.3354
  135SAPE   C3614654   5.506   3.440   9.496 -0.1943  0.1969  0.4748
  135SAPE   H6X14655   5.447   3.348   9.477  0.3353 -0.0927  0.2338
  135SAPE   H6Y14656   5.614   3.416   9.492 -0.2693 -0.2135  0.8397
  135SAPE   C3714657   5.469   3.546   9.384 -0.4097  0.2175 -0.2489
  135SAPE   H7X14658   5.365   3.582   9.398  0.5724  3.7452 -1.0897
  135SAPE   H7Y14659   5.483   3.478   9.297  1.5126  0.4316 -0.1605
  135SAPE   C3814660   5.561   3.665   9.383 -0.1911  0.0772 -0.3103
  135SAPE   H8X14661   5.655   3.615   9.352  0.2258 -2.3535  4.0218
  135SAPE   H8Y14662   5.569   3.724   9.477 -2.9997  1.7166 -0.9822
  135SAPE   C3914663   5.522   3.777   9.286 -1.0601 -0.3997  0.3652
  135SAPE   H9X14664   5.441   3.838   9.331 -1.6333 -0.5631 -0.4415
  135SAPE   H9Y14665   5.490   3.731   9.190 -3.1896  0.0252  0.8390
  135SAPE  C31014666   5.634   3.871   9.253 -0.1613 -0.5817  0.2353
  135SAPE  H10X14667   5.722   3.824   9.204  1.0781  1.6063  0.2230
  135SAPE  H10Y14668   5.680   3.909   9.347 -1.9950  0.8394  0.6294
  135SAPE  C31114669   5.605   3.985   9.159  0.3473 -0.2064 -0.0542
  135SAPE  H11X14670   5.670   4.069   9.193 -2.3976  2.0867 -0.1462
  135SAPE  H11Y14671   5.503   4.021   9.184  0.6034  0.7498 -0.3485
  135SAPE  C31214672   5.621   3.958   9.010 -0.5813  0.0104  0.3092
  135SAPE  H12X14673   5.726   3.947   8.977 -1.1519  0.1655 -1.6545
  135SAPE  H12Y14674   5.595   4.046   8.947  3.2592  0.8356 -0.3874
  135SAPE  C31314675   5.535   3.840   8.958  0.0603  0.4556  0.3680
  135SAPE  H13X14676   5.429   3.847   8.989  0.6202  1.6496  2.1768
  135SAPE  H13Y14677   5.568   3.746   9.008 -2.9823 -1.0202 -0.1792
  135SAPE  C31414678   5.547   3.822   8.808  0.0063  0.2849 -0.3085
  135SAPE  H14X14679   5.506   3.912   8.758  1.1202  0.6014 -0.6827
  135SAPE  H14Y14680   5.479   3.734   8.803 -0.1467  0.0749  3.1763
  135SAPE  C31514681   5.680   3.777   8.762 -1.1905  0.4862  0.5195
  135SAPE  H15X14682   5.720   3.690   8.819  0.2247 -0.6300 -2.0179
  135SAPE  H15Y14683   5.755   3.857   8.773 -2.6301  1.9390  0.1181
  135SAPE  C31614684   5.675   3.716   8.624  0.2497  0.5636  0.4052
  135SAPE  H16X14685   5.634   3.794   8.557  2.6880  2.5081  1.0325
  135SAPE  H16Y14686   5.612   3.625   8.616 -0.6110  1.0798  1.1458
  135SAPE  C31714687   5.814   3.673   8.564 -0.2974  0.1216 -0.1326
  135SAPE  H17X14688   5.792   3.625   8.466 -1.4943  0.9121 -0.2689
  135SAPE  H17Y14689   5.862   3.599   8.632 -0.1015 -0.0671 -0.4693
  135SAPE  C31814690   5.912   3.790   8.546 -0.4998  0.5517 -0.0876
  135SAPE  H18X14691   5.974   3.814   8.635 -0.7788 -0.0537  0.2833
  135SAPE  H18Y14692   5.869   3.885   8.509 -0.1204  0.8622  0.2613
  135SAPE  H18Z14693   5.991   3.751   8.479  0.2029 -2.2731  2.1854
  136SAPE     N14694   2.348   2.222  11.008  0.6147 -0.0920  0.4234
  136SAPE   HN114695   2.302   2.235  10.916 -2.2700  2.1745  2.0349
  136SAPE   HN214696   2.402   2.133  11.005 -1.8703 -1.6623 -0.9091
  136SAPE   HN314697   2.266   2.205  11.069  0.7482 -2.2122  0.0716
  136SAPE   C1214698   2.431   2.331  11.070  0.1710 -0.4150 -0.5416
  136SAPE  H12A14699   2.529   2.328  11.019  0.2565 -0.5631 -0.3691
  136SAPE  H12B14700   2.442   2.301  11.176 -0.7433  1.9691  0.2852
  136SAPE   C1114701   2.363   2.468  11.074  0.2200 -0.1808  0.0316
  136SAPE  H11A14702   2.430   2.543  11.122 -0.5382 -0.4755  1.5846
  136SAPE  H11B14703   2.275   2.456  11.140  0.9169 -0.0611  1.0122
  136SAPE     P14704   2.197   2.573  10.906  0.0533 -0.1393 -0.4624
  136SAPE   O1314705   2.102   2.457  10.892  0.2997 -0.0378 -0.1767
  136SAPE   O1414706   2.170   2.678  11.008  0.0734  0.1000  0.0047
  136SAPE   O1214707   2.334   2.517  10.939 -0.3387 -0.4183 -0.2535
  136SAPE   O1114708   2.224   2.627  10.765  0.0699 -0.6316 -0.6275
  136SAPE    C114709   2.261   2.762  10.743  0.6924  0.3563  0.1010
  136SAPE    HA14710   2.172   2.827  10.734 -1.7927 -2.8996 -0.7589
  136SAPE    HB14711   2.335   2.805  10.814  1.2702  2.6789 -1.7588
  136SAPE    C214712   2.329   2.779  10.606  0.4671 -0.1831  0.2461
  136SAPE    HS14713   2.388   2.872  10.617  0.4068 -0.2682  1.4005
  136SAPE   O2114714   2.233   2.786  10.505  0.7594  0.4681 -0.4785
  136SAPE   C2114715   2.236   2.885  10.418  0.4175  0.0863 -0.0523
  136SAPE   O2214716   2.300   2.987  10.417 -0.2115  0.4410 -0.2321
  136SAPE   C2214717   2.140   2.846  10.301 -0.4378 -0.4904 -0.4144
  136SAPE   H2R14718   2.134   2.735  10.296 -0.6854 -0.4214 -2.0836
  136SAPE   H2S14719   2.037   2.880  10.326 -0.4772  0.8529 -2.2024
  136SAPE    C314720   2.430   2.654  10.579  0.6631  0.1529  0.7546
  136SAPE    HX14721   2.372   2.560  10.589 -0.0594  0.5474  0.3472
  136SAPE    HY14722   2.516   2.659  10.649  1.0317 -2.1719  0.5330
  136SAPE   O3114723   2.478   2.663  10.440  0.0609  0.0752 -0.1170
  136SAPE   C3114724   2.572   2.571  10.411  0.2218 -0.3065  0.6614
  136SAPE   O3214725   2.585   2.466  10.469  0.7690  0.9970  0.3654
  136SAPE   C3214726   2.643   2.605  10.276  0.2074 -0.1635 -0.0880
  136SAPE   H2X14727   2.610   2.530  10.202 -1.3165 -0.3271  0.7059
  136SAPE   H2Y14728   2.752   2.585  10.280  0.0295 -1.2901 -0.5997
  136SAPE   C2314729   2.182   2.898  10.159  0.5371 -0.8533  0.2508
  136SAPE   H3R14730   2.259   2.830  10.116 -0.7867 -1.7252 -0.8396
  136SAPE   H3S14731   2.231   2.997  10.169 -3.0654  1.3515 -1.6634
  136SAPE   C2414732   2.065   2.920  10.066  0.1457 -0.6255 -0.0098
  136SAPE   H4R14733   2.089   2.970   9.970  2.2566 -0.1730  0.6901
  136SAPE   H4S14734   1.987   2.982  10.117  2.1489  1.6042  0.5354
  136SAPE   C2514735   1.993   2.790  10.050  0.2975 -0.3696  0.1420
  136SAPE   H5R14736   1.946   2.761  10.146  1.1122  2.2917  1.4368
  136SAPE   C2614737   2.003   2.716   9.941  0.1143 -0.4971 -0.4205
  136SAPE   H6R14738   1.962   2.614   9.945 -1.8102  0.2073 -0.9283
  136SAPE   C2714739   2.075   2.751   9.812  0.8498 -0.1680  0.3825
  136SAPE   H7R14740   2.159   2.817   9.840 -0.2802  1.9724 -1.0077
  136SAPE   H7S14741   2.008   2.807   9.743  0.1601  1.3231  2.2022
  136SAPE   C2814742   2.147   2.624   9.756  0.6971 -0.1385  0.3580
  136SAPE   H8R14743   2.185   2.556   9.834 -1.5037 -2.0558 -0.1220
  136SAPE   C2914744   2.176   2.605   9.622  0.0793 -0.2210  0.2255
  136SAPE   H9R14745   2.239   2.522   9.586 -1.3963 -0.7509 -1.2686
  136SAPE  C21014746   2.145   2.701   9.507 -0.1981  0.3547 -0.1457
  136SAPE  H10R14747   2.157   2.802   9.551  0.0879 -0.3224  1.4025
  136SAPE  H10S14748   2.044   2.703   9.461 -0.4608 -2.5696  0.0703
  136SAPE  C21114749   2.256   2.676   9.403 -0.6760 -0.5442 -0.0674
  136SAPE  H11R14750   2.353   2.717   9.435 -0.5769 -2.5258  2.4521
  136SAPE  C21214751   2.251   2.614   9.280  0.9403 -0.7290  0.6552
  136SAPE  H12R14752   2.335   2.627   9.210  1.7872 -1.9372  1.4189
  136SAPE  C21314753   2.124   2.561   9.218  0.4058 -0.0128 -0.1286
  136SAPE  H13R14754   2.036   2.583   9.282 -0.2777 -3.0274  0.1104
  136SAPE  H13S14755   2.131   2.450   9.215 -0.1375 -0.0937  1.0951
  136SAPE  C21414756   2.106   2.627   9.081  0.0003 -0.0203  0.1044
  136SAPE  H14R14757   2.044   2.717   9.073  1.6814  1.0469 -2.7647
  136SAPE  C21514758   2.148   2.580   8.959  0.6133 -0.0935  0.4716
  136SAPE  H15R14759   2.132   2.641   8.869  0.5573 -2.4973 -1.2447
  136SAPE  C21614760   2.219   2.446   8.935  0.0916  0.5758 -0.0698
  136SAPE  H16R14761   2.257   2.407   9.032  1.9974  0.4388 -0.8454
  136SAPE  H16S14762   2.311   2.448   8.874 -0.2431 -0.0397 -0.5984
  136SAPE  C21714763   2.140   2.337   8.866  0.6738 -0.5411  0.2710
  136SAPE  H17R14764   2.066   2.300   8.940 -1.8507 -0.9227 -2.2282
  136SAPE  H17S14765   2.207   2.252   8.840 -1.1620 -1.7537 -0.8217
  136SAPE  C21814766   2.070   2.377   8.735 -0.1909 -0.3583  0.5867
  136SAPE  H18R14767   1.990   2.453   8.751 -0.6985 -0.8379  0.3847
  136SAPE  H18S14768   2.027   2.289   8.682 -3.8502  2.3374 -1.4171
  136SAPE  C21914769   2.162   2.435   8.630 -0.6960 -0.2785  0.9292
  136SAPE  H19R14770   2.232   2.512   8.669 -1.6569  1.3397 -0.4377
  136SAPE  H19S14771   2.093   2.488   8.561 -0.4539 -0.2635  0.6958
  136SAPE  C22014772   2.238   2.321   8.559  0.5993 -0.0452 -0.0785
  136SAPE  H20R14773   2.324   2.280   8.616 -0.7078 -0.6187  1.5443
  136SAPE  H20S14774   2.282   2.359   8.464  0.4757  1.5813  0.4854
  136SAPE  H20T14775   2.168   2.241   8.524  0.3323  0.3120 -0.3682
  136SAPE   C3314776   2.607   2.748  10.220 -0.3455  0.4247  1.0026
  136SAPE   H3X14777   2.497   2.757  10.210 -0.2589  0.8621  0.3933
  136SAPE   H3Y14778   2.653   2.760  10.120 -0.2184  3.5255  1.3254
  136SAPE   C3414779   2.670   2.870  10.294  0.6422  0.1659 -0.4259
  136SAPE   H4X14780   2.625   2.886  10.394  0.0612 -1.0862 -0.4696
  136SAPE   H4Y14781   2.653   2.961  10.232  0.3711 -1.1306 -2.3457
  136SAPE   C3514782   2.827   2.866  10.307 -0.4330  0.0844  0.7096
  136SAPE   H5X14783   2.875   2.865  10.207  2.0609  1.0871  1.8187
  136SAPE   H5Y14784   2.860   2.772  10.356 -1.3947 -1.2006 -1.0061
  136SAPE   C3614785   2.887   2.986  10.385 -0.0985 -0.2692  0.2969
  136SAPE   H6X14786   2.990   2.968  10.421  0.4758 -2.4892 -2.1302
  136SAPE   H6Y14787   2.826   3.002  10.477  0.6522 -0.0009  0.7569
  136SAPE   C3714788   2.901   3.110  10.288 -0.1518 -0.1002  0.0102
  136SAPE   H7X14789   2.921   3.200  10.352  0.7799  0.2734 -0.7827
  136SAPE   H7Y14790   2.803   3.136  10.242 -0.1687  0.2546  0.2339
  136SAPE   C3814791   3.005   3.094  10.178  0.0022  0.0916 -0.1850
  136SAPE   H8X14792   2.974   3.031  10.092  2.2322  1.1855 -1.9040
  136SAPE   H8Y14793   3.109   3.062  10.201 -0.6920 -1.5330  0.8492
  136SAPE   C3914794   3.018   3.225  10.093  0.4985 -0.0210  0.0746
  136SAPE   H9X14795   3.128   3.231  10.087  0.4094  0.8729 -1.1420
  136SAPE   H9Y14796   2.972   3.313  10.142  0.7960  0.3721 -0.3463
  136SAPE  C31014797   2.950   3.219   9.953 -0.1913 -0.2157 -0.5949
  136SAPE  H10X14798   2.985   3.120   9.915  1.7703  0.1605  0.0926
  136SAPE  H10Y14799   2.999   3.290   9.883 -0.2942 -0.5507 -1.0105
  136SAPE  C31114800   2.795   3.235   9.930 -0.6590  0.0875 -1.3826
  136SAPE  H11X14801   2.764   3.339   9.955 -0.4470 -0.5023  1.7441
  136SAPE  H11Y14802   2.741   3.149   9.975 -3.1351  2.0002 -0.4108
  136SAPE  C31214803   2.764   3.214   9.777  0.7042  0.3804 -0.1249
  136SAPE  H12X14804   2.795   3.113   9.743  1.0045  0.8996 -1.4617
  136SAPE  H12Y14805   2.838   3.279   9.727  1.3507  2.0892  2.8226
  136SAPE  C31314806   2.623   3.249   9.721  0.3834 -0.6797 -0.0594
  136SAPE  H13X14807   2.641   3.265   9.613 -0.7902  0.8339 -0.0608
  136SAPE  H13Y14808   2.594   3.351   9.753 -2.5716 -1.5132  0.1661
  136SAPE  C31414809   2.511   3.147   9.771 -0.1134 -0.6589 -0.1426
  136SAPE  H14X14810   2.417   3.204   9.756  0.6012  1.0421  1.5732
  136SAPE  H14Y14811   2.529   3.116   9.876  4.7916 -0.3631 -0.6653
  136SAPE  C31514812   2.509   3.029   9.681 -0.0922  0.0593 -0.3365
  136SAPE  H15X14813   2.607   2.984   9.652  0.0235 -0.4951  0.8581
  136SAPE  H15Y14814   2.476   3.065   9.582  0.3719 -1.5729 -1.1106
  136SAPE  C31614815   2.405   2.924   9.724  0.6126 -0.1696 -0.2604
  136SAPE  H16X14816   2.373   2.866   9.634 -2.2236  0.9239 -0.0527
  136SAPE  H16Y14817   2.312   2.977   9.753  0.3242 -1.1972  0.7595
  136SAPE  C31714818   2.448   2.828   9.831 -0.3444 -0.3855  0.3312
  136SAPE  H17X14819   2.366   2.774   9.883  1.6210 -1.8549  2.1033
  136SAPE  H17Y14820   2.507   2.882   9.908  1.6062 -1.6712 -0.1679
  136SAPE  C31814821   2.554   2.727   9.779 -0.6846  0.4496 -0.0857
  136SAPE  H18X14822   2.576   2.646   9.852  1.5011 -0.5679 -1.7239
  136SAPE  H18Y14823   2.652   2.778   9.768 -0.6591  0.1268 -1.5820
  136SAPE  H18Z14824   2.525   2.667   9.690  1.4120 -1.4573  0.3965
  137SAPE     N14825   1.146   5.536  11.087  0.1203 -0.1900 -0.6013
  137SAPE   HN114826   1.188   5.592  11.164 -1.0131 -0.4897  0.2635
  137SAPE   HN214827   1.046   5.529  11.116 -0.3810  0.9457 -1.9573
  137SAPE   HN314828   1.190   5.442  11.085 -0.3275 -0.3948 -1.7574
  137SAPE   C1214829   1.155   5.621  10.961  0.0101 -0.2844 -0.9120
  137SAPE  H12A14830   1.073   5.583  10.896 -0.9907 -0.8044  0.6073
  137SAPE  H12B14831   1.253   5.602  10.913  1.4077  0.5554  1.4552
  137SAPE   C1114832   1.139   5.767  10.992 -0.7167  0.2402  0.7224
  137SAPE  H11A14833   1.173   5.842  10.916  0.3022 -0.8880  0.0191
  137SAPE  H11B14834   1.204   5.797  11.077 -2.1997  1.0093  1.6073
  137SAPE     P14835   0.917   5.886  10.947 -0.0602 -0.1840 -0.3876
  137SAPE   O1314836   0.797   5.918  11.029  0.2966 -0.5238  0.2333
  137SAPE   O1414837   0.982   6.004  10.885 -0.6970  0.2211 -0.0159
  137SAPE   O1214838   1.009   5.804  11.035 -1.0433  0.4197 -0.3500
  137SAPE   O1114839   0.877   5.785  10.840  0.0058 -0.1333  0.3045
  137SAPE    C114840   0.774   5.802  10.738  0.2847 -0.0386 -0.8535
  137SAPE    HA14841   0.685   5.738  10.756 -0.5805  0.1440 -3.9016
  137SAPE    HB14842   0.736   5.905  10.729  0.4918  0.1362  0.1432
  137SAPE    C214843   0.837   5.768  10.599  0.4236 -1.5235  0.1990
  137SAPE    HS14844   0.751   5.770  10.529  1.3641 -0.5198 -0.9762
  137SAPE   O2114845   0.916   5.651  10.584 -0.2399  0.2767 -0.1102
  137SAPE   C2114846   0.837   5.547  10.575 -0.6086 -0.3723 -0.2999
  137SAPE   O2214847   0.714   5.548  10.561 -0.3642 -0.1298  0.0043
  137SAPE   C2214848   0.917   5.420  10.591  0.4200 -0.4672 -0.3525
  137SAPE   H2R14849   1.009   5.457  10.642 -0.6117  1.1248  0.4554
  137SAPE   H2S14850   0.866   5.356  10.666 -0.5268 -0.0436 -0.6294
  137SAPE    C314851   0.927   5.885  10.549 -0.6885  1.0921  0.5652
  137SAPE    HX14852   1.027   5.859  10.590 -1.4893 -0.0050  1.9017
  137SAPE    HY14853   0.889   5.984  10.583  0.3404  2.5889 -2.2646
  137SAPE   O3114854   0.932   5.897  10.406  0.7794  0.4079 -0.0225
  137SAPE   C3114855   1.052   5.902  10.349  0.5425 -0.2202 -0.0231
  137SAPE   O3214856   1.161   5.902  10.404  0.1317  0.6025  0.5830
  137SAPE   C3214857   1.021   5.933  10.200 -0.1209  0.2961 -0.3904
  137SAPE   H2X14858   0.973   6.032  10.186 -0.3884 -0.0282 -1.9493
  137SAPE   H2Y14859   0.944   5.862  10.163 -1.1295  1.4781 -0.6494
  137SAPE   C2314860   0.931   5.342  10.459 -0.1406 -0.3433 -0.1875
  137SAPE   H3R14861   0.836   5.341  10.402  1.0337  1.7240 -2.3832
  137SAPE   H3S14862   0.963   5.243  10.497  0.2672 -0.4906 -0.9016
  137SAPE   C2414863   1.039   5.384  10.360  0.5329 -0.4735 -0.1321
  137SAPE   H4R14864   1.039   5.309  10.278 -0.0990  0.3021 -0.8466
  137SAPE   H4S14865   1.139   5.394  10.407  1.6768 -1.8332 -2.0991
  137SAPE   C2514866   1.004   5.514  10.296  0.6253 -1.1475 -0.0656
  137SAPE   H5R14867   1.002   5.599  10.365 -5.5308  0.8231 -1.9705
  137SAPE   C2614868   0.975   5.536  10.166  0.0538  0.1364  1.1089
  137SAPE   H6R14869   0.959   5.640  10.131  0.1318 -0.1311  0.2568
  137SAPE   C2714870   0.970   5.440  10.048  0.0014  0.6352 -1.1120
  137SAPE   H7R14871   0.970   5.336  10.089  0.0137  1.6726  1.7383
  137SAPE   H7S14872   1.062   5.451   9.986  0.4282  1.1044 -0.4060
  137SAPE   C2814873   0.849   5.457   9.966 -0.6022 -0.3106 -0.3995
  137SAPE   H8R14874   0.757   5.443  10.024  0.8360 -0.5581  1.9771
  137SAPE   C2914875   0.844   5.495   9.836 -0.2174  0.0807  0.0119
  137SAPE   H9R14876   0.746   5.492   9.786 -0.9883 -2.4775  1.4992
  137SAPE  C21014877   0.959   5.532   9.739 -0.4362  0.4583  0.3474
  137SAPE  H10R14878   1.051   5.550   9.799 -0.2153  1.0358 -0.1572
  137SAPE  H10S14879   0.930   5.626   9.688 -4.2458 -1.0443 -0.5770
  137SAPE  C21114880   0.989   5.421   9.647  0.0340  0.5839 -0.0693
  137SAPE  H11R14881   0.991   5.318   9.685  0.8195 -0.1161 -1.9091
  137SAPE  C21214882   1.016   5.440   9.513 -0.0967 -0.2682 -0.2751
  137SAPE  H12R14883   1.045   5.350   9.456  0.3963 -0.3785  0.1416
  137SAPE  C21314884   1.013   5.571   9.438  0.2111  0.4186 -0.5902
  137SAPE  H13R14885   1.068   5.652   9.490 -1.6527  0.8801  0.7540
  137SAPE  H13S14886   0.908   5.607   9.434 -0.9417 -2.4218  1.0346
  137SAPE  C21414887   1.065   5.547   9.296  0.1011 -0.0801  0.2252
  137SAPE  H14R14888   1.132   5.463   9.272 -0.6623 -0.2597 -1.4027
  137SAPE  C21514889   1.027   5.625   9.189  0.1202 -0.2561  0.3190
  137SAPE  H15R14890   1.081   5.619   9.093  0.8374 -0.4704  0.7270
  137SAPE  C21614891   0.927   5.743   9.191 -0.1022  0.1055 -0.6733
  137SAPE  H16R14892   0.970   5.837   9.234  1.3680  0.0533 -1.9670
  137SAPE  H16S14893   0.850   5.713   9.265  1.2876 -1.3019  0.2536
  137SAPE  C21714894   0.864   5.770   9.057  0.5284 -0.5680 -0.2827
  137SAPE  H17R14895   0.763   5.815   9.070  1.3551  2.0631 -1.9954
  137SAPE  H17S14896   0.835   5.671   9.017 -0.7837  0.3354 -1.6923
  137SAPE  C21814897   0.964   5.825   8.966 -0.3800 -0.2079  0.6254
  137SAPE  H18R14898   1.014   5.756   8.894 -1.5032  1.9599 -2.4569
  137SAPE  H18S14899   1.051   5.864   9.023 -0.4598 -3.0735  2.9123
  137SAPE  C21914900   0.918   5.931   8.862  0.3585  0.5072 -0.6954
  137SAPE  H19R14901   0.916   6.025   8.920  0.7861  0.7165 -1.0141
  137SAPE  H19S14902   0.814   5.907   8.833  1.6852 -2.2618 -3.9866
  137SAPE  C22014903   0.991   5.952   8.739 -0.4454  0.5481  0.1805
  137SAPE  H20R14904   1.009   5.856   8.686 -1.1563 -0.9882  2.5473
  137SAPE  H20S14905   1.087   5.992   8.777  0.0062 -0.8936  0.6033
  137SAPE  H20T14906   0.957   6.035   8.674  1.5313  2.0136  0.9166
  137SAPE   C3314907   1.136   5.940  10.104  0.1494  0.4216 -0.1230
  137SAPE   H3X14908   1.215   5.867  10.133 -2.2263 -2.5191 -0.5312
  137SAPE   H3Y14909   1.159   6.048  10.091 -3.5295  1.4641  0.9269
  137SAPE   C3414910   1.089   5.889   9.961  0.2746  0.0875  0.5198
  137SAPE   H4X14911   1.000   5.952   9.940  0.2478 -0.6596 -1.8733
  137SAPE   H4Y14912   1.057   5.783   9.965  0.1435  0.1130  0.1735
  137SAPE   C3514913   1.195   5.921   9.855  0.2851  0.0751  0.4097
  137SAPE   H5X14914   1.287   5.864   9.879  1.6988  2.4472  0.9865
  137SAPE   H5Y14915   1.219   6.029   9.864 -0.1655  0.2111  0.0432
  137SAPE   C3614916   1.147   5.902   9.709 -0.0702  0.3319 -0.7628
  137SAPE   H6X14917   1.053   5.961   9.703  0.5201  1.4390  0.3984
  137SAPE   H6Y14918   1.111   5.800   9.682 -0.3466  0.3843 -0.5970
  137SAPE   C3714919   1.241   5.959   9.603  0.3163  0.0514  0.1074
  137SAPE   H7X14920   1.341   5.910   9.599  0.8508  0.9930  1.2539
  137SAPE   H7Y14921   1.260   6.067   9.620  1.7565 -0.3484  1.2499
  137SAPE   C3814922   1.182   5.938   9.464 -0.2300 -0.1233  0.4183
  137SAPE   H8X14923   1.079   5.977   9.460 -0.2373 -0.2086 -0.3246
  137SAPE   H8Y14924   1.175   5.830   9.438  0.7726  0.0748 -0.7670
  137SAPE   C3914925   1.264   6.018   9.362  0.0385 -0.4134 -0.2378
  137SAPE   H9X14926   1.371   5.994   9.380 -0.3020 -1.0023  1.1779
  137SAPE   H9Y14927   1.266   6.127   9.382  0.2403 -0.5892  0.7627
  137SAPE  C31014928   1.245   5.987   9.212  0.0284 -0.1039 -0.0418
  137SAPE  H10X14929   1.137   6.002   9.191  0.0607 -1.3571 -1.2639
  137SAPE  H10Y14930   1.264   5.879   9.197 -1.0552 -0.5575  1.5652
  137SAPE  C31114931   1.332   6.071   9.127  0.0639  0.0549 -0.5760
  137SAPE  H11X14932   1.440   6.048   9.139 -0.0885  0.4774  2.2525
  137SAPE  H11Y14933   1.335   6.175   9.164  2.6735 -0.4070  0.7337
  137SAPE  C31214934   1.292   6.075   8.985 -0.2494  0.5220  0.1953
  137SAPE  H12X14935   1.181   6.077   8.978 -0.2343  1.6107  0.1910
  137SAPE  H12Y14936   1.324   5.979   8.938  0.1426  0.9546 -0.4276
  137SAPE  C31314937   1.369   6.191   8.917  0.0977  0.2433  0.3294
  137SAPE  H13X14938   1.342   6.283   8.974 -0.5783  2.4250 -3.2343
  137SAPE  H13Y14939   1.327   6.205   8.816  2.1148  0.5533 -0.5073
  137SAPE  C31414940   1.522   6.177   8.926 -0.4762 -0.1290  0.2112
  137SAPE  H14X14941   1.552   6.093   8.860 -1.5143 -1.6706  1.6468
  137SAPE  H14Y14942   1.567   6.172   9.027 -0.7034 -1.4581  0.2597
  137SAPE  C31514943   1.594   6.305   8.876 -0.0046  0.1689 -0.0355
  137SAPE  H15X14944   1.549   6.389   8.932 -1.9826  0.2052 -1.5663
  137SAPE  H15Y14945   1.572   6.310   8.767 -2.4522 -0.6928  0.3662
  137SAPE  C31614946   1.743   6.312   8.903 -0.1587 -0.3234 -0.0612
  137SAPE  H16X14947   1.794   6.233   8.844 -2.4460 -0.4629 -2.0373
  137SAPE  H16Y14948   1.771   6.311   9.011  1.6075 -0.9365 -0.5017
  137SAPE  C31714949   1.803   6.446   8.843 -0.0980 -0.3289 -0.5659
  137SAPE  H17X14950   1.745   6.535   8.877 -0.2543  0.0794 -1.8399
  137SAPE  H17Y14951   1.774   6.451   8.736  0.3313  2.0381 -0.6401
  137SAPE  C31814952   1.950   6.464   8.862 -0.1444  0.1284  0.1242
  137SAPE  H18X14953   1.969   6.564   8.816  0.0279 -0.6865 -1.6597
  137SAPE  H18Y14954   2.012   6.392   8.805  0.8256 -0.4304  1.8123
  137SAPE  H18Z14955   1.982   6.468   8.968 -0.5048 -1.5346  0.3148
  138SAPE     N14956   4.974   0.998  10.879  0.1443 -0.4571 -0.2316
  138SAPE   HN114957   4.950   0.902  10.848  1.5012 -0.7681 -0.4000
  138SAPE   HN214958   4.971   1.005  10.983 -1.2015 -0.1117 -0.2713
  138SAPE   HN314959   4.900   1.063  10.845 -0.0019 -0.5839 -0.1561
  138SAPE   C1214960   5.108   1.035  10.829 -0.9478 -0.1810 -0.5921
  138SAPE  H12A14961   5.177   0.966  10.882 -0.4950 -0.5779 -1.6772
  138SAPE  H12B14962   5.135   1.136  10.865 -1.0453 -0.9698  1.8492
  138SAPE   C1114963   5.122   1.006  10.683  0.1534 -0.2821 -0.5354
  138SAPE  H11A14964   5.229   1.031  10.665  0.0628  1.5190  0.9991
  138SAPE  H11B14965   5.050   1.071  10.628  2.0922  2.6709  0.1428
  138SAPE     P14966   5.203   0.758  10.658  0.2608 -0.2255  0.3342
  138SAPE   O1314967   5.285   0.790  10.779  0.1435 -0.0455 -0.1890
  138SAPE   O1414968   5.139   0.626  10.647 -0.1648 -0.1399 -0.4199
  138SAPE   O1214969   5.089   0.867  10.651  0.0948  0.4214 -0.1923
  138SAPE   O1114970   5.289   0.774  10.527  0.1328  0.3440 -0.0353
  138SAPE    C114971   5.228   0.809  10.404  0.1921 -0.5158 -0.4063
  138SAPE    HA14972   5.120   0.834  10.415 -0.0911 -1.6851 -0.4163
  138SAPE    HB14973   5.282   0.896  10.362  3.1263 -2.3887 -0.7883
  138SAPE    C214974   5.234   0.693  10.295 -0.2469  0.8073  0.1148
  138SAPE    HS14975   5.188   0.600  10.334 -0.8404  1.0710  0.0533
  138SAPE   O2114976   5.372   0.662  10.251  0.0777 -0.2183  0.4443
  138SAPE   C2114977   5.387   0.538  10.197 -0.2371 -0.0981  0.2075
  138SAPE   O2214978   5.299   0.457  10.182 -0.5880  0.5331  0.1466
  138SAPE   C2214979   5.538   0.516  10.163  0.1658 -0.4205  0.6748
  138SAPE   H2R14980   5.598   0.595  10.213 -1.6950 -0.0246  2.4210
  138SAPE   H2S14981   5.562   0.413  10.199  1.0146 -1.1057 -1.6721
  138SAPE    C314982   5.163   0.736  10.168 -0.3067  0.4931  0.7756
  138SAPE    HX14983   5.157   0.655  10.093  0.2814  2.0634 -1.0311
  138SAPE    HY14984   5.226   0.815  10.122 -0.6105  0.6496  0.6239
  138SAPE   O3114985   5.037   0.792  10.192 -0.7770 -0.0418 -0.2898
  138SAPE   C3114986   4.937   0.707  10.183 -0.3561 -0.1197  0.9159
  138SAPE   O3214987   4.948   0.587  10.185 -0.0780  0.6726 -0.3880
  138SAPE   C3214988   4.804   0.788  10.158  0.1529  0.5954  0.3127
  138SAPE   H2X14989   4.760   0.817  10.256 -2.7668 -1.5955 -0.2245
  138SAPE   H2Y14990   4.726   0.717  10.122  1.5667 -0.3492 -1.0514
  138SAPE   C2314991   5.562   0.513  10.007  0.0068 -0.5934  0.0279
  138SAPE   H3R14992   5.474   0.480   9.948 -1.5186  2.5044  0.3384
  138SAPE   H3S14993   5.650   0.446  10.002  0.6517  0.2261  0.1884
  138SAPE   C2414994   5.607   0.653   9.949  0.0151  0.5268  0.4755
  138SAPE   H4R14995   5.635   0.636   9.843  1.5940 -1.1547  1.1245
  138SAPE   H4S14996   5.694   0.700  10.000 -1.1227  4.9797 -1.1787
  138SAPE   C2514997   5.505   0.767   9.948 -0.1493 -0.5186 -0.2501
  138SAPE   H5R14998   5.512   0.825  10.041  2.4393 -1.7621  0.4132
  138SAPE   C2614999   5.415   0.793   9.848  0.0541  0.3492 -0.4400
  138SAPE   H6R15000   5.340   0.872   9.864  0.7440  1.2325 -1.4080
  138SAPE   C2715001   5.389   0.712   9.726 -0.0743  1.0048 -0.6472
  138SAPE   H7R15002   5.470   0.645   9.689 -1.4364  0.0021 -1.9219
  138SAPE   H7S15003   5.373   0.777   9.637 -1.7475  2.1881  0.4475
  138SAPE   C2815004   5.263   0.626   9.747  0.5346 -0.5067  1.0860
  138SAPE   H8R15005   5.268   0.540   9.814  1.9485 -1.1034  0.2657
  138SAPE   C2915006   5.143   0.655   9.693  0.0609  0.0792 -0.1821
  138SAPE   H9R15007   5.060   0.587   9.718 -1.6764  1.9051 -0.7177
  138SAPE  C21015008   5.098   0.761   9.599  0.2439  0.1939 -0.1166
  138SAPE  H10R15009   5.188   0.815   9.562 -0.5800  0.5415 -1.7288
  138SAPE  H10S15010   5.031   0.838   9.644 -1.4854 -0.1638 -1.8952
  138SAPE  C21115011   5.025   0.701   9.474  0.5194 -0.1589  0.2734
  138SAPE  H11R15012   4.916   0.697   9.485  0.3279  1.3900 -0.7621
  138SAPE  C21215013   5.084   0.655   9.359  0.8290 -0.9947 -0.0604
  138SAPE  H12R15014   5.017   0.629   9.275 -2.0671 -0.4082  1.9307
  138SAPE  C21315015   5.230   0.665   9.337  0.4779 -0.4832 -0.4320
  138SAPE  H13R15016   5.245   0.581   9.265 -1.3878  0.6241 -2.2399
  138SAPE  H13S15017   5.286   0.634   9.427  0.7131 -0.5581 -0.6023
  138SAPE  C21415018   5.292   0.793   9.273  0.3640 -0.0934 -0.0332
  138SAPE  H14R15019   5.292   0.876   9.345  1.4162 -0.5244  0.4865
  138SAPE  C21515020   5.360   0.812   9.156 -0.1749 -0.5367  1.2543
  138SAPE  H15R15021   5.391   0.912   9.122  1.5197 -1.4245  0.0861
  138SAPE  C21615022   5.385   0.707   9.047  0.2944  0.0329 -0.3839
  138SAPE  H16R15023   5.314   0.622   9.057  1.7536 -1.1530  0.1913
  138SAPE  H16S15024   5.485   0.664   9.067 -0.1133  0.2711  2.6722
  138SAPE  C21715025   5.378   0.760   8.902 -0.4323 -0.1314  1.1512
  138SAPE  H17R15026   5.283   0.815   8.884  0.3404  1.1935  0.9627
  138SAPE  H17S15027   5.388   0.678   8.827 -0.7536 -1.0835  2.1241
  138SAPE  C21815028   5.494   0.853   8.867  0.1951 -0.2238 -0.2866
  138SAPE  H18R15029   5.514   0.929   8.946 -0.1613 -0.1291 -0.2874
  138SAPE  H18S15030   5.476   0.895   8.766 -0.2398 -3.8867 -1.8928
  138SAPE  C21915031   5.628   0.781   8.845  0.3284  0.3717 -0.3906
  138SAPE  H19R15032   5.625   0.709   8.760 -1.2170  1.4826 -1.3256
  138SAPE  H19S15033   5.641   0.720   8.937 -2.0233  2.2180  1.3098
  138SAPE  C22015034   5.743   0.879   8.832 -0.6030  0.0028  0.4040
  138SAPE  H20R15035   5.828   0.830   8.780 -0.9001 -0.6814  0.5551
  138SAPE  H20S15036   5.782   0.920   8.928 -0.5923  0.4157  0.2224
  138SAPE  H20T15037   5.712   0.963   8.767  0.1693 -0.5890 -0.7717
  138SAPE   C3315038   4.831   0.899  10.050  0.0774 -0.3165  0.0872
  138SAPE   H3X15039   4.855   0.861   9.949 -2.0451  0.9336 -0.9670
  138SAPE   H3Y15040   4.911   0.968  10.083 -1.2441  2.0382 -1.3691
  138SAPE   C3415041   4.719   0.996  10.042 -0.5236 -0.2944 -0.4681
  138SAPE   H4X15042   4.701   1.053  10.136 -0.7938  1.3384 -1.4609
  138SAPE   H4Y15043   4.626   0.941  10.016 -0.6577 -0.0149 -0.5898
  138SAPE   C3515044   4.746   1.113   9.942 -0.0019  0.0647  0.1056
  138SAPE   H5X15045   4.854   1.143   9.940 -0.5430  2.3646  1.2293
  138SAPE   H5Y15046   4.689   1.205   9.967  0.3892 -0.0813  1.6496
  138SAPE   C3615047   4.688   1.073   9.803  0.5474 -0.0714 -0.0453
  138SAPE   H6X15048   4.588   1.118   9.792  0.6250  0.2546  0.5310
  138SAPE   H6Y15049   4.693   0.962   9.809 -0.3988 -0.1859 -1.1121
  138SAPE   C3715050   4.774   1.114   9.681 -0.7190  1.0884  0.1794
  138SAPE   H7X15051   4.862   1.047   9.687 -0.6619  1.2129  0.7277
  138SAPE   H7Y15052   4.811   1.219   9.678 -0.6870  1.1204  1.4554
  138SAPE   C3815053   4.714   1.095   9.536 -0.2172  0.5947 -0.1377
  138SAPE   H8X15054   4.635   1.169   9.511  0.8914  1.6195 -0.7112
  138SAPE   H8Y15055   4.661   0.999   9.553 -0.2650  0.5416 -0.5896
  138SAPE   C3915056   4.814   1.075   9.423  0.0541  0.1863 -0.0466
  138SAPE   H9X15057   4.858   0.973   9.422 -2.1274 -0.8227 -2.1462
  138SAPE   H9Y15058   4.893   1.149   9.446 -0.6548  1.0747 -0.4197
  138SAPE  C31015059   4.757   1.101   9.282  0.1152 -0.2741  0.4412
  138SAPE  H10X15060   4.717   1.204   9.275 -0.2195 -0.4834 -1.1778
  138SAPE  H10Y15061   4.679   1.025   9.259  1.3398 -1.0606 -1.3600
  138SAPE  C31115062   4.865   1.092   9.177 -0.1309  0.8021  0.1187
  138SAPE  H11X15063   4.909   0.992   9.196 -0.8620  0.5106  0.3100
  138SAPE  H11Y15064   4.950   1.162   9.191  1.1842 -0.9718  1.3400
  138SAPE  C31215065   4.818   1.096   9.032  0.7216  0.0548 -0.9782
  138SAPE  H12X15066   4.753   1.186   9.019  1.4233  0.8991  0.9640
  138SAPE  H12Y15067   4.746   1.013   9.012 -0.9467  0.9757  0.8996
  138SAPE  C31315068   4.938   1.085   8.937  0.2876 -0.2921  0.0987
  138SAPE  H13X15069   5.013   1.015   8.981 -1.2751 -2.9982 -1.3352
  138SAPE  H13Y15070   4.989   1.184   8.929  1.3610 -0.9206 -1.3116
  138SAPE  C31415071   4.900   1.049   8.793 -0.3030 -0.3066  0.6023
  138SAPE  H14X15072   4.821   0.972   8.805 -1.1635  0.3220 -0.7432
  138SAPE  H14Y15073   4.989   1.004   8.744 -0.7613 -0.6533  0.0680
  138SAPE  C31515074   4.848   1.162   8.704  0.3448  0.2934 -0.0686
  138SAPE  H15X15075   4.919   1.247   8.692 -2.2467  2.4143 -1.2119
  138SAPE  H15Y15076   4.759   1.203   8.756 -1.5360 -1.7160 -1.5525
  138SAPE  C31615077   4.799   1.120   8.563  0.0337 -0.3209  0.5049
  138SAPE  H16X15078   4.759   1.016   8.565 -2.5297  0.5879  1.7819
  138SAPE  H16Y15079   4.884   1.119   8.492 -0.5362  2.4299 -0.3672
  138SAPE  C31715080   4.700   1.214   8.487 -1.0161 -0.9884 -0.4795
  138SAPE  H17X15081   4.676   1.138   8.409  1.1382 -0.6471 -1.5498
  138SAPE  H17Y15082   4.751   1.302   8.442 -2.7199  0.1803 -0.2377
  138SAPE  C31815083   4.582   1.253   8.568 -0.1704  0.3166  0.1714
  138SAPE  H18X15084   4.522   1.324   8.509 -0.5653 -0.0660  0.1105
  138SAPE  H18Y15085   4.600   1.300   8.667 -0.5488  2.4188 -0.6969
  138SAPE  H18Z15086   4.513   1.169   8.588 -1.5283  1.3867  0.0879
  139SAPE     N15087   3.617   5.197  10.427 -0.4293  0.0589  0.0989
  139SAPE   HN115088   3.631   5.282  10.368 -1.2356  0.4204  0.4238
  139SAPE   HN215089   3.577   5.116  10.377  0.2273  0.4534 -1.1211
  139SAPE   HN315090   3.554   5.214  10.507  1.4301  0.6164  1.5219
  139SAPE   C1215091   3.747   5.157  10.486 -0.9144  1.1704 -0.2164
  139SAPE  H12A15092   3.807   5.127  10.398 -0.4584  2.7660 -0.4845
  139SAPE  H12B15093   3.733   5.072  10.557  1.4749 -0.3294 -1.4312
  139SAPE   C1115094   3.815   5.279  10.543  0.3308  0.1253 -0.3692
  139SAPE  H11A15095   3.910   5.240  10.587 -1.3354 -4.3900 -0.2432
  139SAPE  H11B15096   3.752   5.331  10.618  0.6171  1.4446 -0.9996
  139SAPE     P15097   3.889   5.514  10.476 -0.3316 -0.0623  0.1211
  139SAPE   O1315098   3.829   5.619  10.398  0.7938  0.1193 -0.1813
  139SAPE   O1415099   3.886   5.537  10.624  0.4050  0.2186  0.0316
  139SAPE   O1215100   3.837   5.371  10.438 -0.1878  0.0892  0.1331
  139SAPE   O1115101   4.044   5.513  10.441  0.9422 -0.3452  0.7345
  139SAPE    C115102   4.114   5.402  10.386 -0.4275 -0.2822 -0.7678
  139SAPE    HA15103   4.213   5.396  10.437 -0.1463 -1.7744 -1.4361
  139SAPE    HB15104   4.072   5.303  10.415 -1.1022  0.0225 -0.6734
  139SAPE    C215105   4.135   5.395  10.237 -0.3316  0.0978 -0.6288
  139SAPE    HS15106   4.195   5.309  10.203 -0.0859 -0.2275  0.5608
  139SAPE   O2115107   4.195   5.522  10.200  0.4951 -0.0426  0.5221
  139SAPE   C2115108   4.327   5.512  10.190 -0.2725 -0.1415 -0.1995
  139SAPE   O2215109   4.399   5.421  10.227 -0.3920  0.1610 -0.4311
  139SAPE   C2215110   4.381   5.643  10.128  0.1189 -0.0119  0.1219
  139SAPE   H2R15111   4.333   5.729  10.179  0.1266 -0.4481  0.8867
  139SAPE   H2S15112   4.492   5.643  10.132  0.1423  0.0555 -0.4029
  139SAPE    C315113   3.997   5.371  10.161 -0.6900 -0.1874  0.6102
  139SAPE    HX15114   3.932   5.459  10.179 -0.9076  0.3093 -2.2400
  139SAPE    HY15115   3.955   5.277  10.202 -0.4874 -0.9654 -0.8885
  139SAPE   O3115116   4.017   5.348  10.018 -0.0413 -0.3027 -1.0155
  139SAPE   C3115117   3.907   5.370   9.943 -0.1073 -0.5788 -0.5718
  139SAPE   O3215118   3.797   5.401   9.983 -0.1218  0.0529 -0.2105
  139SAPE   C3215119   3.940   5.341   9.800 -0.2063 -0.1669  0.3854
  139SAPE   H2X15120   4.044   5.301   9.792 -0.1137  0.3146 -1.0613
  139SAPE   H2Y15121   3.934   5.434   9.741  1.2462 -1.2775 -1.6208
  139SAPE   C2315122   4.364   5.659   9.975  0.4276  0.6378 -0.4533
  139SAPE   H3R15123   4.402   5.759   9.943  4.4459 -0.4163  0.5162
  139SAPE   H3S15124   4.258   5.656   9.941 -0.0410 -0.0653  0.9825
  139SAPE   C2415125   4.440   5.556   9.893 -0.1242  0.8326  0.2208
  139SAPE   H4R15126   4.383   5.461   9.885 -1.7094  1.8559 -1.7777
  139SAPE   H4S15127   4.538   5.545   9.944  0.2101  0.4494 -0.4833
  139SAPE   C2515128   4.475   5.602   9.756 -0.6479 -0.3777 -0.5947
  139SAPE   H5R15129   4.548   5.684   9.767 -0.3443 -0.8684  1.3872
  139SAPE   C2615130   4.439   5.560   9.634  0.2301 -0.8154 -0.6439
  139SAPE   H6R15131   4.480   5.615   9.548 -0.6647  2.2535  0.7668
  139SAPE   C2715132   4.345   5.453   9.595  1.1678 -0.2033 -0.5847
  139SAPE   H7R15133   4.311   5.399   9.687 -0.9473  1.0902 -0.5296
  139SAPE   H7S15134   4.401   5.390   9.523 -0.1387 -0.2166 -1.6412
  139SAPE   C2815135   4.227   5.514   9.529  0.6701 -0.8321  0.3153
  139SAPE   H8R15136   4.153   5.569   9.590  0.2557 -0.4947 -0.4862
  139SAPE   C2915137   4.214   5.529   9.392 -0.6186 -0.5821 -0.5421
  139SAPE   H9R15138   4.124   5.577   9.350  0.2673 -1.3305 -3.5007
  139SAPE  C21015139   4.312   5.491   9.281  0.9722  0.0079 -0.4308
  139SAPE  H10R15140   4.253   5.480   9.188  1.7291 -0.8706 -0.8200
  139SAPE  H10S15141   4.357   5.393   9.308  1.9406  0.0305 -1.8658
  139SAPE  C21115142   4.418   5.597   9.273  0.7595 -0.8290 -0.2052
  139SAPE  H11R15143   4.384   5.699   9.247  1.0663 -0.8949 -0.8917
  139SAPE  C21215144   4.551   5.572   9.271  0.2281 -0.0543  0.8590
  139SAPE  H12R15145   4.626   5.650   9.253 -0.8162  0.4913 -1.5375
  139SAPE  C21315146   4.623   5.439   9.290  1.1394 -0.4280  0.7555
  139SAPE  H13R15147   4.650   5.402   9.188 -0.5457  1.7753 -0.5888
  139SAPE  H13S15148   4.557   5.358   9.328 -0.3378 -0.3510 -1.4587
  139SAPE  C21415149   4.751   5.441   9.368  0.3971 -0.8198  0.0935
  139SAPE  H14R15150   4.770   5.524   9.437 -2.2188  1.6112 -1.8454
  139SAPE  C21515151   4.847   5.355   9.348 -0.5712  0.0621 -0.7593
  139SAPE  H15R15152   4.932   5.353   9.418 -0.0296 -0.0539 -1.3986
  139SAPE  C21615153   4.849   5.244   9.250 -0.1610 -0.3240  0.2194
  139SAPE  H16R15154   4.747   5.207   9.227 -1.2372  0.8955  2.7537
  139SAPE  H16S15155   4.904   5.156   9.291  1.9170  0.4733 -0.7387
  139SAPE  C21715156   4.922   5.287   9.120  0.3369  0.0309 -0.4263
  139SAPE  H17R15157   4.868   5.367   9.066 -0.0053 -0.5716 -0.9856
  139SAPE  H17S15158   4.920   5.203   9.048  1.8162  1.7449 -2.5797
  139SAPE  C21815159   5.073   5.325   9.136 -0.4467  0.1421  0.7509
  139SAPE  H18R15160   5.131   5.260   9.204 -0.3653  0.0753  0.6180
  139SAPE  H18S15161   5.079   5.428   9.177  0.3162  0.3731  0.0952
  139SAPE  C21915162   5.148   5.320   9.004  0.5109 -0.2763 -0.9804
  139SAPE  H19R15163   5.095   5.380   8.928 -3.0467  0.7555  2.0140
  139SAPE  H19S15164   5.136   5.215   8.973 -2.0031 -0.1021 -0.8134
  139SAPE  C22015165   5.299   5.351   9.030  0.7175  0.2727  0.2479
  139SAPE  H20R15166   5.347   5.331   8.932 -2.1603 -2.5650 -0.7796
  139SAPE  H20S15167   5.347   5.288   9.108  1.9326 -0.1867 -0.8320
  139SAPE  H20T15168   5.315   5.457   9.059  0.7595  0.0747  0.9564
  139SAPE   C3315169   3.840   5.236   9.742  0.5050  0.6453  0.5444
  139SAPE   H3X15170   3.742   5.256   9.790 -1.1200  1.9627 -2.9944
  139SAPE   H3Y15171   3.882   5.138   9.770  0.9520  0.4396 -0.7702
  139SAPE   C3415172   3.827   5.259   9.591  0.4722 -0.2842 -0.0876
  139SAPE   H4X15173   3.776   5.175   9.538 -0.2270 -0.3311  0.6316
  139SAPE   H4Y15174   3.930   5.268   9.552 -0.5898  0.3574 -2.9770
  139SAPE   C3515175   3.739   5.387   9.569 -0.9364 -0.4276 -0.0535
  139SAPE   H5X15176   3.771   5.467   9.640 -0.4616 -0.5639 -0.1112
  139SAPE   H5Y15177   3.635   5.372   9.607 -1.4010 -3.6842 -2.2069
  139SAPE   C3615178   3.730   5.426   9.423  0.1561 -0.2554  0.0077
  139SAPE   H6X15179   3.651   5.504   9.431  1.6565  1.8316 -3.1793
  139SAPE   H6Y15180   3.703   5.341   9.358 -0.3333  0.6416 -1.0065
  139SAPE   C3715181   3.869   5.489   9.376  0.4995 -0.1703  0.2110
  139SAPE   H7X15182   3.949   5.413   9.385  1.7930  1.2705  1.7670
  139SAPE   H7Y15183   3.895   5.570   9.448 -0.9425  1.5546 -1.1026
  139SAPE   C3815184   3.853   5.556   9.239 -0.4266 -0.2886  0.0761
  139SAPE   H8X15185   3.950   5.603   9.211 -0.1721 -0.8446  0.0073
  139SAPE   H8Y15186   3.782   5.640   9.245 -0.1807 -0.0192 -0.6034
  139SAPE   C3915187   3.820   5.457   9.127 -0.2213 -0.5693  0.4930
  139SAPE   H9X15188   3.715   5.422   9.131  0.0950 -1.7593 -0.8830
  139SAPE   H9Y15189   3.882   5.366   9.134  0.2346 -0.1995  1.5423
  139SAPE  C31015190   3.844   5.511   8.989  0.3299  0.0573 -0.3843
  139SAPE  H10X15191   3.953   5.510   8.968  0.5733  1.2406  0.7384
  139SAPE  H10Y15192   3.809   5.616   8.977  1.6473  0.4669 -0.7531
  139SAPE  C31115193   3.768   5.421   8.889  0.0948  0.0011 -0.7061
  139SAPE  H11X15194   3.665   5.397   8.924 -0.1754 -1.1644 -2.1575
  139SAPE  H11Y15195   3.818   5.322   8.878  2.2483  0.9291  0.2308
  139SAPE  C31215196   3.744   5.484   8.746  0.7547  0.2050  0.2217
  139SAPE  H12X15197   3.706   5.587   8.762  0.9277  0.1475  1.0364
  139SAPE  H12Y15198   3.664   5.432   8.689  1.1512  1.3480 -1.4657
  139SAPE  C31315199   3.872   5.481   8.667 -0.4357 -0.3380  0.6427
  139SAPE  H13X15200   3.898   5.373   8.658 -1.6601 -0.4610 -2.9224
  139SAPE  H13Y15201   3.955   5.529   8.723  0.8117 -0.1357 -1.2491
  139SAPE  C31415202   3.873   5.565   8.535  0.8186  0.2778 -0.4934
  139SAPE  H14X15203   3.872   5.673   8.562 -0.2187  0.3174 -0.6889
  139SAPE  H14Y15204   3.781   5.549   8.476  1.0903  0.7018 -1.0468
  139SAPE  C31515205   3.990   5.547   8.442 -0.0897 -0.6431 -0.0542
  139SAPE  H15X15206   4.078   5.588   8.496 -0.6030 -1.2188  1.2550
  139SAPE  H15Y15207   3.971   5.609   8.352  1.9784 -2.2596 -1.7075
  139SAPE  C31615208   4.024   5.403   8.394  0.1163 -0.0550 -0.0573
  139SAPE  H16X15209   4.065   5.343   8.478  0.9992  0.6954  0.0651
  139SAPE  H16Y15210   3.932   5.356   8.353  0.2310 -0.8162  0.5228
  139SAPE  C31715211   4.140   5.388   8.290  0.2413  0.3399  0.4506
  139SAPE  H17X15212   4.120   5.438   8.193  1.3598 -0.8050 -0.3960
  139SAPE  H17Y15213   4.169   5.283   8.273  1.6003  0.9397 -1.2372
  139SAPE  C31815214   4.273   5.459   8.328 -0.0337  0.1224  0.1609
  139SAPE  H18X15215   4.277   5.570   8.320 -0.2902  0.2256  1.3733
  139SAPE  H18Y15216   4.353   5.409   8.269  0.1998  0.7528 -0.0581
  139SAPE  H18Z15217   4.310   5.433   8.429 -3.5178 -2.5388  0.9584
  140SAPE     N15218   1.241   1.470  11.184 -0.6040 -0.1583 -0.3547
  140SAPE   HN115219   1.337   1.468  11.224 -0.3646  2.2561 -0.6766
  140SAPE   HN215220   1.224   1.572  11.183  2.8300  0.5201 -1.8213
  140SAPE   HN315221   1.164   1.428  11.241 -1.7567  4.0326  1.6015
  140SAPE   C1215222   1.247   1.422  11.040 -0.0771 -0.8237  0.0868
  140SAPE  H12A15223   1.140   1.414  11.013  0.1933 -3.2508 -0.4918
  140SAPE  H12B15224   1.284   1.317  11.031 -2.0316 -1.5442 -0.0188
  140SAPE   C1115225   1.320   1.523  10.946 -0.2544  0.4926 -0.4894
  140SAPE  H11A15226   1.281   1.627  10.947  0.8460  0.9157  0.5546
  140SAPE  H11B15227   1.323   1.488  10.840  1.5908  1.6427 -0.8644
  140SAPE     P15228   1.572   1.433  10.928 -0.1067 -0.0587 -0.0596
  140SAPE   O1315229   1.658   1.390  11.041  0.2163 -0.6374 -0.4082
  140SAPE   O1415230   1.514   1.323  10.842 -0.1098  0.1465 -0.1786
  140SAPE   O1215231   1.462   1.534  10.991 -0.5571 -0.2916 -0.3253
  140SAPE   O1115232   1.673   1.518  10.840  0.0771 -0.5791 -0.6573
  140SAPE    C115233   1.626   1.643  10.786 -0.4811 -0.5645 -0.5174
  140SAPE    HA15234   1.558   1.695  10.857 -0.0167  1.3750 -1.4244
  140SAPE    HB15235   1.711   1.714  10.775 -0.6246 -0.2169  0.5482
  140SAPE    C215236   1.563   1.628  10.643 -0.5081 -0.4287  0.6194
  140SAPE    HS15237   1.458   1.593  10.650 -0.5920 -0.2902  0.1202
  140SAPE   O2115238   1.640   1.535  10.559  0.3341  0.0580 -0.2353
  140SAPE   C2115239   1.574   1.466  10.452  0.4259 -0.3236 -0.4183
  140SAPE   O2215240   1.454   1.470  10.435  0.3852 -0.4301 -0.0717
  140SAPE   C2215241   1.658   1.391  10.359 -0.1362 -0.5371 -0.1210
  140SAPE   H2R15242   1.677   1.284  10.383 -1.5999 -1.1688 -1.5502
  140SAPE   H2S15243   1.611   1.376  10.259  0.6751  0.0822 -0.6078
  140SAPE    C315244   1.557   1.762  10.569 -0.4834 -0.5260 -0.5229
  140SAPE    HX15245   1.660   1.804  10.566 -0.3813 -0.7885 -0.6903
  140SAPE    HY15246   1.508   1.835  10.637 -0.2450 -1.3111  0.5239
  140SAPE   O3115247   1.495   1.744  10.440  0.5719 -0.1739 -0.6236
  140SAPE   C3115248   1.366   1.757  10.441  0.0773 -0.1295 -0.0263
  140SAPE   O3215249   1.302   1.784  10.539  0.0668 -0.3214 -0.4782
  140SAPE   C3215250   1.301   1.756  10.293 -0.7919  0.8828  0.0327
  140SAPE   H2X15251   1.356   1.842  10.249 -0.8916  0.6056 -0.6460
  140SAPE   H2Y15252   1.192   1.773  10.300 -1.1006 -0.6607 -0.6008
  140SAPE   C2315253   1.795   1.452  10.324 -0.0541 -0.3281  0.0100
  140SAPE   H3R15254   1.866   1.368  10.307 -0.3244 -0.1603 -2.1754
  140SAPE   H3S15255   1.835   1.511  10.409 -1.0584 -0.7560  0.8067
  140SAPE   C2415256   1.777   1.546  10.199  0.5628  0.4396  0.4434
  140SAPE   H4R15257   1.726   1.489  10.118 -1.9393  2.0420  0.7798
  140SAPE   H4S15258   1.880   1.581  10.174  1.9437 -3.1693  0.4675
  140SAPE   C2515259   1.695   1.668  10.218  0.3036  0.5208 -0.1240
  140SAPE   H5R15260   1.694   1.709  10.320  0.2204  0.1653  0.0211
  140SAPE   C2615261   1.628   1.733  10.120  0.3760 -0.8769  0.4807
  140SAPE   H6R15262   1.562   1.815  10.148 -0.8684 -1.6668 -0.0554
  140SAPE   C2715263   1.625   1.709   9.972 -0.0803 -0.4165  0.4120
  140SAPE   H7R15264   1.536   1.643   9.962  0.1165 -0.6088 -0.1560
  140SAPE   H7S15265   1.711   1.656   9.925 -0.2693 -0.7197  0.4056
  140SAPE   C2815266   1.610   1.828   9.882 -0.1753 -1.0346 -0.0885
  140SAPE   H8R15267   1.585   1.929   9.920  3.2511 -0.7940  1.8684
  140SAPE   C2915268   1.646   1.816   9.752  0.1542 -0.2552 -0.3536
  140SAPE   H9R15269   1.651   1.913   9.699  1.2132 -0.1328 -0.0567
  140SAPE  C21015270   1.688   1.709   9.663 -0.0671  0.5190  0.3278
  140SAPE  H10R15271   1.695   1.615   9.722  1.1143  1.2425  1.4192
  140SAPE  H10S15272   1.794   1.718   9.630 -0.3929  0.7985 -0.6583
  140SAPE  C21115273   1.589   1.688   9.554 -0.7497 -0.2901  0.3111
  140SAPE  H11R15274   1.492   1.737   9.571 -1.9575 -3.1714  2.5816
  140SAPE  C21215275   1.606   1.629   9.432 -0.0391  0.5970 -0.2116
  140SAPE  H12R15276   1.519   1.629   9.364 -0.6927 -0.8674  0.5723
  140SAPE  C21315277   1.736   1.567   9.386 -0.0308 -0.3505  0.0726
  140SAPE  H13R15278   1.748   1.462   9.420 -2.8471 -1.0562 -0.8245
  140SAPE  H13S15279   1.827   1.623   9.418  0.1173 -0.5411 -0.0202
  140SAPE  C21415280   1.728   1.559   9.238  0.0043  0.3044 -0.2900
  140SAPE  H14R15281   1.762   1.649   9.185 -2.2494  1.6718  0.4462
  140SAPE  C21515282   1.676   1.452   9.166  0.2294 -0.7098  0.2024
  140SAPE  H15R15283   1.680   1.451   9.057 -0.0700 -1.0551  0.1902
  140SAPE  C21615284   1.612   1.328   9.224 -0.2036  0.2164  0.1000
  140SAPE  H16R15285   1.566   1.362   9.320  0.6643  4.0502 -0.6721
  140SAPE  H16S15286   1.692   1.254   9.245 -2.2304 -1.7512  1.4436
  140SAPE  C21715287   1.508   1.257   9.134 -0.3731  0.2315  0.4238
  140SAPE  H17R15288   1.459   1.330   9.067 -1.1322 -2.4620 -2.2005
  140SAPE  H17S15289   1.423   1.214   9.191 -0.2936 -0.4695  0.0259
  140SAPE  C21815290   1.573   1.166   9.020  0.1510  0.0987  0.2473
  140SAPE  H18R15291   1.624   1.083   9.074 -3.0190 -1.5602  0.8971
  140SAPE  H18S15292   1.642   1.231   8.962  1.0167 -1.6479 -0.7492
  140SAPE  C21915293   1.479   1.101   8.921  0.1766 -0.0773  0.0164
  140SAPE  H19R15294   1.543   1.047   8.847  0.6861 -0.0271  0.4143
  140SAPE  H19S15295   1.435   1.180   8.857  0.2650 -0.1598 -0.1457
  140SAPE  C22015296   1.374   1.007   8.971 -0.0433  0.4712 -0.5122
  140SAPE  H20R15297   1.309   1.066   9.039  0.5718 -1.6108  2.0421
  140SAPE  H20S15298   1.415   0.918   9.024 -1.1381  0.1211 -0.2159
  140SAPE  H20T15299   1.309   0.976   8.886 -1.2806 -0.0166  0.5658
  140SAPE   C3315300   1.319   1.622  10.218 -0.1959  0.2420  0.2024
  140SAPE   H3X15301   1.272   1.545  10.284  2.1285 -1.3143  0.1732
  140SAPE   H3Y15302   1.425   1.600  10.196 -0.4340  1.5594 -2.6755
  140SAPE   C3415303   1.233   1.612  10.092  0.1150 -0.0388 -0.3136
  140SAPE   H4X15304   1.260   1.703  10.034 -2.0072 -0.3574 -1.9057
  140SAPE   H4Y15305   1.125   1.630  10.112 -0.0725  0.6726 -1.8110
  140SAPE   C3515306   1.257   1.490  10.009  0.2811 -0.6298  0.6463
  140SAPE   H5X15307   1.211   1.404  10.061 -0.4717 -0.3825  0.4055
  140SAPE   H5Y15308   1.364   1.470   9.987  0.5799  0.9735  0.5140
  140SAPE   C3615309   1.189   1.511   9.865 -0.1233  0.1401 -0.6405
  140SAPE   H6X15310   1.090   1.555   9.891 -0.6948 -1.0076 -0.8295
  140SAPE   H6Y15311   1.175   1.409   9.825  1.6807  0.2242 -1.6194
  140SAPE   C3715312   1.275   1.603   9.772  0.0558  0.2461  0.6605
  140SAPE   H7X15313   1.375   1.556   9.767  0.4989  1.1881  0.3268
  140SAPE   H7Y15314   1.290   1.706   9.810 -2.2900  0.4369  1.1846
  140SAPE   C3815315   1.208   1.628   9.640  0.6203  0.1501  0.1764
  140SAPE   H8X15316   1.267   1.710   9.593 -2.5417  2.2801 -0.3777
  140SAPE   H8Y15317   1.108   1.674   9.652 -0.5754 -2.1480 -0.5118
  140SAPE   C3915318   1.215   1.501   9.559  1.1227 -0.3463  0.8345
  140SAPE   H9X15319   1.133   1.432   9.590 -1.8942  2.2467 -0.7525
  140SAPE   H9Y15320   1.309   1.448   9.583  1.9683  0.2866 -0.8958
  140SAPE  C31015321   1.195   1.534   9.403  0.0519  0.2595 -0.9201
  140SAPE  H10X15322   1.288   1.585   9.370  0.3423  0.6578  0.4568
  140SAPE  H10Y15323   1.110   1.603   9.385  0.0483  0.2434 -0.9640
  140SAPE  C31115324   1.171   1.399   9.329 -0.0430 -0.7032 -0.1974
  140SAPE  H11X15325   1.077   1.357   9.370 -0.3727 -0.0254 -0.2467
  140SAPE  H11Y15326   1.257   1.329   9.342 -0.6300 -1.1652  1.5468
  140SAPE  C31215327   1.164   1.424   9.177  0.1574  0.0279  0.8728
  140SAPE  H12X15328   1.264   1.461   9.145 -0.5813  0.7501 -0.7454
  140SAPE  H12Y15329   1.100   1.514   9.161 -1.3400 -1.2035 -0.4351
  140SAPE  C31315330   1.116   1.304   9.093  0.2436  0.1432  0.3412
  140SAPE  H13X15331   1.043   1.248   9.155  0.7922 -1.5274 -0.4659
  140SAPE  H13Y15332   1.195   1.232   9.061  1.7325  1.2600  1.3315
  140SAPE  C31415333   1.043   1.345   8.961 -0.2800  0.1247  0.0176
  140SAPE  H14X15334   1.105   1.389   8.880 -2.3019  2.4336 -0.3813
  140SAPE  H14Y15335   0.963   1.419   8.983 -2.4853 -1.9611 -0.5266
  140SAPE  C31515336   0.977   1.223   8.885 -0.0431  0.3771 -0.4634
  140SAPE  H15X15337   0.943   1.153   8.964  1.7214  1.7288  1.6165
  140SAPE  H15Y15338   1.046   1.171   8.816 -1.4889  0.3730 -1.9761
  140SAPE  C31615339   0.851   1.267   8.794  0.3282 -0.6282 -0.4509
  140SAPE  H16X15340   0.790   1.315   8.874  1.4027  0.1056 -0.0528
  140SAPE  H16Y15341   0.793   1.178   8.762 -2.7001  0.7906  0.6014
  140SAPE  C31715342   0.878   1.360   8.679 -0.4070 -0.3710  0.7213
  140SAPE  H17X15343   0.946   1.444   8.706  0.1649 -0.7297  0.4009
  140SAPE  H17Y15344   0.785   1.408   8.639 -0.3860 -0.0068  1.0982
  140SAPE  C31815345   0.944   1.305   8.550 -0.6714 -0.3382 -0.6635
  140SAPE  H18X15346   0.956   1.377   8.466  1.1459  0.1832 -0.0079
  140SAPE  H18Y15347   0.878   1.220   8.522 -1.8984  0.2745  0.2180
  140SAPE  H18Z15348   1.046   1.268   8.571 -0.5056  0.7303  0.5752
  141SAPE     N15349   6.175   3.335  10.873 -0.0609 -0.1597  0.6880
  141SAPE   HN115350   6.242   3.394  10.821 -0.2137 -0.7999 -0.2678
  141SAPE   HN215351   6.147   3.272  10.795  0.5179 -0.1552  0.4729
  141SAPE   HN315352   6.095   3.399  10.889 -0.0405  1.0021 -3.0218
  141SAPE   C1215353   6.247   3.282  10.997  0.3902 -0.8147 -0.9383
  141SAPE  H12A15354   6.174   3.213  11.043  1.6349 -2.0660 -0.7808
  141SAPE  H12B15355   6.247   3.361  11.075 -4.4953 -3.1145  1.8729
  141SAPE   C1115356   6.380   3.220  10.972 -0.1795 -0.3978  0.2062
  141SAPE  H11A15357   6.426   3.198  11.071  0.1903  0.1956  0.1674
  141SAPE  H11B15358   6.450   3.298  10.935  0.0181 -1.1753 -1.1238
  141SAPE     P15359   6.402   2.969  10.950  0.5210 -0.1217 -0.2776
  141SAPE   O1315360   6.549   2.957  10.981  0.4375  0.3343  0.3860
  141SAPE   O1415361   6.301   2.939  11.059  0.1306 -0.0906  0.7108
  141SAPE   O1215362   6.375   3.113  10.888  0.1620  0.4338 -0.2454
  141SAPE   O1115363   6.381   2.879  10.822  0.1409 -0.1088  0.5709
  141SAPE    C115364   6.255   2.881  10.755 -0.6033  0.6201  0.1155
  141SAPE    HA15365   6.213   2.779  10.763 -2.2778  1.3880  1.8026
  141SAPE    HB15366   6.178   2.953  10.790 -1.4345  1.6848 -3.4251
  141SAPE    C215367   6.273   2.903  10.604 -0.6191  0.2481 -0.0931
  141SAPE    HS15368   6.340   2.822  10.569  1.2700  0.7029  2.2082
  141SAPE   O2115369   6.328   3.029  10.585 -0.1632  0.3943  0.2948
  141SAPE   C2115370   6.460   3.037  10.590  0.0027 -0.3373 -1.0366
  141SAPE   O2215371   6.538   2.943  10.600 -0.3973 -0.2053  0.0725
  141SAPE   C2215372   6.496   3.184  10.594 -0.5902 -0.1995  0.2371
  141SAPE   H2R15373   6.436   3.232  10.515  0.7844  0.4333 -0.4630
  141SAPE   H2S15374   6.464   3.234  10.688  1.4735  2.3103 -0.2755
  141SAPE    C315375   6.136   2.898  10.528 -0.2328 -0.5716 -0.5564
  141SAPE    HX15376   6.078   2.976  10.582  0.8176 -0.1323 -0.0207
  141SAPE    HY15377   6.083   2.802  10.541  2.3791 -2.7204 -4.0683
  141SAPE   O3115378   6.159   2.933  10.390  0.3318  0.6179  0.8321
  141SAPE   C3115379   6.117   3.051  10.345  0.1015  0.0868 -0.2899
  141SAPE   O3215380   6.069   3.145  10.411 -0.7468 -0.7472  0.3492
  141SAPE   C3215381   6.112   3.042  10.185 -0.3866  0.1883  0.6240
  141SAPE   H2X15382   6.008   3.010  10.163  0.4520 -2.8118  0.5520
  141SAPE   H2Y15383   6.180   2.961  10.152  1.1488  2.3605 -1.9852
  141SAPE   C2315384   6.650   3.224  10.582 -0.3951 -0.0378 -0.0466
  141SAPE   H3R15385   6.698   3.169  10.666  0.3343 -2.0272 -1.6710
  141SAPE   H3S15386   6.664   3.332  10.602 -3.6517  0.5208 -0.1549
  141SAPE   C2415387   6.702   3.170  10.446 -0.9097  0.5110 -0.0107
  141SAPE   H4R15388   6.624   3.122  10.383 -1.0681 -0.6224  1.0053
  141SAPE   H4S15389   6.775   3.088  10.465 -2.8103 -1.8611 -2.0926
  141SAPE   C2515390   6.762   3.279  10.366 -0.1348 -0.3037 -0.6326
  141SAPE   H5R15391   6.805   3.368  10.413  1.2341 -0.1665 -2.0398
  141SAPE   C2615392   6.776   3.275  10.232  0.3602 -0.0006  0.3214
  141SAPE   H6R15393   6.822   3.363  10.185  0.2347  0.0371  0.2671
  141SAPE   C2715394   6.744   3.172  10.130 -0.1587 -0.5724 -0.1364
  141SAPE   H7R15395   6.678   3.209  10.048 -0.3245 -1.0883 -0.2386
  141SAPE   H7S15396   6.697   3.086  10.182 -0.1476 -1.5937 -1.7284
  141SAPE   C2815397   6.877   3.138  10.061  0.2664 -0.2198 -0.1462
  141SAPE   H8R15398   6.926   3.051  10.106  0.5737 -0.4355 -0.8912
  141SAPE   C2915399   6.932   3.192   9.951 -0.2966 -0.6375  0.8148
  141SAPE   H9R15400   7.026   3.144   9.918  0.0398  0.7039 -0.2584
  141SAPE  C21015401   6.862   3.296   9.869 -0.2708 -0.0404  0.1068
  141SAPE  H10R15402   6.936   3.366   9.823 -2.4621  2.1457 -0.2763
  141SAPE  H10S15403   6.803   3.355   9.943 -1.6505  0.4007 -1.3130
  141SAPE  C21115404   6.779   3.236   9.761 -0.7052  0.0639 -0.0239
  141SAPE  H11R15405   6.679   3.197   9.783  0.3239 -1.2977  2.5905
  141SAPE  C21215406   6.813   3.236   9.624 -0.5008 -0.0134 -0.2467
  141SAPE  H12R15407   6.746   3.177   9.560  0.3202  0.2023 -1.3254
  141SAPE  C21315408   6.930   3.297   9.563  0.2914  0.3323 -0.0265
  141SAPE  H13R15409   6.989   3.222   9.505  1.5069 -0.3356  1.9994
  141SAPE  H13S15410   7.008   3.335   9.632  1.2985  0.3955 -1.1679
  141SAPE  C21415411   6.892   3.409   9.474  0.0436  0.5399 -0.1048
  141SAPE  H14R15412   6.924   3.505   9.518  1.3219  0.5978 -1.1066
  141SAPE  C21515413   6.841   3.395   9.350  0.0138  0.0810  0.0755
  141SAPE  H15R15414   6.802   3.488   9.305  1.5678  0.9212  0.4015
  141SAPE  C21615415   6.807   3.264   9.291 -0.3450  0.6313  0.2584
  141SAPE  H16R15416   6.712   3.231   9.337 -0.6044  1.6353  0.4662
  141SAPE  H16S15417   6.886   3.188   9.310  1.8310  2.2015 -1.9316
  141SAPE  C21715418   6.767   3.271   9.141  0.8646  0.3377 -0.5019
  141SAPE  H17R15419   6.672   3.329   9.138 -0.4463 -1.7012 -0.1767
  141SAPE  H17S15420   6.745   3.165   9.113 -0.2535 -0.2054  2.1666
  141SAPE  C21815421   6.859   3.342   9.042 -0.6499 -0.6487  0.2312
  141SAPE  H18R15422   6.936   3.263   9.029  0.0920  0.2598 -1.0497
  141SAPE  H18S15423   6.901   3.438   9.081 -1.7678  0.1178 -0.3983
  141SAPE  C21915424   6.807   3.361   8.897  0.2487  0.3992 -0.4386
  141SAPE  H19R15425   6.877   3.420   8.834  2.6317 -1.7346  0.0635
  141SAPE  H19S15426   6.718   3.427   8.896  2.1661  3.1740  0.0152
  141SAPE  C22015427   6.757   3.228   8.831  0.8064  0.3011  0.6359
  141SAPE  H20R15428   6.720   3.254   8.730  2.4322 -1.9134 -0.6177
  141SAPE  H20S15429   6.679   3.178   8.891 -0.7856 -0.8004 -2.1611
  141SAPE  H20T15430   6.854   3.174   8.817  1.6132  2.0103 -0.7780
  141SAPE   C3315431   6.167   3.165  10.112 -0.1075  0.7334  0.0054
  141SAPE   H3X15432   6.142   3.251  10.178  0.3173 -1.2763  2.9494
  141SAPE   H3Y15433   6.113   3.176  10.015 -1.0760  0.9208  0.5540
  141SAPE   C3415434   6.321   3.168  10.100  0.2990 -0.1728  0.1861
  141SAPE   H4X15435   6.367   3.163  10.201  0.6658  1.3778  0.1235
  141SAPE   H4Y15436   6.346   3.273  10.076  0.3876 -0.1433  0.4035
  141SAPE   C3515437   6.386   3.057  10.005 -0.7287 -0.1239  0.1917
  141SAPE   H5X15438   6.376   2.955  10.047  0.5214 -0.8306 -1.1400
  141SAPE   H5Y15439   6.492   3.086   9.984 -0.1843 -0.7182  1.9432
  141SAPE   C3615440   6.316   3.043   9.867 -0.3346  0.7910  0.1621
  141SAPE   H6X15441   6.213   3.010   9.893  0.3013 -2.1312 -0.6395
  141SAPE   H6Y15442   6.358   2.959   9.808 -2.0525 -0.0683  0.0899
  141SAPE   C3715443   6.318   3.165   9.778  0.1865 -0.6491 -0.4204
  141SAPE   H7X15444   6.417   3.168   9.727  0.0985 -1.2275 -0.6281
  141SAPE   H7Y15445   6.316   3.257   9.840  1.0145 -1.3115  0.6178
  141SAPE   C3815446   6.213   3.167   9.671 -1.2486 -0.5070 -0.2257
  141SAPE   H8X15447   6.216   3.260   9.610 -1.7607  0.5514  1.2908
  141SAPE   H8Y15448   6.120   3.174   9.731 -0.0174 -0.4397  1.7608
  141SAPE   C3915449   6.224   3.049   9.580 -0.2664  0.0442  0.8890
  141SAPE   H9X15450   6.167   2.965   9.626  1.9648 -1.6918  0.6970
  141SAPE   H9Y15451   6.328   3.012   9.564  0.6356  2.9868 -0.6912
  141SAPE  C31015452   6.173   3.079   9.440 -0.1946 -0.4456  0.6785
  141SAPE  H10X15453   6.086   3.147   9.449  0.1981  0.1838 -0.1784
  141SAPE  H10Y15454   6.129   2.983   9.403  1.4095 -1.1772  0.5622
  141SAPE  C31115455   6.281   3.132   9.351 -0.3896  0.4554  0.3627
  141SAPE  H11X15456   6.372   3.068   9.346  1.3601  2.6341  2.0007
  141SAPE  H11Y15457   6.316   3.231   9.387 -1.2686  1.1205 -0.5564
  141SAPE  C31215458   6.235   3.145   9.202 -0.1483 -0.2955  0.4840
  141SAPE  H12X15459   6.137   3.197   9.198  0.2389  0.4284  0.4229
  141SAPE  H12Y15460   6.214   3.043   9.162 -1.0167 -0.1334  0.5055
  141SAPE  C31315461   6.339   3.209   9.112  0.5837  0.3651 -0.5125
  141SAPE  H13X15462   6.431   3.148   9.102 -2.3859 -4.5597 -0.9095
  141SAPE  H13Y15463   6.367   3.302   9.167 -0.4174 -0.4484  1.4683
  141SAPE  C31415464   6.288   3.238   8.971 -1.0159 -0.6079  0.1140
  141SAPE  H14X15465   6.193   3.290   8.996  1.0878  2.3545  2.8684
  141SAPE  H14Y15466   6.260   3.140   8.927  0.8572 -2.4877  2.7767
  141SAPE  C31515467   6.377   3.326   8.879  0.6328 -0.2719 -0.1576
  141SAPE  H15X15468   6.478   3.281   8.882  0.1956 -1.2473  0.5400
  141SAPE  H15Y15469   6.365   3.431   8.914  1.4553  0.6505 -2.4162
  141SAPE  C31615470   6.332   3.338   8.731 -0.0221  0.3520  0.0935
  141SAPE  H16X15471   6.337   3.239   8.680 -1.8248  0.8834 -1.2439
  141SAPE  H16Y15472   6.396   3.407   8.672 -0.2325  1.1325  0.7645
  141SAPE  C31715473   6.186   3.378   8.715  0.3928 -0.5093 -0.6863
  141SAPE  H17X15474   6.117   3.311   8.771  2.9528 -1.4367  1.5555
  141SAPE  H17Y15475   6.149   3.359   8.612 -1.0200 -0.3663 -0.2175
  141SAPE  C31815476   6.166   3.521   8.764  0.0264 -0.6642  0.4048
  141SAPE  H18X15477   6.144   3.529   8.873 -1.4355  1.4975  0.0205
  141SAPE  H18Y15478   6.079   3.577   8.722  1.4896  1.2681 -0.1735
  141SAPE  H18Z15479   6.260   3.573   8.738 -1.3889  1.6611 -0.3920
  142SAPE     N15480   1.873   0.928  11.080  0.4721  0.1304  0.7418
  142SAPE   HN115481   1.897   0.873  11.165 -0.6540  0.8314  1.5324
  142SAPE   HN215482   1.816   1.012  11.102  0.4600  0.7840 -1.5640
  142SAPE   HN315483   1.810   0.873  11.019  0.8770  0.6093 -0.1363
  142SAPE   C1215484   2.004   0.961  11.013 -0.2044 -0.9190 -0.0437
  142SAPE  H12A15485   2.071   1.027  11.073 -0.0916  0.0557 -1.2045
  142SAPE  H12B15486   1.974   1.034  10.935 -0.4628  1.3539  2.0512
  142SAPE   C1115487   2.077   0.839  10.957  0.1427  0.0213  0.6177
  142SAPE  H11A15488   2.147   0.863  10.874 -2.2554  0.4634 -1.3833
  142SAPE  H11B15489   2.012   0.767  10.903 -0.9995  0.1208  1.8133
  142SAPE     P15490   2.137   0.639  11.122  0.3993 -0.2718  0.1176
  142SAPE   O1315491   2.243   0.606  11.219  0.1540  0.2652 -0.1213
  142SAPE   O1415492   2.001   0.636  11.179  0.0378  0.1712  0.0324
  142SAPE   O1215493   2.159   0.781  11.060 -0.1825  0.0931  0.2546
  142SAPE   O1115494   2.153   0.550  10.995 -0.2709  0.4738 -0.3936
  142SAPE    C115495   2.278   0.570  10.920 -0.6960  0.0678  0.6941
  142SAPE    HA15496   2.336   0.659  10.953  0.8971 -0.9643  0.7776
  142SAPE    HB15497   2.354   0.489  10.927 -1.9069 -1.5497 -2.4526
  142SAPE    C215498   2.249   0.594  10.768 -0.2732  0.3986  0.5879
  142SAPE    HS15499   2.167   0.668  10.779  0.3378  1.2207 -0.2507
  142SAPE   O2115500   2.205   0.470  10.708 -0.9447 -0.1479 -0.5045
  142SAPE   C2115501   2.111   0.490  10.621 -0.7623 -0.3007  0.2550
  142SAPE   O2215502   2.053   0.597  10.605 -0.0925 -0.5678 -0.1897
  142SAPE   C2215503   2.068   0.360  10.550  0.3827 -0.7993  0.2017
  142SAPE   H2R15504   2.162   0.303  10.562  2.0834  1.9679  1.0934
  142SAPE   H2S15505   1.971   0.332  10.596 -1.1477  1.1402 -1.5985
  142SAPE    C315506   2.374   0.654  10.692  0.0038  0.4904 -0.6766
  142SAPE    HX15507   2.451   0.575  10.685  0.9336  1.1489  1.5099
  142SAPE    HY15508   2.407   0.737  10.757 -1.6559  0.5873  0.0843
  142SAPE   O3115509   2.324   0.692  10.561 -0.2361 -0.0384 -0.0116
  142SAPE   C3115510   2.329   0.828  10.533  0.5321 -0.0851 -0.3968
  142SAPE   O3215511   2.352   0.914  10.614  0.2326 -0.3295  0.0614
  142SAPE   C3215512   2.317   0.851  10.382 -0.5122  0.3872  0.5832
  142SAPE   H2X15513   2.234   0.786  10.344  0.1488  0.3091 -0.8183
  142SAPE   H2Y15514   2.411   0.807  10.343 -1.7485 -1.6774 -0.2378
  142SAPE   C2315515   2.044   0.373  10.395  0.0933 -0.2583 -0.0443
  142SAPE   H3R15516   1.977   0.460  10.376 -0.7083 -0.7116  0.6660
  142SAPE   H3S15517   1.994   0.281  10.358 -2.4148  0.8318  0.4236
  142SAPE   C2415518   2.178   0.396  10.319  0.1791  0.5727 -0.0634
  142SAPE   H4R15519   2.242   0.319  10.367 -0.0006  1.1519  1.1270
  142SAPE   H4S15520   2.216   0.497  10.346 -0.4403  0.0875  2.8964
  142SAPE   C2515521   2.176   0.365  10.181  0.1557 -0.5309  0.5164
  142SAPE   H5R15522   2.190   0.260  10.149 -0.6030 -0.0971 -1.3740
  142SAPE   C2615523   2.174   0.458  10.076 -0.1569  0.4940 -0.9032
  142SAPE   H6R15524   2.184   0.412   9.977  0.3898 -2.4936  0.4377
  142SAPE   C2715525   2.174   0.607  10.081 -0.1536  0.5160 -0.1254
  142SAPE   H7R15526   2.261   0.649  10.026  1.3014 -2.2282 -0.0736
  142SAPE   H7S15527   2.195   0.639  10.186 -0.3001 -1.0364  0.3984
  142SAPE   C2815528   2.035   0.651  10.041 -0.3891  0.3939  0.2296
  142SAPE   H8R15529   1.953   0.629  10.111  0.5864 -1.7826  0.7735
  142SAPE   C2915530   2.010   0.711   9.920  0.1428 -0.2760 -0.4422
  142SAPE   H9R15531   1.913   0.761   9.920 -0.1171 -0.6470  1.8962
  142SAPE  C21015532   2.116   0.736   9.817 -0.5984  0.5504 -0.4028
  142SAPE  H10R15533   2.072   0.704   9.720 -1.7625  1.0879 -0.0721
  142SAPE  H10S15534   2.202   0.668   9.828 -1.6863 -1.0453 -1.3467
  142SAPE  C21115535   2.164   0.877   9.823 -0.6185 -0.1690 -0.6044
  142SAPE  H11R15536   2.205   0.904   9.922 -1.6868 -0.3807 -0.0885
  142SAPE  C21215537   2.162   0.962   9.718 -0.2277  0.5995  0.1256
  142SAPE  H12R15538   2.193   1.066   9.738  0.6223  0.1657  1.1579
  142SAPE  C21315539   2.117   0.918   9.575  0.6262 -0.4279 -0.7128
  142SAPE  H13R15540   2.147   0.812   9.560  2.7151 -0.2247  1.3519
  142SAPE  H13S15541   2.160   0.984   9.496 -0.2513 -0.8508 -1.5580
  142SAPE  C21415542   1.969   0.933   9.580 -0.1981  0.0691 -0.0043
  142SAPE  H14R15543   1.914   0.893   9.666 -0.6529  1.7911  0.5540
  142SAPE  C21515544   1.896   1.007   9.496  0.3157  0.5675  0.7984
  142SAPE  H15R15545   1.787   1.002   9.508  0.1805 -1.6505 -0.6798
  142SAPE  C21615546   1.938   1.094   9.382  0.3236 -0.4973  0.4144
  142SAPE  H16R15547   2.048   1.108   9.377  0.1029  0.9653 -1.8859
  142SAPE  H16S15548   1.893   1.194   9.398 -0.7551 -0.8818 -0.1252
  142SAPE  C21715549   1.887   1.049   9.250  0.2534  1.1215  0.0133
  142SAPE  H17R15550   1.914   1.114   9.164 -0.4632 -1.1725 -2.0753
  142SAPE  H17S15551   1.777   1.042   9.244  0.2042 -1.3050  2.3377
  142SAPE  C21815552   1.958   0.920   9.204 -0.7763  0.6623  0.4360
  142SAPE  H18R15553   1.935   0.845   9.283 -2.9847  0.9627  0.1301
  142SAPE  H18S15554   2.067   0.941   9.203 -0.3878 -1.0959  1.3209
  142SAPE  C21915555   1.914   0.868   9.064 -0.6267  1.0066  0.0979
  142SAPE  H19R15556   1.927   0.955   8.996 -2.5205  0.4768 -1.0099
  142SAPE  H19S15557   1.805   0.848   9.062 -0.2723 -1.5758  1.6882
  142SAPE  C22015558   1.988   0.740   9.014  0.1434  0.1481 -0.0823
  142SAPE  H20R15559   1.985   0.647   9.075  1.3282 -0.8107 -1.4369
  142SAPE  H20S15560   2.096   0.758   8.999  0.3421 -1.1772 -0.4094
  142SAPE  H20T15561   1.940   0.710   8.918 -1.0481  0.6186  0.3389
  142SAPE   C3315562   2.294   0.995  10.345 -0.3632 -0.0498 -0.0879
  142SAPE   H3X15563   2.381   1.056  10.377  0.0787 -1.2340  1.0358
  142SAPE   H3Y15564   2.212   1.036  10.408  0.5397  0.9027  0.5049
  142SAPE   C3415565   2.258   1.009  10.191  0.0030 -0.0836 -0.2421
  142SAPE   H4X15566   2.153   0.974  10.178 -0.3311  0.3552  1.0457
  142SAPE   H4Y15567   2.325   0.950  10.125  1.7805  2.4031 -0.8008
  142SAPE   C3515568   2.276   1.150  10.143 -1.4634  0.1546  0.2725
  142SAPE   H5X15569   2.378   1.188  10.164 -0.6304 -2.4615  1.3298
  142SAPE   H5Y15570   2.208   1.209  10.208 -1.0547  0.2559  0.6104
  142SAPE   C3615571   2.232   1.175  10.000  0.1210  0.4357 -0.3041
  142SAPE   H6X15572   2.128   1.136   9.993  0.3268 -0.3777  0.8942
  142SAPE   H6Y15573   2.304   1.144   9.921 -0.4842  0.6705 -0.9651
  142SAPE   C3715574   2.188   1.319   9.970 -0.4566 -0.1079 -0.0554
  142SAPE   H7X15575   2.269   1.396   9.971 -1.6328  1.2276  2.2978
  142SAPE   H7Y15576   2.139   1.352  10.064 -1.1056 -1.3712  0.0695
  142SAPE   C3815577   2.104   1.335   9.842 -0.2985  0.4185 -0.0510
  142SAPE   H8X15578   2.025   1.412   9.847 -1.5283 -0.7936 -0.3651
  142SAPE   H8Y15579   2.047   1.241   9.827 -0.3670  0.3051  0.8467
  142SAPE   C3915580   2.191   1.360   9.716 -0.1683 -0.5086 -0.9189
  142SAPE   H9X15581   2.264   1.277   9.716  0.1724 -0.2311  0.3349
  142SAPE   H9Y15582   2.241   1.458   9.727 -2.0693  0.3606  0.6562
  142SAPE  C31015583   2.117   1.380   9.585 -0.4955  0.2858  1.1410
  142SAPE  H10X15584   2.051   1.469   9.598 -0.1627  0.8147 -0.5005
  142SAPE  H10Y15585   2.050   1.292   9.576  0.6916 -0.5232 -0.2535
  142SAPE  C31115586   2.208   1.393   9.467 -0.4742 -0.3154  0.0673
  142SAPE  H11X15587   2.281   1.309   9.463  1.5716  1.4179 -0.9375
  142SAPE  H11Y15588   2.274   1.481   9.483 -0.1098 -0.6431  0.4057
  142SAPE  C31215589   2.133   1.409   9.335  0.2653  0.2954  0.3054
  142SAPE  H12X15590   2.062   1.494   9.337 -1.9983 -1.4113 -1.8614
  142SAPE  H12Y15591   2.074   1.318   9.310 -2.6983  2.9981 -3.7468
  142SAPE  C31315592   2.237   1.422   9.216  0.1174 -0.0134  0.6030
  142SAPE  H13X15593   2.308   1.337   9.207 -0.3424 -0.4120  0.6384
  142SAPE  H13Y15594   2.294   1.514   9.238 -1.2794  1.5820 -2.0259
  142SAPE  C31415595   2.167   1.426   9.080  0.1822  0.0836 -0.0384
  142SAPE  H14X15596   2.080   1.494   9.070  0.2735  0.1490 -0.4105
  142SAPE  H14Y15597   2.134   1.320   9.086 -0.5691  0.3781  1.6318
  142SAPE  C31515598   2.264   1.446   8.957  0.0215 -0.1775 -0.1352
  142SAPE  H15X15599   2.359   1.392   8.976  1.4826  2.1801 -0.3480
  142SAPE  H15Y15600   2.282   1.555   8.944 -0.0616 -0.3285 -1.7585
  142SAPE  C31615601   2.202   1.383   8.825  0.1471 -0.4614 -0.5014
  142SAPE  H16X15602   2.098   1.421   8.814 -0.2102 -0.7381  1.5129
  142SAPE  H16Y15603   2.209   1.275   8.849  0.0394 -0.0384  1.5622
  142SAPE  C31715604   2.271   1.402   8.695 -0.1433 -0.5776  0.6927
  142SAPE  H17X15605   2.196   1.392   8.615  1.0903  1.3950 -0.8039
  142SAPE  H17Y15606   2.355   1.330   8.682 -1.2395 -1.8954  0.7025
  142SAPE  C31815607   2.328   1.549   8.678  0.1302  0.4204 -0.1291
  142SAPE  H18X15608   2.319   1.579   8.572 -1.3175 -0.6318 -0.3340
  142SAPE  H18Y15609   2.435   1.554   8.710  0.5930 -0.8126 -1.3920
  142SAPE  H18Z15610   2.264   1.622   8.732 -1.1660 -1.3663  0.8420
  143SAPE     N15611   2.713   2.317  10.659  0.0392 -0.0799  0.7018
  143SAPE   HN115612   2.784   2.254  10.616 -1.0964 -0.1218 -1.2573
  143SAPE   HN215613   2.716   2.398  10.593 -3.3851  0.7965  1.4333
  143SAPE   HN315614   2.749   2.350  10.751  1.6417  0.5773 -0.1102
  143SAPE   C1215615   2.574   2.256  10.668  0.5889  0.2483 -0.4934
  143SAPE  H12A15616   2.535   2.248  10.565 -0.9634 -1.6630  0.1857
  143SAPE  H12B15617   2.516   2.320  10.739  1.2349 -0.5254  0.7612
  143SAPE   C1115618   2.581   2.111  10.725 -0.2081  0.4026 -0.9285
  143SAPE  H11A15619   2.656   2.057  10.663  0.3238 -1.5499  1.2716
  143SAPE  H11B15620   2.483   2.059  10.725  0.1054 -0.2087  0.3171
  143SAPE     P15621   2.622   1.993  10.947  0.2825 -0.0488  0.2950
  143SAPE   O1315622   2.751   1.988  11.013  0.0907 -0.4487 -0.2404
  143SAPE   O1415623   2.503   1.986  11.031  0.7060 -0.1956 -0.1134
  143SAPE   O1215624   2.617   2.120  10.862  0.5459 -0.0763  0.0582
  143SAPE   O1115625   2.613   1.870  10.845 -0.3849 -0.1245  0.4418
  143SAPE    C115626   2.505   1.782  10.832  1.1204 -0.1622  0.3954
  143SAPE    HA15627   2.526   1.691  10.892  1.4946  0.0212  0.5422
  143SAPE    HB15628   2.411   1.830  10.867 -0.9853 -3.0373 -0.8922
  143SAPE    C215629   2.476   1.738  10.690 -0.9039 -0.1371 -0.1509
  143SAPE    HS15630   2.571   1.688  10.661 -0.1612  2.3969 -2.4473
  143SAPE   O2115631   2.453   1.854  10.616 -0.2115 -0.3241  0.9004
  143SAPE   C2115632   2.473   1.845  10.486 -0.0784  0.5268  0.0958
  143SAPE   O2215633   2.512   1.748  10.418 -0.5914  0.5841 -0.4070
  143SAPE   C2215634   2.424   1.977  10.426 -0.2948  0.3758 -0.4556
  143SAPE   H2R15635   2.348   1.940  10.354  0.2174 -0.0300 -0.7934
  143SAPE   H2S15636   2.389   2.043  10.508 -0.8827  0.7584 -1.0039
  143SAPE    C315637   2.362   1.632  10.684  1.2486 -0.0008  0.1175
  143SAPE    HX15638   2.266   1.676  10.719  0.3925 -0.6847 -1.2944
  143SAPE    HY15639   2.385   1.560  10.765  3.0006 -0.1344 -0.4508
  143SAPE   O3115640   2.348   1.565  10.561 -0.2822 -0.2019 -0.1145
  143SAPE   C3115641   2.440   1.471  10.550  0.4158 -0.4013  0.1536
  143SAPE   O3215642   2.532   1.442  10.617 -0.4197 -0.2901  0.0058
  143SAPE   C3215643   2.418   1.390  10.422  0.3573 -0.1168  0.4963
  143SAPE   H2X15644   2.311   1.360  10.417  0.2374  0.1227  1.4446
  143SAPE   H2Y15645   2.471   1.292  10.429  0.0243 -0.2462  1.3793
  143SAPE   C2315646   2.534   2.035  10.340 -0.3743  0.0994  0.2441
  143SAPE   H3R15647   2.552   1.965  10.256 -0.4159 -0.2656  0.5331
  143SAPE   H3S15648   2.627   2.048  10.400  0.7996  1.2672 -1.7509
  143SAPE   C2415649   2.495   2.178  10.297 -0.5910  0.2761  0.0582
  143SAPE   H4R15650   2.471   2.246  10.381 -1.9175 -0.9663  0.7258
  143SAPE   H4S15651   2.396   2.173  10.246 -0.6972 -0.4868  0.3230
  143SAPE   C2515652   2.621   2.229  10.225 -0.1205  0.1837 -0.4568
  143SAPE   H5R15653   2.716   2.203  10.275 -0.4743  0.4613  0.3660
  143SAPE   C2615654   2.624   2.275  10.096 -0.0751  0.1093 -0.1556
  143SAPE   H6R15655   2.726   2.301  10.062  0.0391  0.2084  0.2591
  143SAPE   C2715656   2.510   2.300   9.997  0.4146 -0.4022 -0.2816
  143SAPE   H7R15657   2.519   2.396   9.942 -2.0733 -0.2691 -0.5832
  143SAPE   H7S15658   2.420   2.302  10.062  0.5620 -2.1875  0.0189
  143SAPE   C2815659   2.496   2.184   9.908 -0.1776 -0.5743 -0.0506
  143SAPE   H8R15660   2.484   2.086   9.955 -0.0477 -1.8860 -2.5506
  143SAPE   C2915661   2.502   2.176   9.769 -0.2610 -0.6771 -0.4473
  143SAPE   H9R15662   2.510   2.071   9.738 -0.9267 -1.1866  0.9767
  143SAPE  C21015663   2.531   2.292   9.675 -0.3642  0.0732 -0.2711
  143SAPE  H10R15664   2.618   2.276   9.608 -0.9231  3.4347 -2.0094
  143SAPE  H10S15665   2.538   2.388   9.731 -0.5479  0.2346 -0.5246
  143SAPE  C21115666   2.411   2.302   9.582  0.5197 -0.1182  0.1029
  143SAPE  H11R15667   2.311   2.280   9.622  2.1907  0.0160  5.0165
  143SAPE  C21215668   2.419   2.350   9.454  0.7032 -0.0584  0.3947
  143SAPE  H12R15669   2.325   2.358   9.399 -0.1733 -1.8202  1.5550
  143SAPE  C21315670   2.537   2.400   9.376  0.3541 -0.7743  0.7189
  143SAPE  H13R15671   2.624   2.443   9.430  1.3341  1.9390 -2.6350
  143SAPE  H13S15672   2.512   2.491   9.317 -0.8195  0.2366  2.6814
  143SAPE  C21415673   2.594   2.287   9.300  0.1150 -0.1065 -0.2491
  143SAPE  H14R15674   2.538   2.193   9.288 -1.7659  0.4597  3.1039
  143SAPE  C21515675   2.717   2.292   9.240  0.1999  0.4942  0.3624
  143SAPE  H15R15676   2.750   2.198   9.194 -1.1482  1.2064 -2.2486
  143SAPE  C21615677   2.812   2.407   9.239 -0.2132 -0.2995 -0.6927
  143SAPE  H16R15678   2.769   2.490   9.301  3.0301  1.5266 -0.6313
  143SAPE  H16S15679   2.838   2.438   9.136 -1.9420 -0.5518 -1.2375
  143SAPE  C21715680   2.934   2.380   9.324 -0.3003  0.5974 -0.3886
  143SAPE  H17R15681   2.889   2.350   9.421 -1.9261  0.2784 -1.2013
  143SAPE  H17S15682   2.990   2.467   9.362 -0.2950  0.2448  0.4211
  143SAPE  C21815683   3.032   2.273   9.263  0.2825  0.2465  0.3514
  143SAPE  H18R15684   3.061   2.315   9.165 -0.0008 -0.9073 -0.2476
  143SAPE  H18S15685   2.986   2.174   9.241  0.5241  0.1679  0.1909
  143SAPE  C21915686   3.157   2.250   9.350 -0.1921  0.4147 -0.2018
  143SAPE  H19R15687   3.204   2.349   9.364 -0.2610  0.3190  0.7470
  143SAPE  H19S15688   3.230   2.184   9.299 -0.2074 -0.0132  0.3200
  143SAPE  C22015689   3.117   2.181   9.481 -0.1348 -0.2582 -0.4982
  143SAPE  H20R15690   3.054   2.249   9.542  0.9727 -0.2998  0.7456
  143SAPE  H20S15691   3.202   2.147   9.544  1.5352 -0.4511 -2.7384
  143SAPE  H20T15692   3.063   2.087   9.460  0.0161 -0.1300 -1.5035
  143SAPE   C3315693   2.468   1.464  10.298 -0.4737 -0.1863 -0.3876
  143SAPE   H3X15694   2.426   1.566  10.288  0.8267  0.6256  1.7258
  143SAPE   H3Y15695   2.437   1.408  10.207 -1.2500  0.1240 -0.3180
  143SAPE   C3415696   2.628   1.471  10.300  1.0679 -0.1400  0.2116
  143SAPE   H4X15697   2.669   1.382  10.351  0.2163  0.0406  1.2384
  143SAPE   H4Y15698   2.659   1.564  10.353  0.3411  0.5017 -0.4532
  143SAPE   C3515699   2.685   1.472  10.153  0.0865 -0.3287 -0.3602
  143SAPE   H5X15700   2.661   1.371  10.113 -0.7342  0.3311 -1.6094
  143SAPE   H5Y15701   2.795   1.481  10.162  0.0781 -1.4663  1.2091
  143SAPE   C3615702   2.635   1.582  10.058 -0.5203  0.4946 -0.3719
  143SAPE   H6X15703   2.659   1.685  10.090  4.4791 -0.5573  0.1124
  143SAPE   H6Y15704   2.524   1.576  10.054 -0.7748  2.6728  1.6026
  143SAPE   C3715705   2.679   1.561   9.913  0.1476  0.4742  0.4180
  143SAPE   H7X15706   2.785   1.584   9.888  0.1147  0.6709  0.4588
  143SAPE   H7Y15707   2.623   1.637   9.854  2.2430  1.7733  0.0180
  143SAPE   C3815708   2.638   1.423   9.857 -0.0255  0.4887  0.3764
  143SAPE   H8X15709   2.540   1.408   9.906 -1.9094 -1.2142 -3.4154
  143SAPE   H8Y15710   2.711   1.347   9.890  0.3433 -0.1353 -1.7064
  143SAPE   C3915711   2.620   1.413   9.702 -0.2629 -0.6431 -0.4121
  143SAPE   H9X15712   2.552   1.498   9.677  0.7264 -0.1511 -1.5455
  143SAPE   H9Y15713   2.573   1.320   9.663 -0.9241 -0.3429 -0.3516
  143SAPE  C31015714   2.752   1.434   9.631  0.3895  0.0906 -0.2747
  143SAPE  H10X15715   2.794   1.335   9.601  0.7172  0.3772 -0.7784
  143SAPE  H10Y15716   2.821   1.483   9.703  0.8184  0.2663 -0.7953
  143SAPE  C31115717   2.749   1.528   9.510  0.1064 -1.2226  0.1530
  143SAPE  H11X15718   2.836   1.595   9.519 -0.8135 -0.0625  0.6833
  143SAPE  H11Y15719   2.669   1.606   9.514  1.1211 -0.1749  0.4059
  143SAPE  C31215720   2.733   1.460   9.376 -0.0455 -1.0204  0.8271
  143SAPE  H12X15721   2.729   1.537   9.297 -0.6566 -0.9812  0.8967
  143SAPE  H12Y15722   2.629   1.421   9.381 -1.2672  2.0792  4.5716
  143SAPE  C31315723   2.845   1.368   9.324 -0.4127  0.6147  0.5396
  143SAPE  H13X15724   2.853   1.277   9.387  0.2355 -0.1768 -0.6559
  143SAPE  H13Y15725   2.943   1.418   9.334 -1.4699  2.7475  0.9401
  143SAPE  C31415726   2.828   1.308   9.184 -0.1883 -0.0211  0.1014
  143SAPE  H14X15727   2.775   1.381   9.119  0.2111  0.7595  0.6337
  143SAPE  H14Y15728   2.765   1.216   9.188 -1.0581  0.5523 -0.1136
  143SAPE  C31515729   2.966   1.282   9.119 -0.4909  0.5346 -0.0794
  143SAPE  H15X15730   3.011   1.384   9.122 -0.5727  0.5603  0.4249
  143SAPE  H15Y15731   2.957   1.253   9.013 -0.6476  0.9162 -0.1719
  143SAPE  C31615732   3.058   1.195   9.208 -0.5356  0.1219  0.2545
  143SAPE  H16X15733   3.000   1.101   9.219  0.5069 -0.3719  2.0661
  143SAPE  H16Y15734   3.071   1.245   9.306 -1.5773  2.0001 -0.5246
  143SAPE  C31715735   3.194   1.160   9.157 -0.0545  0.1371 -0.0719
  143SAPE  H17X15736   3.185   1.153   9.046  0.4167  0.9002 -0.1664
  143SAPE  H17Y15737   3.216   1.060   9.200  0.2461  0.4496  0.5108
  143SAPE  C31815738   3.314   1.247   9.197  0.3047  0.7893 -0.0412
  143SAPE  H18X15739   3.408   1.190   9.186 -0.1361  0.4915 -3.8151
  143SAPE  H18Y15740   3.300   1.276   9.303  0.1481 -2.7230  1.0183
  143SAPE  H18Z15741   3.321   1.335   9.129  0.3559  0.3374 -0.6289
  144SAPE     N15742   6.388   0.910  10.781  0.0389  0.2791  0.2930
  144SAPE   HN115743   6.445   0.862  10.708  0.9930  0.0107  1.1837
  144SAPE   HN215744   6.449   0.897  10.864  1.6483 -0.9767 -1.0067
  144SAPE   HN315745   6.303   0.862  10.816 -1.3161  2.7899  0.7049
  144SAPE   C1215746   6.399   1.057  10.749  0.0932 -0.4081  0.1871
  144SAPE  H12A15747   6.358   1.115  10.834  2.1908 -0.7826  1.5214
  144SAPE  H12B15748   6.354   1.082  10.650 -0.4717  1.9767  0.9624
  144SAPE   C1115749   6.547   1.111  10.743  0.5381 -0.0931  0.2406
  144SAPE  H11A15750   6.540   1.208  10.689 -2.8504  0.8470  2.0784
  144SAPE  H11B15751   6.599   1.037  10.679  0.4125  0.7884 -0.9148
  144SAPE     P15752   6.661   1.010  10.963 -0.0820 -0.1728  0.1614
  144SAPE   O1315753   6.729   1.070  11.076 -0.3248 -0.3594 -0.0108
  144SAPE   O1415754   6.559   0.907  10.988 -0.0327  0.0479 -0.0206
  144SAPE   O1215755   6.588   1.122  10.882  0.0381 -0.1923  0.9497
  144SAPE   O1115756   6.764   0.955  10.853 -0.0271 -0.0320 -1.1484
  144SAPE    C115757   6.884   1.033  10.827  0.5477 -0.9477 -0.2553
  144SAPE    HA15758   6.938   1.054  10.922  0.5872 -1.0249 -0.2596
  144SAPE    HB15759   6.959   0.978  10.766 -0.5235 -0.9483 -1.6030
  144SAPE    C215760   6.878   1.155  10.739 -0.8709 -0.3220  0.4146
  144SAPE    HS15761   6.818   1.231  10.794 -0.0847  0.8249 -0.2558
  144SAPE   O2115762   6.828   1.122  10.603 -0.6579 -0.0487  0.0404
  144SAPE   C2115763   6.801   1.227  10.530  0.5957 -0.0434  0.1700
  144SAPE   O2215764   6.761   1.335  10.569 -0.1183 -0.2011 -0.0030
  144SAPE   C2215765   6.809   1.185  10.383 -0.2316  0.0911  0.3467
  144SAPE   H2R15766   6.906   1.138  10.354  1.2732  2.9452  0.3496
  144SAPE   H2S15767   6.733   1.104  10.379 -1.3291  0.9367  2.6124
  144SAPE    C315768   7.028   1.223  10.735  0.3648  0.1142  0.1444
  144SAPE    HX15769   7.039   1.260  10.839 -0.0655  1.9235 -0.4245
  144SAPE    HY15770   7.022   1.314  10.673 -0.7836 -1.2069 -1.7832
  144SAPE   O3115771   7.125   1.126  10.697  0.3021 -0.0122 -0.2258
  144SAPE   C3115772   7.158   1.132  10.570 -0.2456  0.5156 -0.0482
  144SAPE   O3215773   7.131   1.221  10.492 -0.1354 -0.7474 -0.3346
  144SAPE   C3215774   7.233   1.004  10.529 -0.0253 -0.9888 -0.3578
  144SAPE   H2X15775   7.282   0.961  10.618 -0.5260  2.4246  1.7708
  144SAPE   H2Y15776   7.316   1.030  10.460 -0.5838 -0.7813 -0.9637
  144SAPE   C2315777   6.775   1.301  10.289  0.3153 -0.3980  0.3783
  144SAPE   H3R15778   6.801   1.398  10.334  1.5690  0.7063 -2.4896
  144SAPE   H3S15779   6.665   1.305  10.308  0.5418  0.9284  1.5343
  144SAPE   C2415780   6.816   1.289  10.143 -0.0141 -0.3558 -0.4699
  144SAPE   H4R15781   6.917   1.246  10.128 -0.3631 -0.8486 -1.5309
  144SAPE   H4S15782   6.822   1.391  10.101  1.6116 -0.5509 -0.7789
  144SAPE   C2515783   6.729   1.201  10.059 -0.4806 -0.6931  0.6008
  144SAPE   H5R15784   6.718   1.097  10.092  3.1058 -2.0668 -1.9026
  144SAPE   C2615785   6.659   1.244   9.950 -0.7004  0.1665 -0.8702
  144SAPE   H6R15786   6.606   1.165   9.894  0.8126 -3.1160  1.9824
  144SAPE   C2715787   6.664   1.389   9.889 -0.3331  0.7667 -0.6202
  144SAPE   H7R15788   6.739   1.395   9.807  3.1708  1.9656  2.3538
  144SAPE   H7S15789   6.705   1.463   9.961  0.6948 -1.4121  1.1576
  144SAPE   C2815790   6.529   1.431   9.855  0.4560 -0.7686  0.1296
  144SAPE   H8R15791   6.453   1.449   9.932 -0.7101  0.1143 -1.1820
  144SAPE   C2915792   6.492   1.465   9.732 -0.6421  0.6140  0.2671
  144SAPE   H9R15793   6.388   1.486   9.704 -1.2248 -1.9447  0.2331
  144SAPE  C21015794   6.596   1.472   9.614  0.2227 -0.1374 -0.0049
  144SAPE  H10R15795   6.594   1.372   9.565 -0.6979 -0.7914  1.2784
  144SAPE  H10S15796   6.700   1.494   9.645 -0.2453  1.8829  0.2716
  144SAPE  C21115797   6.555   1.580   9.522  0.2049  0.2750 -0.0886
  144SAPE  H11R15798   6.548   1.682   9.564 -4.0285  0.5425 -0.9730
  144SAPE  C21215799   6.519   1.559   9.395  0.5297 -0.6034  0.3896
  144SAPE  H12R15800   6.489   1.643   9.330 -1.2621 -3.2109 -2.4317
  144SAPE  C21315801   6.510   1.431   9.322  0.3485 -0.4878 -0.2335
  144SAPE  H13R15802   6.402   1.434   9.296  0.5068 -0.1268 -0.8760
  144SAPE  H13S15803   6.519   1.342   9.387 -1.4818  2.2704  4.3433
  144SAPE  C21415804   6.588   1.423   9.197 -0.1338  0.6945 -0.6310
  144SAPE  H14R15805   6.685   1.475   9.194 -1.1634  2.7366 -0.1517
  144SAPE  C21515806   6.547   1.361   9.087 -0.2040  0.3655  0.4490
  144SAPE  H15R15807   6.616   1.359   9.001 -1.9203  3.5897 -1.2191
  144SAPE  C21615808   6.418   1.279   9.067  0.0114 -0.4600  0.7518
  144SAPE  H16R15809   6.340   1.306   9.141  0.5902 -0.9219  1.5506
  144SAPE  H16S15810   6.442   1.171   9.076  1.3682 -0.1240  1.4462
  144SAPE  C21715811   6.356   1.290   8.930  0.9748 -0.0818 -0.0598
  144SAPE  H17R15812   6.421   1.239   8.857 -0.2226 -0.5187 -0.8442
  144SAPE  H17S15813   6.358   1.395   8.892  0.4263 -0.1282 -0.2330
  144SAPE  C21815814   6.214   1.238   8.930 -0.2368 -0.3379 -0.7086
  144SAPE  H18R15815   6.141   1.308   8.975  1.4089 -0.4981  2.5685
  144SAPE  H18S15816   6.210   1.145   8.991  2.4741 -1.3432 -1.8795
  144SAPE  C21915817   6.171   1.190   8.794 -0.0171  0.2986 -0.4647
  144SAPE  H19R15818   6.248   1.197   8.715 -0.3354 -1.2952 -0.9585
  144SAPE  H19S15819   6.079   1.243   8.762 -0.6424  0.4447  1.4252
  144SAPE  C22015820   6.137   1.043   8.793  0.7447 -0.2356  0.3583
  144SAPE  H20R15821   6.037   1.018   8.834 -0.4644 -0.1671 -2.2860
  144SAPE  H20S15822   6.204   0.985   8.859 -0.1600  0.2794  1.7933
  144SAPE  H20T15823   6.138   1.015   8.685  0.1483  1.8977 -0.2565
  144SAPE   C3315824   7.142   0.909  10.451 -0.4770 -0.4259  0.2575
  144SAPE   H3X15825   7.035   0.931  10.471 -0.0845  0.3889  1.5736
  144SAPE   H3Y15826   7.171   0.807  10.484  1.4326  0.3400  1.0789
  144SAPE   C3415827   7.161   0.908  10.305 -0.3070  0.0411 -0.4446
  144SAPE   H4X15828   7.267   0.879  10.288  0.1186  0.5696  1.1261
  144SAPE   H4Y15829   7.148   1.012  10.268  0.0645  0.5568  0.8249
  144SAPE   C3515830   7.059   0.835  10.227 -0.1017 -0.0162  0.6629
  144SAPE   H5X15831   6.957   0.863  10.261 -0.1511 -1.6008  1.9389
  144SAPE   H5Y15832   7.062   0.726  10.248  1.0941 -0.5146 -1.6921
  144SAPE   C3615833   7.061   0.863  10.075 -0.3281 -0.0443 -0.2031
  144SAPE   H6X15834   7.160   0.839  10.031 -0.2477  0.0639 -0.0820
  144SAPE   H6Y15835   7.040   0.970  10.059  0.2264 -0.1225 -1.5324
  144SAPE   C3715836   6.954   0.779   9.998 -1.1238 -0.4922 -1.1524
  144SAPE   H7X15837   6.854   0.775  10.048 -1.1025  0.7317 -0.9696
  144SAPE   H7Y15838   6.989   0.674  10.003  2.4834  0.5993 -1.2078
  144SAPE   C3815839   6.954   0.808   9.851  0.3474 -0.1178  0.4324
  144SAPE   H8X15840   6.914   0.722   9.793  0.2728  0.4838 -0.4320
  144SAPE   H8Y15841   7.060   0.828   9.825  0.2795  1.9178  1.4887
  144SAPE   C3915842   6.856   0.924   9.823 -0.0014 -0.4342  0.4809
  144SAPE   H9X15843   6.900   1.018   9.863 -1.2793 -0.4993  2.1696
  144SAPE   H9Y15844   6.758   0.906   9.872  0.8125 -0.6709  2.1199
  144SAPE  C31015845   6.848   0.959   9.672  0.5572  0.3329 -0.1085
  144SAPE  H10X15846   6.771   0.895   9.626  1.1857  0.8609 -1.9672
  144SAPE  H10Y15847   6.946   0.930   9.628  0.6751  0.1764  0.2468
  144SAPE  C31115848   6.816   1.102   9.644  0.3436 -0.1256  0.2168
  144SAPE  H11X15849   6.906   1.165   9.663  0.0472 -0.0345  1.4323
  144SAPE  H11Y15850   6.738   1.138   9.714  0.5131  2.0537 -0.6251
  144SAPE  C31215851   6.764   1.122   9.500 -0.1026  0.7215 -0.4594
  144SAPE  H12X15852   6.725   1.225   9.482  0.4215  0.8642 -0.8090
  144SAPE  H12Y15853   6.682   1.051   9.479  1.6873 -0.5941 -3.7575
  144SAPE  C31315854   6.878   1.086   9.404 -0.4130  1.0800 -0.0714
  144SAPE  H13X15855   6.945   1.006   9.441 -0.5711 -0.4606 -2.8500
  144SAPE  H13Y15856   6.937   1.180   9.398  1.3459  0.4186  3.7901
  144SAPE  C31415857   6.821   1.053   9.262 -0.4863  0.2578 -0.2319
  144SAPE  H14X15858   6.761   1.140   9.228 -0.0783  0.8659  0.5881
  144SAPE  H14Y15859   6.758   0.963   9.281  1.7658 -1.1123  1.2340
  144SAPE  C31515860   6.938   1.015   9.168  0.3611 -0.1938 -0.0802
  144SAPE  H15X15861   7.003   0.940   9.218  0.8311 -0.4414 -1.0398
  144SAPE  H15Y15862   6.985   1.109   9.133  0.6336 -0.2918  0.0195
  144SAPE  C31615863   6.890   0.962   9.033  0.0977  0.4444 -0.3050
  144SAPE  H16X15864   6.828   1.037   8.979 -2.0844 -2.5189 -2.2643
  144SAPE  H16Y15865   6.826   0.873   9.052 -1.0242  0.8906 -1.8183
  144SAPE  C31715866   6.996   0.919   8.937  0.1439  0.2636  0.3395
  144SAPE  H17X15867   7.080   0.992   8.930  1.1361 -0.9361 -0.8542
  144SAPE  H17Y15868   6.960   0.915   8.832  1.3332 -0.1538 -0.0701
  144SAPE  C31815869   7.054   0.780   8.977  0.3848  0.3462 -0.0881
  144SAPE  H18X15870   7.142   0.760   8.912 -0.1171 -0.0480 -0.6580
  144SAPE  H18Y15871   6.977   0.700   8.967  1.1222 -0.3596 -0.2950
  144SAPE  H18Z15872   7.091   0.783   9.082  1.8992 -2.1486 -0.4458
  145SAPE     N15873   2.570   6.613  11.373 -0.3949  0.5606  0.0638
  145SAPE   HN115874   2.530   6.532  11.321  0.5369  1.1943 -1.7139
  145SAPE   HN215875   2.628   6.661  11.302 -1.4069 -0.1213 -1.2623
  145SAPE   HN315876   2.614   6.580  11.462 -2.1355  0.5062  0.9551
  145SAPE   C1215877   2.473   6.720  11.409  0.7981  0.4280 -0.2855
  145SAPE  H12A15878   2.423   6.695  11.506 -4.4017 -0.0405 -2.7254
  145SAPE  H12B15879   2.400   6.717  11.325  1.0525  0.5116 -0.5065
  145SAPE   C1115880   2.531   6.856  11.415  0.4119  0.5693 -0.4317
  145SAPE  H11A15881   2.619   6.845  11.483 -2.3542 -0.3251  3.3413
  145SAPE  H11B15882   2.454   6.921  11.461 -0.0994 -0.7230  0.6429
  145SAPE     P15883   2.502   6.997  11.198  0.3479 -0.0307  0.2294
  145SAPE   O1315884   2.460   7.115  11.271 -1.2197 -0.1489 -0.1856
  145SAPE   O1415885   2.592   7.017  11.081  0.4157  0.2591  0.2913
  145SAPE   O1215886   2.573   6.901  11.291 -0.3030 -1.3200 -0.4334
  145SAPE   O1115887   2.375   6.918  11.140 -0.4439  0.2128 -0.0269
  145SAPE    C115888   2.388   6.799  11.056 -0.0138  0.2288  0.8116
  145SAPE    HA15889   2.491   6.774  11.022 -0.1088 -0.8497  1.2845
  145SAPE    HB15890   2.348   6.712  11.112 -0.3929 -0.4922 -0.5389
  145SAPE    C215891   2.302   6.819  10.923  0.1742 -0.9607 -0.5399
  145SAPE    HS15892   2.318   6.727  10.862  0.7978 -1.2776  0.0990
  145SAPE   O2115893   2.345   6.938  10.862  0.2242  0.3129  0.3242
  145SAPE   C2115894   2.430   6.925  10.765 -0.3049  0.3552  0.4059
  145SAPE   O2215895   2.453   6.821  10.705  0.3427  0.1853  0.1411
  145SAPE   C2215896   2.498   7.058  10.742  0.2178 -0.2648 -0.6605
  145SAPE   H2R15897   2.411   7.120  10.712 -1.2132 -1.8490  0.0656
  145SAPE   H2S15898   2.540   7.109  10.832 -0.1927 -0.1579 -0.5272
  145SAPE    C315899   2.151   6.822  10.953  0.2154  0.0370  0.0122
  145SAPE    HX15900   2.133   6.907  11.022 -0.3464 -0.4742  0.5039
  145SAPE    HY15901   2.128   6.727  11.004  1.5905 -0.5699 -0.4377
  145SAPE   O3115902   2.071   6.833  10.827 -0.2136  0.4636  0.7297
  145SAPE   C3115903   2.059   6.726  10.751 -0.9739  0.0444 -0.4046
  145SAPE   O3215904   2.099   6.613  10.779 -0.6359  0.0580  0.5986
  145SAPE   C3215905   2.031   6.783  10.612  0.5512  0.6031  0.1510
  145SAPE   H2X15906   2.003   6.891  10.614 -0.6479  0.3262 -0.5722
  145SAPE   H2Y15907   1.943   6.727  10.573 -0.9899  1.9856  1.4355
  145SAPE   C2315908   2.611   7.056  10.626  0.3994  0.1970 -0.1707
  145SAPE   H3R15909   2.554   7.003  10.547 -0.3152  0.5641  0.0871
  145SAPE   H3S15910   2.687   6.981  10.656  0.3696 -0.2981 -1.2869
  145SAPE   C2415911   2.662   7.188  10.570 -0.2781 -0.4605 -0.3098
  145SAPE   H4R15912   2.721   7.235  10.651 -0.3014  0.6340 -0.9062
  145SAPE   H4S15913   2.579   7.258  10.548  1.0288  1.1345 -0.2976
  145SAPE   C2515914   2.754   7.155  10.452 -0.0795  0.4075 -0.9290
  145SAPE   H5R15915   2.826   7.075  10.473  1.7000  1.9711 -0.8391
  145SAPE   C2615916   2.746   7.212  10.335  0.3973 -0.1366  0.0752
  145SAPE   H6R15917   2.809   7.175  10.253 -1.9752 -0.9909 -1.4654
  145SAPE   C2715918   2.651   7.316  10.305  0.7671 -0.6459 -0.1138
  145SAPE   H7R15919   2.624   7.380  10.392 -1.4770  1.0799 -1.9226
  145SAPE   H7S15920   2.560   7.275  10.256  0.7009 -0.9544  0.2614
  145SAPE   C2815921   2.706   7.415  10.207 -0.4631  0.4527  0.2923
  145SAPE   H8R15922   2.774   7.488  10.254  2.4989 -1.0476 -1.4224
  145SAPE   C2915923   2.679   7.439  10.076  0.4832 -0.1812 -0.5658
  145SAPE   H9R15924   2.739   7.520  10.032  1.0519 -0.7623 -0.8687
  145SAPE  C21015925   2.577   7.378   9.985 -0.5321  0.2737  0.8148
  145SAPE  H10R15926   2.517   7.458   9.938  1.7777  1.2639 -0.6136
  145SAPE  H10S15927   2.511   7.310  10.044  0.1753 -1.8619 -0.7155
  145SAPE  C21115928   2.643   7.291   9.884 -0.2628  0.2899  0.0333
  145SAPE  H11R15929   2.711   7.213   9.923  1.0410  1.0982 -0.5701
  145SAPE  C21215930   2.625   7.300   9.751  0.5159 -0.4805  0.6569
  145SAPE  H12R15931   2.690   7.237   9.689  0.6387  1.2319 -1.0487
  145SAPE  C21315932   2.542   7.405   9.669 -0.7754 -0.1140  0.1250
  145SAPE  H13R15933   2.602   7.435   9.581 -0.7385 -0.5323  0.0046
  145SAPE  H13S15934   2.547   7.504   9.718  1.3356 -0.6795  1.1644
  145SAPE  C21415935   2.404   7.360   9.637 -0.1630 -0.2843 -0.2536
  145SAPE  H14R15936   2.344   7.328   9.723 -1.5611 -0.5301 -1.2767
  145SAPE  C21515937   2.354   7.370   9.515 -0.1438  0.4862  0.0758
  145SAPE  H15R15938   2.245   7.352   9.508  0.2044 -1.4103 -1.5601
  145SAPE  C21615939   2.420   7.417   9.389  0.1224  0.8815 -1.2929
  145SAPE  H16R15940   2.486   7.332   9.359 -2.0088 -2.0192  1.4804
  145SAPE  H16S15941   2.484   7.506   9.402  0.8572  0.2170 -0.1324
  145SAPE  C21715942   2.319   7.434   9.276  0.5370 -0.2977  0.2684
  145SAPE  H17R15943   2.380   7.470   9.190  2.1453  0.1607  1.5462
  145SAPE  H17S15944   2.249   7.515   9.306  1.0129 -0.0077  0.6189
  145SAPE  C21815945   2.237   7.308   9.236 -0.3585  0.0371 -0.4997
  145SAPE  H18R15946   2.144   7.329   9.180 -1.6660 -0.5833  1.3611
  145SAPE  H18S15947   2.199   7.253   9.325  1.9254 -0.3399  0.3119
  145SAPE  C21915948   2.317   7.199   9.157 -0.0004  0.0780 -0.1800
  145SAPE  H19R15949   2.422   7.234   9.164  0.5978 -1.8150  0.8608
  145SAPE  H19S15950   2.298   7.184   9.049  2.3353 -0.3346 -0.5854
  145SAPE  C22015951   2.312   7.061   9.225 -0.3394 -0.4658 -0.8700
  145SAPE  H20R15952   2.376   7.054   9.316  2.5562  1.6440 -2.5837
  145SAPE  H20S15953   2.359   6.992   9.152  0.3255  0.9401 -1.8205
  145SAPE  H20T15954   2.209   7.031   9.254 -0.1905 -2.3318 -2.1129
  145SAPE   C3315955   2.155   6.761  10.527  0.0735 -0.0018  0.3541
  145SAPE   H3X15956   2.171   6.651  10.528 -0.5570 -0.0893  1.0040
  145SAPE   H3Y15957   2.243   6.807  10.578  1.0638  0.1945 -1.4364
  145SAPE   C3415958   2.133   6.809  10.386  0.4982  0.2991 -0.8802
  145SAPE   H4X15959   2.120   6.919  10.389 -4.5808 -0.0963  0.4820
  145SAPE   H4Y15960   2.040   6.774  10.336  0.0751 -0.2030  0.2238
  145SAPE   C3515961   2.260   6.789  10.314 -0.2727  0.8191  0.3773
  145SAPE   H5X15962   2.294   6.686  10.338  0.3500  0.8426 -0.3567
  145SAPE   H5Y15963   2.331   6.858  10.364  0.7511  0.2768 -0.2858
  145SAPE   C3615964   2.248   6.813  10.167  0.0754 -0.3863  0.4614
  145SAPE   H6X15965   2.337   6.877  10.148  0.4376  0.8254  4.9966
  145SAPE   H6Y15966   2.158   6.875  10.142 -1.2247 -1.0673  3.0588
  145SAPE   C3715967   2.243   6.687  10.091 -0.1272 -0.8447  0.3577
  145SAPE   H7X15968   2.178   6.607  10.131 -1.5400 -0.3595 -0.8743
  145SAPE   H7Y15969   2.349   6.654  10.098  0.1300 -0.2009 -0.3953
  145SAPE   C3815970   2.214   6.695   9.944 -0.5281  0.5329  0.1303
  145SAPE   H8X15971   2.274   6.767   9.884 -2.0724  0.0998 -2.0539
  145SAPE   H8Y15972   2.106   6.719   9.931 -0.6389 -0.7221 -1.5483
  145SAPE   C3915973   2.242   6.560   9.871 -0.3206  0.1480 -0.1113
  145SAPE   H9X15974   2.177   6.484   9.921 -0.2353 -1.0308 -1.7251
  145SAPE   H9Y15975   2.349   6.534   9.881 -0.4145 -0.9481 -1.5882
  145SAPE  C31015976   2.216   6.555   9.722  0.2282  1.0084  0.6669
  145SAPE  H10X15977   2.230   6.451   9.686 -2.8385  0.7943 -0.1605
  145SAPE  H10Y15978   2.289   6.619   9.668 -0.8249  0.8439 -1.0309
  145SAPE  C31115979   2.076   6.590   9.683  0.1498 -0.5624  0.1434
  145SAPE  H11X15980   2.054   6.699   9.685  1.2076 -0.3560  0.7136
  145SAPE  H11Y15981   2.010   6.544   9.759 -1.6566 -0.2582 -1.1529
  145SAPE  C31215982   2.030   6.538   9.545 -0.3268 -0.6305 -0.6894
  145SAPE  H12X15983   1.923   6.565   9.537 -0.1100  0.2962 -0.5370
  145SAPE  H12Y15984   2.040   6.427   9.551 -2.3027 -0.8473 -0.6237
  145SAPE  C31315985   2.108   6.598   9.424  0.0521 -0.2239 -0.4992
  145SAPE  H13X15986   2.210   6.576   9.460 -0.7902 -2.8468  0.5171
  145SAPE  H13Y15987   2.094   6.708   9.410 -0.3705 -0.2841 -0.5831
  145SAPE  C31415988   2.091   6.520   9.291 -0.2243  0.4839 -0.5763
  145SAPE  H14X15989   1.990   6.540   9.250 -1.4969 -0.5930  1.8252
  145SAPE  H14Y15990   2.080   6.409   9.300 -0.5513  0.5902  0.4341
  145SAPE  C31515991   2.202   6.555   9.189  0.0789  0.4621 -0.1971
  145SAPE  H15X15992   2.211   6.479   9.110  2.0200 -1.1016  1.4017
  145SAPE  H15Y15993   2.299   6.559   9.243  0.2428  0.1908 -0.4738
  145SAPE  C31615994   2.179   6.694   9.134  0.0350 -0.0250 -0.1116
  145SAPE  H16X15995   2.173   6.773   9.211  1.3436 -0.7086  0.7239
  145SAPE  H16Y15996   2.073   6.686   9.101  0.4339 -0.2447 -1.3999
  145SAPE  C31715997   2.266   6.717   9.009  0.1888 -0.4146  0.3555
  145SAPE  H17X15998   2.246   6.638   8.934  1.6814 -0.5664  0.0934
  145SAPE  H17Y15999   2.375   6.711   9.029  0.6025  0.2490 -1.5159
  145SAPE  C31816000   2.228   6.848   8.938 -0.1974  0.5460 -0.2153
  145SAPE  H18X16001   2.117   6.859   8.937 -0.2806 -0.2410 -1.1828
  145SAPE  H18Y16002   2.275   6.852   8.837  0.0356 -0.3317 -0.1466
  145SAPE  H18Z16003   2.256   6.938   8.996 -1.3615  0.4492  0.5148
  146SAPE     N16004   1.441   6.433  11.107 -0.7039 -0.2836  0.0803
  146SAPE   HN116005   1.537   6.444  11.068 -2.1595  1.2598 -3.4823
  146SAPE   HN216006   1.410   6.528  11.137 -1.5705 -0.1313 -1.2216
  146SAPE   HN316007   1.445   6.353  11.172 -1.8496 -0.3763  0.0518
  146SAPE   C1216008   1.343   6.395  10.999 -0.4844 -0.5098  0.8238
  146SAPE  H12A16009   1.342   6.284  10.990  1.3009 -0.5054  0.3655
  146SAPE  H12B16010   1.368   6.434  10.898 -0.0521 -1.1737  0.6720
  146SAPE   C1116011   1.206   6.458  11.013 -0.2321  1.0409 -0.6672
  146SAPE  H11A16012   1.168   6.435  11.116 -0.9851  2.4349 -0.6108
  146SAPE  H11B16013   1.131   6.413  10.944 -2.4422  0.7858  1.7225
  146SAPE     P16014   1.165   6.670  10.884  0.1987  0.3303  0.0957
  146SAPE   O1316015   1.019   6.638  10.867  0.7109 -0.1744 -0.4315
  146SAPE   O1416016   1.212   6.812  10.896 -0.0413 -0.2574  0.0160
  146SAPE   O1216017   1.216   6.596  11.012  0.3558 -0.1554 -0.2823
  146SAPE   O1116018   1.242   6.604  10.763  0.4432 -0.1203 -0.2428
  146SAPE    C116019   1.191   6.510  10.662 -0.0482  0.6279 -0.9893
  146SAPE    HA16020   1.273   6.438  10.644  1.7002  1.5842  2.3284
  146SAPE    HB16021   1.101   6.459  10.703 -1.0599  1.4775 -2.0858
  146SAPE    C216022   1.150   6.576  10.523 -0.1578 -0.0715  0.0615
  146SAPE    HS16023   1.115   6.494  10.457  1.6281  0.7444 -2.0586
  146SAPE   O2116024   1.258   6.639  10.456  0.0461 -0.0622 -0.4390
  146SAPE   C2116025   1.349   6.555  10.403  0.0327  0.3379 -0.8132
  146SAPE   O2216026   1.336   6.435  10.397  0.0539  0.7424 -0.0268
  146SAPE   C2216027   1.465   6.628  10.356  0.1807  0.1476 -0.6187
  146SAPE   H2R16028   1.487   6.712  10.425  1.2290  0.9767 -1.9138
  146SAPE   H2S16029   1.547   6.554  10.368 -0.1794  0.1008  2.1121
  146SAPE    C316030   1.028   6.676  10.539  0.1441  0.5994 -0.5257
  146SAPE    HX16031   1.032   6.749  10.623 -1.7493  0.8940 -0.6463
  146SAPE    HY16032   0.945   6.612  10.574  1.5338 -0.2888  1.3095
  146SAPE   O3116033   0.984   6.735  10.414 -0.3012 -0.3158 -1.4332
  146SAPE   C3116034   1.034   6.857  10.392  0.0994  0.0539  0.4562
  146SAPE   O3216035   1.109   6.921  10.460 -0.2515 -0.7962 -0.0380
  146SAPE   C3216036   0.973   6.906  10.253  0.1412  0.3704  0.3673
  146SAPE   H2X16037   0.912   6.993  10.283 -1.9037 -1.0159  0.4010
  146SAPE   H2Y16038   0.900   6.835  10.210 -1.1182  1.9329 -0.1503
  146SAPE   C2316039   1.442   6.694  10.219 -0.0826  0.3009  0.9142
  146SAPE   H3R16040   1.521   6.772  10.210  1.8013 -1.5520  0.5498
  146SAPE   H3S16041   1.341   6.740  10.217 -0.0614  0.3055 -0.5038
  146SAPE   C2416042   1.454   6.600  10.102  0.1456 -0.2015  0.5807
  146SAPE   H4R16043   1.427   6.663  10.014  1.4539  0.6150  0.7371
  146SAPE   H4S16044   1.366   6.532  10.104  1.8788 -2.5451  0.9314
  146SAPE   C2516045   1.581   6.524  10.085 -0.4877 -0.4001 -0.0690
  146SAPE   H5R16046   1.590   6.450  10.166 -0.3636 -0.4437 -0.1224
  146SAPE   C2616047   1.693   6.548  10.012 -0.2869 -0.7376  0.4333
  146SAPE   H6R16048   1.781   6.483  10.026  0.1111 -0.0374  1.1909
  146SAPE   C2716049   1.709   6.659   9.904 -0.2907  0.2845  0.3036
  146SAPE   H7R16050   1.811   6.701   9.911  0.1360 -0.5521 -0.6059
  146SAPE   H7S16051   1.634   6.739   9.921 -1.0708  0.2076 -2.2483
  146SAPE   C2816052   1.692   6.598   9.772 -0.1597  0.6871 -0.6014
  146SAPE   H8R16053   1.772   6.527   9.745  0.1315  0.5538  0.5941
  146SAPE   C2916054   1.596   6.633   9.684 -0.2533 -0.1088 -0.0803
  146SAPE   H9R16055   1.594   6.602   9.579 -3.8923  0.8467 -0.4269
  146SAPE  C21016056   1.500   6.749   9.697  0.3058  0.9921 -0.4058
  146SAPE  H10R16057   1.460   6.749   9.801  0.4810  2.2347 -0.3200
  146SAPE  H10S16058   1.415   6.730   9.628 -1.0198 -0.4160  1.4928
  146SAPE  C21116059   1.566   6.881   9.686 -0.2285 -0.0678  0.3769
  146SAPE  H11R16060   1.674   6.877   9.664 -0.3340 -1.6888  0.0276
  146SAPE  C21216061   1.511   6.998   9.705 -0.6579 -0.3079  0.3502
  146SAPE  H12R16062   1.572   7.090   9.703 -0.9505 -0.1235 -0.2329
  146SAPE  C21316063   1.361   7.008   9.745 -0.4148  0.4751  0.3967
  146SAPE  H13R16064   1.334   6.950   9.836 -0.9185 -0.4778 -0.3499
  146SAPE  H13S16065   1.304   6.959   9.663 -0.1025  2.7371 -1.2828
  146SAPE  C21416066   1.321   7.151   9.762 -0.5331 -0.7114 -0.1899
  146SAPE  H14R16067   1.350   7.197   9.858 -1.1311  1.8447 -1.1285
  146SAPE  C21516068   1.262   7.225   9.671  0.4695  0.2685 -0.7084
  146SAPE  H15R16069   1.260   7.334   9.683 -4.2839  0.8845 -3.9793
  146SAPE  C21616070   1.228   7.188   9.534 -0.7261  0.6568 -0.2602
  146SAPE  H16R16071   1.130   7.226   9.500 -0.7182  1.9193  1.0057
  146SAPE  H16S16072   1.221   7.079   9.510  3.3270  0.0006  0.7150
  146SAPE  C21716073   1.335   7.244   9.439 -0.3079 -0.6253 -0.5207
  146SAPE  H17R16074   1.436   7.208   9.466  0.2732  1.5464  0.4151
  146SAPE  H17S16075   1.325   7.354   9.451 -2.5662 -0.7050 -1.1870
  146SAPE  C21816076   1.301   7.243   9.289  0.5718  0.0922 -1.0371
  146SAPE  H18R16077   1.369   7.308   9.230 -0.1919  1.0686 -0.8700
  146SAPE  H18S16078   1.196   7.278   9.278  0.0682 -1.2235 -0.5962
  146SAPE  C21916079   1.293   7.095   9.243 -0.1625  0.3312  0.3550
  146SAPE  H19R16080   1.249   7.093   9.141  0.0705 -1.1478  0.2550
  146SAPE  H19S16081   1.228   7.033   9.308  0.9580 -0.6847  0.5617
  146SAPE  C22016082   1.425   7.020   9.233 -0.3149 -0.6392 -0.2175
  146SAPE  H20R16083   1.457   6.990   9.335  2.4678 -3.2419 -1.6773
  146SAPE  H20S16084   1.510   7.072   9.184 -0.2146 -1.5290 -1.0070
  146SAPE  H20T16085   1.418   6.925   9.176 -1.0186  0.3593 -1.8766
  146SAPE   C3316086   1.079   6.969  10.151  0.3679  0.3792  0.1729
  146SAPE   H3X16087   1.157   6.899  10.114  1.6535  0.6953  2.1055
  146SAPE   H3Y16088   1.132   7.045  10.211  0.7300 -0.5206  1.0289
  146SAPE   C3416089   1.006   7.021  10.027  0.0123  0.7750  0.2505
  146SAPE   H4X16090   1.082   7.084   9.977  1.8434 -1.9753 -0.6223
  146SAPE   H4Y16091   0.916   7.078  10.061  0.5440  1.9484 -0.2712
  146SAPE   C3516092   0.962   6.914   9.924 -0.3059 -0.1589 -0.2030
  146SAPE   H5X16093   0.888   6.853   9.980  2.6506  0.5655  5.1715
  146SAPE   H5Y16094   1.042   6.839   9.911 -1.7586 -2.4476  2.8793
  146SAPE   C3616095   0.926   6.980   9.784  0.1296  0.8243 -0.0014
  146SAPE   H6X16096   1.010   7.024   9.726  0.9270  2.1191  2.0075
  146SAPE   H6Y16097   0.858   7.063   9.813 -1.4747 -0.4286 -0.0531
  146SAPE   C3716098   0.862   6.882   9.683 -0.0969 -0.5482 -0.3356
  146SAPE   H7X16099   0.772   6.836   9.729 -0.6921  1.4971  0.7073
  146SAPE   H7Y16100   0.935   6.813   9.636 -1.0676 -1.9533  0.1427
  146SAPE   C3816101   0.803   6.954   9.556  0.4652 -0.1108 -0.6421
  146SAPE   H8X16102   0.740   7.037   9.594  0.8911 -0.7047  1.4732
  146SAPE   H8Y16103   0.722   6.894   9.508  0.2330 -1.0915  0.9146
  146SAPE   C3916104   0.905   6.985   9.442 -0.2657  0.3104  0.6588
  146SAPE   H9X16105   0.945   6.886   9.410 -2.4842  0.5811 -3.6910
  146SAPE   H9Y16106   0.986   7.046   9.486  0.9041 -0.7857  0.0992
  146SAPE  C31016107   0.847   7.064   9.316 -0.3481 -0.5533 -0.2286
  146SAPE  H10X16108   0.762   7.007   9.272 -2.3369  3.6078 -2.3662
  146SAPE  H10Y16109   0.929   7.077   9.242 -2.1391 -0.2926 -2.2595
  146SAPE  C31116110   0.790   7.196   9.358 -0.5066  0.1487  0.5560
  146SAPE  H11X16111   0.867   7.251   9.416 -1.0894 -0.2558  1.7539
  146SAPE  H11Y16112   0.704   7.181   9.427 -0.7679 -0.4401  0.1064
  146SAPE  C31216113   0.737   7.274   9.237 -0.0269 -0.1549 -0.8677
  146SAPE  H12X16114   0.817   7.282   9.161 -0.4147  1.1993 -1.1556
  146SAPE  H12Y16115   0.715   7.375   9.278  3.5774  0.9584 -1.3288
  146SAPE  C31316116   0.612   7.218   9.175 -0.2514 -0.1123  0.4280
  146SAPE  H13X16117   0.538   7.214   9.259  0.5558 -2.2300  1.1050
  146SAPE  H13Y16118   0.615   7.112   9.141 -2.0157  0.2620 -1.0802
  146SAPE  C31416119   0.553   7.304   9.059  0.7410 -0.1351  0.0345
  146SAPE  H14X16120   0.515   7.401   9.098  0.2191  0.1208 -1.0496
  146SAPE  H14Y16121   0.460   7.259   9.019  2.2211 -0.0729 -3.9775
  146SAPE  C31516122   0.645   7.323   8.941  0.6445  0.2318  0.0184
  146SAPE  H15X16123   0.669   7.224   8.897 -0.4564 -0.1714  0.3036
  146SAPE  H15Y16124   0.748   7.356   8.969  1.2378  0.1828 -1.9619
  146SAPE  C31616125   0.596   7.411   8.825  0.3349 -0.4460 -0.0908
  146SAPE  H16X16126   0.680   7.419   8.753  0.6697 -0.3263  0.3123
  146SAPE  H16Y16127   0.588   7.516   8.862 -1.3395  0.3194 -2.3666
  146SAPE  C31716128   0.466   7.363   8.761  0.1399  0.0080 -0.4491
  146SAPE  H17X16129   0.387   7.381   8.837  1.0637  1.4322  0.2017
  146SAPE  H17Y16130   0.468   7.255   8.735  0.6560 -0.2889  0.7423
  146SAPE  C31816131   0.416   7.458   8.646 -0.5444  0.7425  1.0618
  146SAPE  H18X16132   0.481   7.441   8.558 -0.2518  0.6621  1.2922
  146SAPE  H18Y16133   0.428   7.566   8.672  1.2026  1.3542 -1.9060
  146SAPE  H18Z16134   0.311   7.428   8.624 -0.3570  2.4760 -2.9910
  147SAPE     N16135   4.188   4.533   6.034 -0.4228  0.1485 -0.0725
  147SAPE   HN116136   4.289   4.558   6.046  0.1684 -2.6537  1.8956
  147SAPE   HN216137   4.183   4.451   5.970 -1.3223  1.2100 -1.3873
  147SAPE   HN316138   4.130   4.612   6.000 -0.1047 -0.5885 -2.5016
  147SAPE   C1216139   4.122   4.498   6.166 -0.2685  0.0847 -0.0710
  147SAPE  H12A16140   4.127   4.387   6.177 -2.7763  0.1168  2.8921
  147SAPE  H12B16141   4.015   4.512   6.143  0.6601  1.3798 -4.4624
  147SAPE   C1116142   4.166   4.570   6.294  0.3211 -0.3603  0.6212
  147SAPE  H11A16143   4.277   4.568   6.299  0.3288 -1.1046  0.2524
  147SAPE  H11B16144   4.132   4.513   6.383 -1.1081 -1.2116 -0.4315
  147SAPE     P16145   3.987   4.745   6.363 -0.3642 -0.0523  0.0589
  147SAPE   O1316146   3.975   4.896   6.352 -0.4155  0.4987  0.0293
  147SAPE   O1416147   3.870   4.664   6.324  0.0152 -0.0393 -0.0410
  147SAPE   O1216148   4.116   4.702   6.284  0.6235 -0.3350  0.0764
  147SAPE   O1116149   4.037   4.714   6.505  0.1565  0.0756  0.1172
  147SAPE    C116150   4.151   4.775   6.568 -0.3710  0.6087  0.0295
  147SAPE    HA16151   4.233   4.703   6.588  1.7964  2.7673 -0.6467
  147SAPE    HB16152   4.195   4.852   6.502 -1.2168 -0.8355 -2.3525
  147SAPE    C216153   4.108   4.852   6.697  0.2041  0.2592  0.4035
  147SAPE    HS16154   4.177   4.939   6.692 -1.9023  1.9508 -2.2402
  147SAPE   O2116155   4.108   4.778   6.824  0.0964 -0.8254  0.2586
  147SAPE   C2116156   4.230   4.783   6.877 -0.3151  0.6618 -0.4185
  147SAPE   O2216157   4.334   4.824   6.826 -0.2142 -0.4818 -0.0555
  147SAPE   C2216158   4.227   4.719   7.010 -0.1943 -0.0707  0.3535
  147SAPE   H2R16159   4.202   4.612   6.992  1.3533 -0.5288  0.8081
  147SAPE   H2S16160   4.331   4.715   7.049  0.8715 -0.6633 -2.3125
  147SAPE    C316161   3.963   4.916   6.678  0.1176  0.1191  0.0576
  147SAPE    HX16162   3.887   4.836   6.678  0.2224 -0.0521 -1.9196
  147SAPE    HY16163   3.969   4.960   6.576 -1.3191  0.2856  0.0341
  147SAPE   O3116164   3.944   5.016   6.783  0.2777 -0.2863  0.0064
  147SAPE   C3116165   3.820   5.037   6.829 -0.1670 -0.0857 -0.3219
  147SAPE   O3216166   3.725   4.962   6.797  0.2799 -0.2096  0.1470
  147SAPE   C3216167   3.814   5.170   6.914 -0.3379  0.0664  0.6050
  147SAPE   H2X16168   3.795   5.254   6.844 -1.1274 -0.1719  0.5278
  147SAPE   H2Y16169   3.902   5.192   6.980 -1.4893  2.2471  1.5081
  147SAPE   C2316170   4.103   4.777   7.094  0.4992 -0.6401 -0.1563
  147SAPE   H3R16171   4.104   4.737   7.197  2.0867  3.7847  1.7945
  147SAPE   H3S16172   4.017   4.729   7.044  0.4269 -1.0219  0.3276
  147SAPE   C2416173   4.096   4.932   7.104 -0.0645  0.5468  0.1054
  147SAPE   H4R16174   3.996   4.962   7.143  0.0801  2.5080 -0.9271
  147SAPE   H4S16175   4.086   4.967   6.999 -1.1207 -0.1978 -0.0658
  147SAPE   C2516176   4.211   4.989   7.184  0.0673  0.2468  0.2841
  147SAPE   H5R16177   4.305   5.003   7.129 -0.1489  0.1208 -0.1249
  147SAPE   C2616178   4.209   5.036   7.312 -0.5372 -0.0488  0.3977
  147SAPE   H6R16179   4.299   5.073   7.363 -1.0607 -0.2517  1.4964
  147SAPE   C2716180   4.086   5.034   7.399 -0.1292  0.8592  0.2694
  147SAPE   H7R16181   4.112   5.045   7.507  1.1346 -1.9188  0.3408
  147SAPE   H7S16182   4.045   4.931   7.396  0.4104  0.6115  0.9648
  147SAPE   C2816183   3.981   5.137   7.362 -0.0240  0.0301 -0.3080
  147SAPE   H8R16184   4.005   5.187   7.267 -0.3455  0.1019 -0.3511
  147SAPE   C2916185   3.869   5.166   7.423  0.4977  0.2416 -0.4568
  147SAPE   H9R16186   3.802   5.248   7.394  2.5505  2.6929  1.2462
  147SAPE  C21016187   3.824   5.097   7.549 -0.5420  0.1887  0.1358
  147SAPE  H10R16188   3.823   5.169   7.633  0.4234  1.2614 -0.7532
  147SAPE  H10S16189   3.900   5.023   7.582 -1.3277 -0.9964 -0.5980
  147SAPE  C21116190   3.693   5.025   7.533 -0.3296  0.1977 -0.4215
  147SAPE  H11R16191   3.668   5.005   7.428 -1.9086 -3.0867  0.4331
  147SAPE  C21216192   3.600   4.985   7.623 -0.3940 -0.8310 -0.7041
  147SAPE  H12R16193   3.501   4.941   7.604 -1.1434  0.1264  0.8372
  147SAPE  C21316194   3.613   5.011   7.774 -0.0962  0.5330 -0.5287
  147SAPE  H13R16195   3.561   5.107   7.796  1.1465  0.7518  1.6832
  147SAPE  H13S16196   3.718   5.009   7.809  0.4330 -0.4789 -2.0813
  147SAPE  C21416197   3.544   4.900   7.860 -0.8148 -0.2864  0.1392
  147SAPE  H14R16198   3.572   4.795   7.846  0.9623 -0.0797  1.6747
  147SAPE  C21516199   3.479   4.927   7.967 -0.1330 -0.1601 -0.1558
  147SAPE  H15R16200   3.445   4.841   8.029 -3.5509  1.2640  0.1920
  147SAPE  C21616201   3.442   5.054   8.033  0.2684 -0.1384 -0.5158
  147SAPE  H16R16202   3.336   5.058   8.068  1.1558 -0.3788  2.4642
  147SAPE  H16S16203   3.444   5.141   7.963 -1.5491  1.0707  0.8420
  147SAPE  C21716204   3.522   5.084   8.165  0.0486  0.1962  0.4755
  147SAPE  H17R16205   3.482   5.012   8.239 -2.1958  0.7777 -0.0919
  147SAPE  H17S16206   3.493   5.189   8.186 -1.2579  0.1654 -1.0269
  147SAPE  C21816207   3.679   5.076   8.144  1.1654  0.2820 -0.6941
  147SAPE  H18R16208   3.717   5.176   8.114 -0.5687  1.6450  1.2803
  147SAPE  H18S16209   3.710   5.000   8.070  1.3346  1.0836 -1.4616
  147SAPE  C21916210   3.750   5.056   8.277 -0.2945 -0.0529  0.2055
  147SAPE  H19R16211   3.706   4.970   8.331  0.5040  0.6393  2.0616
  147SAPE  H19S16212   3.729   5.141   8.345 -1.5874 -0.5203  0.4094
  147SAPE  C22016213   3.901   5.037   8.251  0.7108  0.8149  1.0421
  147SAPE  H20R16214   3.914   4.961   8.170  1.0640  2.6361 -0.7016
  147SAPE  H20S16215   3.958   5.004   8.340 -0.7272  0.4903  1.8762
  147SAPE  H20T16216   3.948   5.125   8.201  1.1411 -0.3860 -0.7648
  147SAPE   C3316217   3.701   5.169   7.018 -0.3424 -0.4030  0.1026
  147SAPE   H3X16218   3.716   5.089   7.094 -0.9992  1.4866  2.3494
  147SAPE   H3Y16219   3.605   5.152   6.964  0.6336 -2.3069 -1.1637
  147SAPE   C3416220   3.701   5.305   7.096 -0.0758 -0.3959  0.7149
  147SAPE   H4X16221   3.731   5.391   7.032 -3.9297  0.6000 -0.0363
  147SAPE   H4Y16222   3.760   5.296   7.189  0.9808  1.3636  0.2605
  147SAPE   C3516223   3.557   5.330   7.147  0.3514 -0.4046 -0.4681
  147SAPE   H5X16224   3.530   5.246   7.215 -1.7754 -1.6358 -2.6669
  147SAPE   H5Y16225   3.490   5.331   7.058  0.2593  1.9518 -0.4297
  147SAPE   C3616226   3.555   5.459   7.228  0.3032 -0.2390 -0.0737
  147SAPE   H6X16227   3.529   5.555   7.176 -2.3389 -0.5378  0.5509
  147SAPE   H6Y16228   3.646   5.477   7.289  0.7882 -3.6860  0.4231
  147SAPE   C3716229   3.455   5.444   7.347  0.2223 -0.1526 -0.2575
  147SAPE   H7X16230   3.478   5.345   7.393 -0.6164 -0.0223  0.4732
  147SAPE   H7Y16231   3.352   5.443   7.303  0.9874  2.1563 -2.3178
  147SAPE   C3816232   3.464   5.554   7.447 -0.0618  0.3707 -0.0213
  147SAPE   H8X16233   3.430   5.652   7.408 -0.4165 -0.5279 -2.1076
  147SAPE   H8Y16234   3.572   5.555   7.473 -0.3651 -1.8292  1.6327
  147SAPE   C3916235   3.383   5.533   7.577 -0.9132  0.3687  1.0437
  147SAPE   H9X16236   3.277   5.512   7.548  0.0977 -0.8676 -2.2504
  147SAPE   H9Y16237   3.392   5.630   7.629  2.4617  0.1375  1.1234
  147SAPE  C31016238   3.437   5.420   7.666  0.1117 -0.1792  0.2427
  147SAPE  H10X16239   3.547   5.422   7.679  0.0130  1.6973  1.1124
  147SAPE  H10Y16240   3.408   5.324   7.617 -0.2811  0.7376 -1.3706
  147SAPE  C31116241   3.386   5.440   7.806  0.7513 -0.2764  0.5003
  147SAPE  H11X16242   3.393   5.341   7.855  0.2111  1.0499  3.4931
  147SAPE  H11Y16243   3.280   5.464   7.782  1.6982  1.8484 -2.1863
  147SAPE  C31216244   3.441   5.550   7.902  0.1619  1.4863  0.5270
  147SAPE  H12X16245   3.366   5.569   7.981 -0.6757  0.8735 -0.0998
  147SAPE  H12Y16246   3.460   5.645   7.846 -0.4975  1.4734  0.2775
  147SAPE  C31316247   3.577   5.507   7.961 -0.1078 -0.1730 -0.6127
  147SAPE  H13X16248   3.655   5.546   7.894 -1.8799  1.2155 -1.9719
  147SAPE  H13Y16249   3.577   5.396   7.971  1.1163 -0.1529 -0.3195
  147SAPE  C31416250   3.598   5.568   8.102 -0.0572  0.1798  0.8387
  147SAPE  H14X16251   3.693   5.530   8.148 -0.0113  1.1220  1.5515
  147SAPE  H14Y16252   3.509   5.550   8.166  0.8211 -2.9786  1.3718
  147SAPE  C31516253   3.609   5.722   8.102 -0.4785  0.4074  0.3530
  147SAPE  H15X16254   3.552   5.759   8.014  3.2600  2.3066 -1.4972
  147SAPE  H15Y16255   3.714   5.754   8.087 -0.7117  0.9181 -0.2173
  147SAPE  C31616256   3.560   5.798   8.224  0.1124  0.2541 -0.4466
  147SAPE  H16X16257   3.450   5.782   8.227  0.1523 -0.0113  1.6895
  147SAPE  H16Y16258   3.577   5.906   8.205  0.4885  0.2388 -0.2039
  147SAPE  C31716259   3.610   5.762   8.362  0.0034  0.1615 -0.3721
  147SAPE  H17X16260   3.720   5.778   8.374  0.1682 -0.8715 -0.4000
  147SAPE  H17Y16261   3.595   5.656   8.392 -1.6014  0.8985  1.6304
  147SAPE  C31816262   3.543   5.849   8.473 -0.2611  0.4861  0.4773
  147SAPE  H18X16263   3.596   5.847   8.571 -1.7349  2.8234  1.3922
  147SAPE  H18Y16264   3.446   5.798   8.488  0.5822 -1.6391 -0.8182
  147SAPE  H18Z16265   3.524   5.954   8.443  0.4105  0.3914 -0.3134
  148SAPE     N16266   4.086   3.595   6.648 -0.4399 -0.0431 -0.2128
  148SAPE   HN116267   3.999   3.562   6.603 -0.8114 -1.2171  1.2660
  148SAPE   HN216268   4.113   3.526   6.721 -0.9918  1.2097  1.2370
  148SAPE   HN316269   4.062   3.684   6.696 -0.4124 -0.7749  1.2378
  148SAPE   C1216270   4.174   3.628   6.530  0.7600  0.5112  0.2436
  148SAPE  H12A16271   4.116   3.707   6.476  2.3297 -0.1186 -2.5796
  148SAPE  H12B16272   4.187   3.537   6.468  1.0268  0.1496  0.8245
  148SAPE   C1116273   4.303   3.689   6.588  0.0481  0.2792  0.4750
  148SAPE  H11A16274   4.265   3.754   6.669 -0.5839 -1.6211  1.7853
  148SAPE  H11B16275   4.342   3.750   6.504  0.6555 -0.5251  0.1573
  148SAPE     P16276   4.541   3.571   6.583 -0.4007  0.1284 -0.3942
  148SAPE   O1316277   4.595   3.444   6.631 -0.5936  0.0178  0.2375
  148SAPE   O1416278   4.556   3.594   6.443 -0.2973 -0.1611 -0.2697
  148SAPE   O1216279   4.394   3.585   6.623 -0.1249  0.3264  0.0655
  148SAPE   O1116280   4.617   3.692   6.661  0.6151 -0.3932 -0.5276
  148SAPE    C116281   4.572   3.744   6.790 -0.2612  0.3216 -0.0290
  148SAPE    HA16282   4.620   3.843   6.803  0.9694 -0.5286  2.6329
  148SAPE    HB16283   4.462   3.756   6.799 -0.4604 -2.2659  2.5706
  148SAPE    C216284   4.608   3.652   6.905 -0.8539 -0.4439  0.1548
  148SAPE    HS16285   4.556   3.555   6.890  0.7016 -1.0400 -1.8831
  148SAPE   O2116286   4.579   3.725   7.025 -0.4993 -0.0214 -0.2807
  148SAPE   C2116287   4.461   3.700   7.085  0.2654  0.7818 -0.8496
  148SAPE   O2216288   4.368   3.636   7.038 -0.2709 -0.2078  0.4040
  148SAPE   C2216289   4.460   3.755   7.221  0.0665  0.0330 -0.1460
  148SAPE   H2R16290   4.566   3.765   7.252 -0.0653 -1.8346  1.0830
  148SAPE   H2S16291   4.405   3.851   7.227 -1.0219 -0.5874  0.0574
  148SAPE    C316292   4.762   3.637   6.918 -0.4278 -0.4179  1.2666
  148SAPE    HX16293   4.812   3.735   6.900  0.0903 -0.3541  2.8810
  148SAPE    HY16294   4.792   3.568   6.837 -0.9380 -0.0698  0.7786
  148SAPE   O3116295   4.811   3.581   7.036 -0.2056  0.2187 -0.2822
  148SAPE   C3116296   4.897   3.649   7.111 -0.5998  0.0768 -0.4496
  148SAPE   O3216297   4.939   3.760   7.092  0.0214  0.2822  0.5485
  148SAPE   C3216298   4.936   3.567   7.230 -0.6454  0.5032  0.1171
  148SAPE   H2X16299   5.036   3.598   7.267 -0.7189 -1.3079  2.0161
  148SAPE   H2Y16300   4.953   3.464   7.193  0.7555  0.9411 -0.5486
  148SAPE   C2316301   4.395   3.669   7.333 -0.0230  0.5484 -0.0241
  148SAPE   H3R16302   4.446   3.570   7.336  0.5997  0.8778  0.4601
  148SAPE   H3S16303   4.288   3.649   7.310 -0.0064  1.9211 -1.4706
  148SAPE   C2416304   4.401   3.708   7.484 -0.2785 -0.0287  0.7158
  148SAPE   H4R16305   4.505   3.703   7.521  0.6766 -1.6043 -1.9303
  148SAPE   H4S16306   4.336   3.639   7.542 -0.5610 -0.1879  0.2156
  148SAPE   C2516307   4.347   3.851   7.493 -0.3235 -0.2851  0.4074
  148SAPE   H5R16308   4.384   3.934   7.431 -0.5681 -0.2447  0.3141
  148SAPE   C2616309   4.250   3.891   7.581 -0.7395  0.0644 -0.6176
  148SAPE   H6R16310   4.209   3.993   7.570  2.3185  1.4101 -0.6377
  148SAPE   C2716311   4.171   3.814   7.685 -0.0965  0.1201  0.4676
  148SAPE   H7R16312   4.208   3.710   7.691  0.9941  0.3530 -1.4367
  148SAPE   H7S16313   4.071   3.787   7.645  1.0773 -0.1454 -2.5785
  148SAPE   C2816314   4.154   3.881   7.816  0.0378 -0.5136  0.0928
  148SAPE   H8R16315   4.136   3.990   7.811 -1.2390 -0.7571 -1.9453
  148SAPE   C2916316   4.137   3.824   7.938  0.5325 -0.1687  0.3535
  148SAPE   H9R16317   4.141   3.878   8.034  0.8498  0.2971  0.0824
  148SAPE  C21016318   4.126   3.674   7.960 -0.6966 -0.8480 -0.4008
  148SAPE  H10R16319   4.179   3.611   7.886  0.0619 -0.5833 -0.0953
  148SAPE  H10S16320   4.020   3.643   7.958 -0.5042 -1.6340  0.6027
  148SAPE  C21116321   4.189   3.625   8.087  0.0498  0.2578  0.6976
  148SAPE  H11R16322   4.298   3.637   8.093  0.4602 -1.9458 -1.0509
  148SAPE  C21216323   4.129   3.587   8.201 -0.0926 -0.5324 -0.7238
  148SAPE  H12R16324   4.187   3.577   8.293  1.0280  0.0651 -1.3475
  148SAPE  C21316325   3.980   3.585   8.233  0.0141 -0.8550  0.0310
  148SAPE  H13R16326   3.937   3.486   8.205  0.7109 -0.6048 -2.1011
  148SAPE  H13S16327   3.918   3.658   8.177  1.5408  0.6478  0.2311
  148SAPE  C21416328   3.943   3.624   8.378 -0.7681 -0.1382  0.6827
  148SAPE  H14R16329   3.896   3.723   8.380  2.2935  1.4234  1.5141
  148SAPE  C21516330   3.930   3.531   8.480  0.0527  0.0905  0.4578
  148SAPE  H15R16331   3.891   3.561   8.578 -3.9943 -0.1870 -0.8680
  148SAPE  C21616332   3.971   3.383   8.475  0.7468 -0.6302 -0.0671
  148SAPE  H16R16333   4.050   3.372   8.553  0.3369  0.6041  0.5562
  148SAPE  H16S16334   4.004   3.350   8.375  3.1162 -0.0734  0.4647
  148SAPE  C21716335   3.860   3.294   8.535 -0.4808  0.6922 -0.7648
  148SAPE  H17R16336   3.827   3.326   8.636  0.6737 -1.9695  0.5610
  148SAPE  H17S16337   3.901   3.191   8.542  0.8397  0.9830 -3.2052
  148SAPE  C21816338   3.733   3.276   8.446  0.1716 -0.4928  0.3782
  148SAPE  H18R16339   3.753   3.255   8.339  1.9124  0.7865  0.4080
  148SAPE  H18S16340   3.688   3.377   8.444  1.1453 -0.0442 -1.3108
  148SAPE  C21916341   3.629   3.177   8.516  0.9808 -0.6303 -0.2461
  148SAPE  H19R16342   3.584   3.242   8.594  1.7613  1.0162 -1.1126
  148SAPE  H19S16343   3.671   3.082   8.556  2.4899 -0.3041 -0.9656
  148SAPE  C22016344   3.507   3.148   8.433  0.4173  0.1419  0.1070
  148SAPE  H20R16345   3.426   3.115   8.502 -1.5415  0.3306 -1.9846
  148SAPE  H20S16346   3.525   3.069   8.358 -2.1513 -0.5249  0.0901
  148SAPE  H20T16347   3.465   3.239   8.384 -3.8604 -0.9135  1.3471
  148SAPE   C3316348   4.827   3.566   7.333  0.5485 -0.6567  0.2505
  148SAPE   H3X16349   4.844   3.485   7.407  0.1960 -2.2731 -1.3587
  148SAPE   H3Y16350   4.726   3.548   7.289 -0.2160  3.0864  0.1427
  148SAPE   C3416351   4.830   3.707   7.404 -0.0092  0.1035 -0.0257
  148SAPE   H4X16352   4.753   3.703   7.484 -0.3528  1.8355 -0.2343
  148SAPE   H4Y16353   4.806   3.785   7.329  1.2773  0.6784  0.1507
  148SAPE   C3516354   4.973   3.749   7.459 -0.1030  1.5276 -0.0190
  148SAPE   H5X16355   5.050   3.778   7.385  2.1010 -1.3108  1.0006
  148SAPE   H5Y16356   5.014   3.661   7.513  0.2857  0.7113 -1.6133
  148SAPE   C3616357   4.962   3.855   7.573 -0.4637 -0.7315  0.5667
  148SAPE   H6X16358   4.903   3.944   7.543  2.0492  1.5247  1.8258
  148SAPE   H6Y16359   5.066   3.892   7.584 -0.5413 -0.3944  0.1699
  148SAPE   C3716360   4.897   3.803   7.708 -0.3720 -0.6484  0.2940
  148SAPE   H7X16361   4.948   3.711   7.744 -1.0312 -1.1130  0.0597
  148SAPE   H7Y16362   4.790   3.773   7.700 -0.5068 -0.4490  1.2464
  148SAPE   C3816363   4.923   3.899   7.828  0.4750  0.5473 -0.0509
  148SAPE   H8X16364   5.028   3.935   7.835  0.4249  0.4312  2.6314
  148SAPE   H8Y16365   4.925   3.834   7.919  2.8905 -1.9720 -1.7484
  148SAPE   C3916366   4.841   4.029   7.840  0.6806 -0.2628  0.2928
  148SAPE   H9X16367   4.730   4.022   7.848  0.2177  1.7635 -2.7737
  148SAPE   H9Y16368   4.851   4.089   7.747  0.0509  0.3594  0.6150
  148SAPE  C31016369   4.891   4.114   7.962 -0.2121  0.5310  0.2280
  148SAPE  H10X16370   4.822   4.200   7.977  0.2818  1.0317 -0.3281
  148SAPE  H10Y16371   4.990   4.156   7.935  0.7980 -2.0451 -0.3782
  148SAPE  C31116372   4.897   4.034   8.098 -0.8154  0.2963 -0.0627
  148SAPE  H11X16373   4.986   3.968   8.110 -2.0660 -1.4085  0.3049
  148SAPE  H11Y16374   4.808   3.971   8.120 -1.8009  2.1710  1.5959
  148SAPE  C31216375   4.904   4.130   8.216 -0.0878  0.3258 -0.8772
  148SAPE  H12X16376   4.988   4.202   8.203 -0.3767  0.9809  0.7661
  148SAPE  H12Y16377   4.931   4.069   8.305 -0.0591  2.3223  0.5394
  148SAPE  C31316378   4.769   4.199   8.249 -1.0151  0.0662 -0.0920
  148SAPE  H13X16379   4.689   4.122   8.257 -0.0750 -0.8931  0.2643
  148SAPE  H13Y16380   4.739   4.256   8.158  2.2428  0.3739 -1.0942
  148SAPE  C31416381   4.791   4.290   8.367  0.2759  0.8387 -0.0001
  148SAPE  H14X16382   4.885   4.347   8.349 -0.3911  1.6860 -0.9211
  148SAPE  H14Y16383   4.804   4.216   8.449  2.9586  1.3047  0.0780
  148SAPE  C31516384   4.685   4.400   8.381  0.1160 -0.4573  0.9901
  148SAPE  H15X16385   4.696   4.450   8.479  2.1583  0.8198  0.1836
  148SAPE  H15Y16386   4.583   4.357   8.375  0.2524 -0.6170 -1.1002
  148SAPE  C31616387   4.689   4.514   8.282  0.1196 -0.4152 -0.2307
  148SAPE  H16X16388   4.601   4.576   8.307  1.7038  0.6965  3.1722
  148SAPE  H16Y16389   4.685   4.477   8.177 -2.1975  1.3051 -0.8101
  148SAPE  C31716390   4.810   4.620   8.290  1.0084 -0.1654  0.3281
  148SAPE  H17X16391   4.795   4.693   8.208  1.3427 -0.5932 -0.1226
  148SAPE  H17Y16392   4.906   4.564   8.282  0.1257 -1.6586 -0.4688
  148SAPE  C31816393   4.800   4.705   8.417 -0.4696 -0.4696  0.0455
  148SAPE  H18X16394   4.854   4.800   8.401 -1.2071 -0.5306 -3.6357
  148SAPE  H18Y16395   4.857   4.655   8.498  0.5689 -0.0126 -0.3889
  148SAPE  H18Z16396   4.694   4.713   8.449 -0.4431 -1.1652  0.3387
  149SAPE     N16397   2.309   5.010   5.924  0.5589  0.2044  0.1513
  149SAPE   HN116398   2.378   4.953   5.872 -1.1292 -0.1484 -1.8310
  149SAPE   HN216399   2.259   5.066   5.853 -1.7447 -2.4818 -0.5134
  149SAPE   HN316400   2.369   5.078   5.976  0.2044 -1.0106  2.3035
  149SAPE   C1216401   2.225   4.959   6.046 -0.1271 -0.4256  0.0395
  149SAPE  H12A16402   2.133   4.920   5.998  0.2545 -1.0875 -0.1598
  149SAPE  H12B16403   2.191   5.047   6.105 -0.8939 -0.2569 -0.6340
  149SAPE   C1116404   2.296   4.864   6.146  0.2270  1.0025  0.4206
  149SAPE  H11A16405   2.321   4.769   6.093  0.5046 -0.0185  2.2852
  149SAPE  H11B16406   2.227   4.835   6.227 -0.0737 -1.8851 -0.7455
  149SAPE     P16407   2.506   4.835   6.298  0.1860 -0.3178 -0.2517
  149SAPE   O1316408   2.479   4.691   6.282  0.1655 -0.3586 -0.2239
  149SAPE   O1416409   2.644   4.884   6.277 -0.2114  0.6501 -0.0154
  149SAPE   O1216410   2.409   4.918   6.207  0.1095 -0.2559 -0.4441
  149SAPE   O1116411   2.453   4.885   6.444  0.2136 -0.7135 -0.1874
  149SAPE    C116412   2.359   4.806   6.517 -0.0943  0.6025  0.1155
  149SAPE    HA16413   2.285   4.867   6.573  2.2580  1.6327  2.3164
  149SAPE    HB16414   2.297   4.737   6.456 -0.5414 -0.1887  1.4258
  149SAPE    C216415   2.431   4.732   6.642  0.0681  0.2040  0.0368
  149SAPE    HS16416   2.381   4.639   6.677  0.2725  0.3067  0.6226
  149SAPE   O2116417   2.455   4.820   6.750 -0.1278  0.0880 -0.1456
  149SAPE   C2116418   2.350   4.847   6.824 -1.0743  0.0274 -0.0000
  149SAPE   O2216419   2.239   4.814   6.790 -0.1138  0.2011 -0.2659
  149SAPE   C2216420   2.382   4.906   6.959 -0.3797 -0.0334 -1.0338
  149SAPE   H2R16421   2.479   4.863   6.990  0.1520  0.5733 -1.8127
  149SAPE   H2S16422   2.397   5.015   6.944 -1.7456  0.2602 -0.4461
  149SAPE    C316423   2.573   4.671   6.600  0.8187 -0.1235  0.4500
  149SAPE    HX16424   2.639   4.751   6.561 -0.9903  0.6045 -1.3099
  149SAPE    HY16425   2.554   4.600   6.516 -1.1901 -1.2559  1.7792
  149SAPE   O3116426   2.630   4.583   6.700  0.2328  0.1019 -0.0554
  149SAPE   C3116427   2.748   4.627   6.753 -0.3990  0.9100 -0.5844
  149SAPE   O3216428   2.823   4.707   6.708 -0.2189 -0.0575  0.4516
  149SAPE   C3216429   2.779   4.543   6.877 -0.1224 -0.2692 -0.5104
  149SAPE   H2X16430   2.888   4.558   6.887 -0.4455  3.8951 -1.2090
  149SAPE   H2Y16431   2.759   4.435   6.857  0.4462 -0.2991 -0.9430
  149SAPE   C2316432   2.257   4.887   7.051 -0.1761 -0.5046  0.6081
  149SAPE   H3R16433   2.165   4.915   6.996 -1.0087 -3.3932  0.3655
  149SAPE   H3S16434   2.260   4.958   7.137 -2.4681 -0.1063  0.4246
  149SAPE   C2416435   2.262   4.746   7.121  0.6282  0.7855  0.5292
  149SAPE   H4R16436   2.273   4.659   7.053 -0.5069 -0.7541  2.2246
  149SAPE   H4S16437   2.164   4.733   7.170 -0.8814  0.0055 -2.4672
  149SAPE   C2516438   2.380   4.746   7.213 -0.1951  0.4201 -0.7677
  149SAPE   H5R16439   2.472   4.741   7.154 -1.6676 -1.6850 -3.1071
  149SAPE   C2616440   2.386   4.745   7.346 -0.1829  0.0337 -0.5827
  149SAPE   H6R16441   2.484   4.739   7.395  0.3655  1.0553 -1.5194
  149SAPE   C2716442   2.260   4.751   7.435  0.1082  0.2286 -0.3055
  149SAPE   H7R16443   2.275   4.712   7.538 -0.9053  1.4970  0.3490
  149SAPE   H7S16444   2.179   4.683   7.401  1.0401 -2.5597  2.4738
  149SAPE   C2816445   2.198   4.889   7.445  0.5628  0.2561 -1.0351
  149SAPE   H8R16446   2.198   4.949   7.352 -0.6036 -1.6105 -2.3094
  149SAPE   C2916447   2.145   4.942   7.555 -0.2764  0.1523 -0.8879
  149SAPE   H9R16448   2.098   5.041   7.547 -2.2159 -0.5523  0.7739
  149SAPE  C21016449   2.133   4.871   7.683  0.2513  0.7608  0.0314
  149SAPE  H10R16450   2.233   4.833   7.716 -0.6413 -0.3359  1.6398
  149SAPE  H10S16451   2.088   4.770   7.671 -1.7418  1.7025 -0.8142
  149SAPE  C21116452   2.064   4.941   7.797 -0.7204 -0.1153  0.4404
  149SAPE  H11R16453   2.028   5.044   7.781 -0.6927 -0.4159 -1.9153
  149SAPE  C21216454   2.022   4.889   7.911 -0.1641 -0.0561  0.1196
  149SAPE  H12R16455   1.972   4.946   7.991 -0.5321 -2.1650  1.4866
  149SAPE  C21316456   2.035   4.741   7.942 -0.0466  0.9819  0.1653
  149SAPE  H13R16457   2.142   4.716   7.958 -0.0406  1.6709  1.2920
  149SAPE  H13S16458   2.003   4.677   7.857  0.2913  2.2703 -0.9541
  149SAPE  C21416459   1.961   4.701   8.066  0.6107 -1.0919 -0.1104
  149SAPE  H14R16460   1.859   4.661   8.053  0.8042 -1.6557  0.0962
  149SAPE  C21516461   2.011   4.719   8.191 -0.0771 -0.2979 -0.8017
  149SAPE  H15R16462   1.940   4.702   8.274 -0.7150  0.6656 -1.1261
  149SAPE  C21616463   2.144   4.770   8.252  0.6984 -0.1186  0.5663
  149SAPE  H16R16464   2.130   4.864   8.309 -1.6049  1.1678 -1.8969
  149SAPE  H16S16465   2.209   4.796   8.165  0.4801  1.1232  0.7563
  149SAPE  C21716466   2.214   4.664   8.341 -1.0775  0.3563 -0.3238
  149SAPE  H17R16467   2.166   4.637   8.438 -0.1489  1.0309  0.3348
  149SAPE  H17S16468   2.314   4.701   8.369 -0.0483 -1.1464 -1.7945
  149SAPE  C21816469   2.237   4.537   8.258 -0.3094 -0.0266  0.2389
  149SAPE  H18R16470   2.296   4.553   8.165 -1.8019  2.3287 -0.3789
  149SAPE  H18S16471   2.140   4.493   8.227  1.6760 -2.7754 -2.7645
  149SAPE  C21916472   2.302   4.415   8.331 -0.6598 -0.0448  0.2425
  149SAPE  H19R16473   2.225   4.364   8.392 -0.5147  1.3694  1.6725
  149SAPE  H19S16474   2.371   4.448   8.411 -1.7297  3.2595 -0.0450
  149SAPE  C22016475   2.370   4.322   8.229 -0.3158  0.4552 -0.3243
  149SAPE  H20R16476   2.308   4.311   8.138  0.8126  1.3290 -1.2277
  149SAPE  H20S16477   2.396   4.221   8.266  2.0735  0.1549 -2.5577
  149SAPE  H20T16478   2.468   4.363   8.196  1.0678 -1.3954  1.2627
  149SAPE   C3316479   2.694   4.584   6.999 -0.6212 -0.5070  0.0992
  149SAPE   H3X16480   2.588   4.555   6.984 -1.2881  2.2907 -1.3500
  149SAPE   H3Y16481   2.700   4.695   6.997  0.9303 -0.5745 -1.6714
  149SAPE   C3416482   2.751   4.513   7.125  0.8622 -0.1417  0.9615
  149SAPE   H4X16483   2.862   4.504   7.117  0.7784  0.1448 -1.0267
  149SAPE   H4Y16484   2.720   4.407   7.118 -1.0462  0.4957 -2.8125
  149SAPE   C3516485   2.697   4.569   7.258 -0.3917 -0.0845 -0.4560
  149SAPE   H5X16486   2.592   4.535   7.273 -0.8771  1.1707 -0.8767
  149SAPE   H5Y16487   2.689   4.680   7.255  0.4584  0.0324  0.7103
  149SAPE   C3616488   2.768   4.530   7.389 -0.9608  0.4999  0.0835
  149SAPE   H6X16489   2.700   4.575   7.465 -2.0665 -0.6693 -0.1887
  149SAPE   H6Y16490   2.868   4.578   7.397 -1.3949  1.4598 -0.0490
  149SAPE   C3716491   2.779   4.379   7.412 -0.7135 -0.3133 -0.2204
  149SAPE   H7X16492   2.840   4.325   7.336 -0.3558  0.9920 -0.9054
  149SAPE   H7Y16493   2.674   4.345   7.400 -0.7280 -0.6844  0.9009
  149SAPE   C3816494   2.821   4.352   7.557 -0.0569  0.2612 -0.3005
  149SAPE   H8X16495   2.746   4.394   7.627  0.6558 -0.8465  1.1818
  149SAPE   H8Y16496   2.926   4.388   7.569  0.1311  0.2099 -1.5956
  149SAPE   C3916497   2.823   4.200   7.581 -0.5839 -0.8089 -0.0812
  149SAPE   H9X16498   2.921   4.155   7.552  1.2828  2.1092  1.1483
  149SAPE   H9Y16499   2.740   4.145   7.533 -0.8657 -0.6067  0.1686
  149SAPE  C31016500   2.818   4.155   7.733  0.2568  0.3639 -0.0868
  149SAPE  H10X16501   2.904   4.206   7.781 -0.7560  4.2884 -1.9363
  149SAPE  H10Y16502   2.824   4.045   7.744  2.5569  0.4625  0.0798
  149SAPE  C31116503   2.678   4.179   7.789  0.3111 -0.3548 -0.0855
  149SAPE  H11X16504   2.600   4.130   7.727 -0.8559  0.2284  0.8879
  149SAPE  H11Y16505   2.660   4.288   7.791 -2.2490 -0.7035 -0.8684
  149SAPE  C31216506   2.650   4.130   7.931  0.3013 -0.7198  0.2952
  149SAPE  H12X16507   2.631   4.021   7.933 -0.2088 -0.6463 -0.2708
  149SAPE  H12Y16508   2.557   4.184   7.960  0.9913  2.7326 -3.1373
  149SAPE  C31316509   2.766   4.158   8.028  0.3110 -0.2765 -0.0171
  149SAPE  H13X16510   2.778   4.268   8.035 -1.6483 -0.0347  0.1972
  149SAPE  H13Y16511   2.852   4.106   7.981  0.6302 -0.0042  0.2621
  149SAPE  C31416512   2.738   4.105   8.167 -0.1679 -0.0522 -0.1218
  149SAPE  H14X16513   2.729   3.995   8.170  1.6052 -0.1962  1.9403
  149SAPE  H14Y16514   2.648   4.152   8.212 -1.0299  0.1067 -1.9206
  149SAPE  C31516515   2.854   4.143   8.260 -0.8037 -0.3373  0.5690
  149SAPE  H15X16516   2.863   4.254   8.260  2.8904 -0.5421 -0.0590
  149SAPE  H15Y16517   2.950   4.117   8.211 -0.4713  1.9654 -0.1083
  149SAPE  C31616518   2.846   4.069   8.390  0.2923 -0.2853  0.2087
  149SAPE  H16X16519   2.938   4.082   8.451  0.6137 -1.5412  0.0206
  149SAPE  H16Y16520   2.845   3.960   8.367 -0.4080 -0.1681 -0.3570
  149SAPE  C31716521   2.713   4.105   8.459  0.0835  0.0334 -0.4714
  149SAPE  H17X16522   2.703   4.055   8.557 -0.4569  0.1186 -0.4824
  149SAPE  H17Y16523   2.624   4.075   8.400  1.5767 -0.0661 -2.8069
  149SAPE  C31816524   2.689   4.256   8.488  0.1977  0.1515  0.6790
  149SAPE  H18X16525   2.610   4.266   8.566  0.7269 -0.6798  1.3416
  149SAPE  H18Y16526   2.667   4.305   8.391  1.2471 -0.6946 -0.0190
  149SAPE  H18Z16527   2.781   4.299   8.534  1.4553 -0.7028 -0.9212
  150SAPE     N16528   1.534   4.769   6.337 -0.1517  0.4301 -0.0721
  150SAPE   HN116529   1.603   4.776   6.259 -0.5133  3.3346 -0.2691
  150SAPE   HN216530   1.511   4.669   6.352  1.0025  0.1542  0.0012
  150SAPE   HN316531   1.457   4.829   6.302  0.5555  1.2585 -0.2743
  150SAPE   C1216532   1.607   4.804   6.459 -0.1874 -0.4279 -0.0259
  150SAPE  H12A16533   1.539   4.793   6.546 -0.8775 -0.5485 -0.5724
  150SAPE  H12B16534   1.638   4.911   6.455 -2.9348  0.4117 -1.2718
  150SAPE   C1116535   1.723   4.703   6.478 -0.0862 -0.0702 -0.3465
  150SAPE  H11A16536   1.695   4.603   6.517  2.1840  0.0602  1.8777
  150SAPE  H11B16537   1.783   4.750   6.559  0.6910 -0.4361 -0.7104
  150SAPE     P16538   1.935   4.765   6.331  0.2633 -0.2674 -0.0948
  150SAPE   O1316539   1.995   4.704   6.210 -0.2921 -0.1304 -0.1816
  150SAPE   O1416540   1.910   4.908   6.337 -0.3377 -0.7701 -0.1601
  150SAPE   O1216541   1.799   4.693   6.360 -0.1768  0.0557  0.1144
  150SAPE   O1116542   2.011   4.729   6.460 -0.3241  0.8000 -0.1153
  150SAPE    C116543   2.066   4.596   6.460 -0.4264 -0.1088 -0.3122
  150SAPE    HA16544   2.099   4.547   6.365 -1.9664 -0.9106 -0.4698
  150SAPE    HB16545   2.159   4.605   6.520 -0.1762 -1.1292 -0.5205
  150SAPE    C216546   1.981   4.493   6.547 -0.0739  0.3606 -0.0270
  150SAPE    HS16547   1.880   4.485   6.500 -0.1760 -0.9749  0.3856
  150SAPE   O2116548   1.983   4.537   6.678  0.9295  0.4467 -0.2653
  150SAPE   C2116549   1.878   4.504   6.749  0.1051  1.1267 -0.1748
  150SAPE   O2216550   1.779   4.450   6.702 -0.7098  0.1657  0.4995
  150SAPE   C2216551   1.901   4.535   6.895  0.4925 -0.2745  0.1884
  150SAPE   H2R16552   1.955   4.450   6.942  1.7013 -0.2484 -1.0732
  150SAPE   H2S16553   1.969   4.623   6.889  0.2348  0.1418  2.5167
  150SAPE    C316554   2.030   4.351   6.546 -0.4506 -0.8977 -0.0765
  150SAPE    HX16555   2.035   4.323   6.438  1.1195 -0.1893 -0.2066
  150SAPE    HY16556   1.962   4.282   6.600  1.0187 -2.1037  0.2776
  150SAPE   O3116557   2.163   4.359   6.598  0.3479 -0.2952  0.4937
  150SAPE   C3116558   2.181   4.302   6.716  0.2352 -0.2450 -0.6468
  150SAPE   O3216559   2.099   4.242   6.783  0.0879 -0.7334 -0.6944
  150SAPE   C3216560   2.331   4.321   6.766  0.5062  0.3815 -0.4429
  150SAPE   H2X16561   2.377   4.388   6.691 -0.8724  0.8647 -0.8896
  150SAPE   H2Y16562   2.386   4.224   6.768  0.5243  0.3922  0.9273
  150SAPE   C2316563   1.775   4.577   6.977  0.0472 -0.1947  0.0845
  150SAPE   H3R16564   1.698   4.497   6.982  0.2677 -0.5586 -1.8098
  150SAPE   H3S16565   1.729   4.658   6.916 -0.0030 -0.1167  0.2259
  150SAPE   C2416566   1.815   4.635   7.116  0.5763 -1.4881  0.3024
  150SAPE   H4R16567   1.733   4.699   7.155  2.5966  1.2378  0.4265
  150SAPE   H4S16568   1.905   4.697   7.096 -0.9891  1.2529  1.1922
  150SAPE   C2516569   1.845   4.520   7.215 -0.0367  0.0938  0.3367
  150SAPE   H5R16570   1.937   4.461   7.202 -1.4521 -2.6293  1.7304
  150SAPE   C2616571   1.780   4.485   7.331  0.9980 -0.8486 -0.3760
  150SAPE   H6R16572   1.811   4.397   7.389  0.6127 -0.2497  0.7719
  150SAPE   C2716573   1.660   4.564   7.386  0.3304  0.3248  0.3688
  150SAPE   H7R16574   1.576   4.493   7.401 -1.3494  2.2015  0.2028
  150SAPE   H7S16575   1.611   4.634   7.315 -1.1795 -0.4159  0.6434
  150SAPE   C2816576   1.699   4.630   7.516  1.3538 -0.2755  0.0627
  150SAPE   H8R16577   1.690   4.739   7.510 -1.0494 -0.4066 -0.0901
  150SAPE   C2916578   1.731   4.576   7.637  0.5572  0.2483  0.8781
  150SAPE   H9R16579   1.747   4.644   7.722 -1.5129  1.3839  0.4277
  150SAPE  C21016580   1.732   4.428   7.665  0.3560  0.0535  0.7999
  150SAPE  H10R16581   1.682   4.373   7.582 -0.1863  2.3848 -0.5137
  150SAPE  H10S16582   1.657   4.415   7.746 -0.0477 -0.8494  0.3052
  150SAPE  C21116583   1.863   4.371   7.700 -0.2755  0.1186 -0.3129
  150SAPE  H11R16584   1.938   4.374   7.620  0.2219 -0.1950  0.1429
  150SAPE  C21216585   1.889   4.295   7.809  0.0447 -0.1871  0.4723
  150SAPE  H12R16586   1.991   4.263   7.834  0.3633  0.9878  0.7359
  150SAPE  C21316587   1.794   4.251   7.918  0.6126  0.3092 -0.7117
  150SAPE  H13R16588   1.829   4.154   7.959  0.1911  1.0900  1.5880
  150SAPE  H13S16589   1.698   4.227   7.867 -0.0034 -3.5200  1.8443
  150SAPE  C21416590   1.773   4.359   8.024  0.2465  0.6347 -0.0547
  150SAPE  H14R16591   1.778   4.462   7.985  0.7185 -0.0625 -1.9610
  150SAPE  C21516592   1.776   4.340   8.156 -0.2778  0.3833 -0.1658
  150SAPE  H15R16593   1.770   4.425   8.226 -0.5095 -1.3272  2.0013
  150SAPE  C21616594   1.794   4.203   8.220  0.0445 -0.8538  0.5384
  150SAPE  H16R16595   1.826   4.205   8.326 -1.0046 -1.2020  0.8779
  150SAPE  H16S16596   1.878   4.148   8.171 -0.2506  0.1145 -1.1176
  150SAPE  C21716597   1.662   4.127   8.245  0.0096  0.0960 -0.2134
  150SAPE  H17R16598   1.612   4.104   8.148 -1.6008  0.6945  0.4335
  150SAPE  H17S16599   1.582   4.183   8.298 -0.0549 -0.0277 -0.1819
  150SAPE  C21816600   1.688   3.998   8.316 -0.3579 -0.1289  0.7437
  150SAPE  H18R16601   1.775   3.943   8.274  0.8480  0.5455  2.2758
  150SAPE  H18S16602   1.599   3.935   8.291  0.8766 -1.6828  0.1368
  150SAPE  C21916603   1.701   4.007   8.469 -0.2139 -0.2193 -0.2947
  150SAPE  H19R16604   1.616   4.068   8.508 -0.6054 -0.4018 -0.8494
  150SAPE  H19S16605   1.785   4.076   8.492  0.3670  0.2907 -3.5062
  150SAPE  C22016606   1.701   3.876   8.543  0.0616 -0.2784  0.0836
  150SAPE  H20R16607   1.735   3.886   8.648 -0.1402 -0.3942  0.1598
  150SAPE  H20S16608   1.785   3.816   8.500  3.6832  4.8012 -0.9698
  150SAPE  H20T16609   1.597   3.839   8.535 -0.8247  2.2316 -1.0184
  150SAPE   C3316610   2.334   4.390   6.903  0.5880 -0.3433  0.2036
  150SAPE   H3X16611   2.254   4.467   6.903  0.4807 -0.2870  3.6025
  150SAPE   H3Y16612   2.436   4.429   6.923  0.4461 -0.8985  2.2925
  150SAPE   C3416613   2.304   4.295   7.017 -0.5017 -0.0127  0.3214
  150SAPE   H4X16614   2.370   4.206   7.010  1.0142  1.1562 -0.6054
  150SAPE   H4Y16615   2.199   4.257   7.021 -2.1465  4.1041  1.1391
  150SAPE   C3516616   2.346   4.363   7.147 -0.4868  0.2456  0.1949
  150SAPE   H5X16617   2.282   4.450   7.171  3.4911  2.6995  2.8528
  150SAPE   H5Y16618   2.450   4.397   7.131 -0.3253 -0.2813  0.1078
  150SAPE   C3616619   2.341   4.262   7.264 -0.2094  0.1206 -0.5036
  150SAPE   H6X16620   2.428   4.194   7.275  0.4505  1.0980  0.6732
  150SAPE   H6Y16621   2.251   4.203   7.238  1.6258 -2.9471 -0.3593
  150SAPE   C3716622   2.324   4.336   7.398 -0.2668 -0.5620 -0.1023
  150SAPE   H7X16623   2.262   4.427   7.387  0.3685  0.2018  2.2708
  150SAPE   H7Y16624   2.422   4.379   7.423 -1.7353  1.6324  2.2710
  150SAPE   C3816625   2.285   4.252   7.519  0.4142 -0.4163 -0.4610
  150SAPE   H8X16626   2.351   4.169   7.551 -2.5823 -3.4876 -1.7017
  150SAPE   H8Y16627   2.190   4.195   7.508  0.2960 -0.2284 -0.4264
  150SAPE   C3916628   2.265   4.343   7.645  0.4257 -0.1766  0.3798
  150SAPE   H9X16629   2.207   4.284   7.719 -0.0102  1.1209  1.1180
  150SAPE   H9Y16630   2.196   4.426   7.619 -0.7609 -0.7290  1.6452
  150SAPE  C31016631   2.387   4.412   7.715 -0.5715 -0.2197  0.6168
  150SAPE  H10X16632   2.456   4.468   7.648 -1.3518 -0.4703 -0.4385
  150SAPE  H10Y16633   2.438   4.326   7.763 -0.6138  1.0048  2.9937
  150SAPE  C31116634   2.360   4.514   7.822 -0.7891  0.5764  0.0683
  150SAPE  H11X16635   2.304   4.471   7.908 -2.7509  0.6909 -1.0963
  150SAPE  H11Y16636   2.292   4.594   7.783  0.5211  2.5508  1.6124
  150SAPE  C31216637   2.475   4.604   7.866 -0.1690 -0.1255  0.3891
  150SAPE  H12X16638   2.440   4.700   7.910  1.7985  1.1009 -0.5842
  150SAPE  H12Y16639   2.528   4.638   7.774 -0.6212  2.8596  1.1252
  150SAPE  C31316640   2.570   4.521   7.943  0.2507  1.1058  0.4740
  150SAPE  H13X16641   2.649   4.488   7.872 -0.7752 -2.9087  0.9501
  150SAPE  H13Y16642   2.530   4.426   7.983 -2.0446  2.0404  0.5524
  150SAPE  C31416643   2.631   4.594   8.058  0.0772  0.1688 -0.0884
  150SAPE  H14X16644   2.557   4.622   8.136  0.6107  2.0881 -0.2032
  150SAPE  H14Y16645   2.668   4.690   8.015  0.7416 -0.1915 -0.3441
  150SAPE  C31516646   2.749   4.521   8.125 -0.1928 -0.4804  0.0240
  150SAPE  H15X16647   2.809   4.472   8.045  0.1749 -0.2163  0.1375
  150SAPE  H15Y16648   2.706   4.439   8.186  0.4617 -1.4658 -0.7942
  150SAPE  C31616649   2.841   4.617   8.206  0.0267 -0.3916  0.5428
  150SAPE  H16X16650   2.784   4.672   8.283  1.7690 -0.8778  2.2627
  150SAPE  H16Y16651   2.892   4.688   8.137  1.2784 -0.3391  1.5006
  150SAPE  C31716652   2.950   4.542   8.267 -0.0483 -0.2046 -0.8674
  150SAPE  H17X16653   3.025   4.507   8.192  0.7545 -0.5145  0.0512
  150SAPE  H17Y16654   2.910   4.450   8.315 -1.2231  0.4706 -0.5161
  150SAPE  C31816655   3.039   4.621   8.365 -0.4334 -0.5741 -0.4320
  150SAPE  H18X16656   3.087   4.711   8.322 -1.0845 -1.2766 -2.7737
  150SAPE  H18Y16657   3.114   4.550   8.408 -1.3065 -1.3652 -0.1842
  150SAPE  H18Z16658   2.987   4.655   8.457 -1.2401  1.1420 -1.4878
  151SAPE     N16659   5.381   0.414   6.094  1.0391 -0.0454 -0.1717
  151SAPE   HN116660   5.427   0.353   6.023 -0.1151  0.0321 -1.0244
  151SAPE   HN216661   5.452   0.462   6.153  1.7373 -0.0317 -1.0044
  151SAPE   HN316662   5.323   0.353   6.154  2.3865 -1.4008 -0.1800
  151SAPE   C1216663   5.291   0.525   6.046 -0.0554  0.4721  0.1765
  151SAPE  H12A16664   5.212   0.468   5.992  1.0345 -0.5481 -0.3734
  151SAPE  H12B16665   5.349   0.589   5.976 -1.6898  1.0689 -0.6963
  151SAPE   C1116666   5.239   0.621   6.150 -0.3494 -0.4992 -0.6094
  151SAPE  H11A16667   5.173   0.569   6.222 -0.2895  0.6564  0.3264
  151SAPE  H11B16668   5.176   0.699   6.102 -2.1046 -1.2788  0.3307
  151SAPE     P16669   5.315   0.742   6.368  0.3507  0.2249  0.0889
  151SAPE   O1316670   5.195   0.824   6.360  0.1369  0.4956  0.2238
  151SAPE   O1416671   5.308   0.624   6.455  0.5723 -0.3270  0.0344
  151SAPE   O1216672   5.353   0.686   6.222  0.2171  0.6257  0.7794
  151SAPE   O1116673   5.436   0.826   6.409  0.1312 -0.4902  0.7013
  151SAPE    C116674   5.565   0.760   6.433 -0.8970 -0.4749  0.4637
  151SAPE    HA16675   5.557   0.662   6.380 -2.0597  1.4052 -3.2753
  151SAPE    HB16676   5.653   0.812   6.391 -1.7594 -0.3836 -1.3468
  151SAPE    C216677   5.588   0.744   6.581  0.0532 -0.3683  0.4192
  151SAPE    HS16678   5.485   0.739   6.622  0.2644 -1.1842  0.8782
  151SAPE   O2116679   5.661   0.861   6.615  0.5374 -0.3981 -0.0556
  151SAPE   C2116680   5.625   0.935   6.716 -0.4516  0.2212 -0.0670
  151SAPE   O2216681   5.538   0.911   6.797 -0.6354 -0.5873 -0.4780
  151SAPE   C2216682   5.713   1.062   6.725  0.9500 -0.2140  0.4685
  151SAPE   H2R16683   5.815   1.026   6.697 -0.6499 -3.4712 -1.7258
  151SAPE   H2S16684   5.658   1.116   6.645 -1.8965 -2.5089  0.7310
  151SAPE    C316685   5.664   0.622   6.617 -0.8476 -0.2992 -0.6556
  151SAPE    HX16686   5.765   0.625   6.572 -0.1315 -3.2495  0.5598
  151SAPE    HY16687   5.630   0.524   6.577  0.4844 -1.3740  0.7762
  151SAPE   O3116688   5.669   0.618   6.761 -0.2275  0.1134 -0.1989
  151SAPE   C3116689   5.564   0.560   6.812 -0.0942 -0.2331 -0.4415
  151SAPE   O3216690   5.474   0.507   6.752  0.1510  0.5502  0.0994
  151SAPE   C3216691   5.586   0.545   6.970 -0.0349  0.2719 -0.0699
  151SAPE   H2X16692   5.645   0.633   7.002 -1.5840  1.6755 -0.9294
  151SAPE   H2Y16693   5.638   0.450   6.995  0.2322  0.7999  1.5085
  151SAPE   C2316694   5.701   1.131   6.862 -0.1078  0.2672  0.7308
  151SAPE   H3R16695   5.601   1.137   6.910 -0.3897 -2.7740  0.7250
  151SAPE   H3S16696   5.732   1.233   6.830  1.3886 -0.6359 -0.8716
  151SAPE   C2416697   5.788   1.083   6.977  0.1844 -0.4197 -0.0903
  151SAPE   H4R16698   5.776   1.153   7.063 -0.1602 -2.1706  1.3457
  151SAPE   H4S16699   5.894   1.103   6.951 -0.1014  1.7438  0.2572
  151SAPE   C2516700   5.763   0.944   7.017 -0.0119 -0.8942  0.2591
  151SAPE   H5R16701   5.794   0.860   6.953 -0.1213 -0.7470  0.0114
  151SAPE   C2616702   5.682   0.925   7.130  0.2557 -0.7268  0.2361
  151SAPE   H6R16703   5.664   0.821   7.162  0.3145 -1.0156 -0.6396
  151SAPE   C2716704   5.619   1.027   7.219  0.0446  0.1675 -0.4556
  151SAPE   H7R16705   5.599   1.117   7.157 -0.0102 -1.2568 -2.6218
  151SAPE   H7S16706   5.712   1.054   7.274 -0.2421  0.7564 -0.2574
  151SAPE   C2816707   5.489   0.986   7.291  0.2591 -0.5774  0.2855
  151SAPE   H8R16708   5.395   0.981   7.233  0.2710  0.5468  0.1624
  151SAPE   C2916709   5.481   0.965   7.422 -0.4202 -1.3689 -0.4428
  151SAPE   H9R16710   5.394   0.912   7.463 -0.0746 -0.3322  1.7418
  151SAPE  C21016711   5.587   0.990   7.531  0.1956  0.2058 -0.1206
  151SAPE  H10R16712   5.683   1.024   7.486 -0.3843  0.8026 -0.9461
  151SAPE  H10S16713   5.606   0.892   7.580 -1.1980  0.3759  0.8313
  151SAPE  C21116714   5.534   1.078   7.648 -0.0763 -0.0567 -0.0532
  151SAPE  H11R16715   5.479   1.169   7.621  0.3456  1.4195  3.5154
  151SAPE  C21216716   5.544   1.056   7.779  0.2013  0.2976 -1.6330
  151SAPE  H12R16717   5.482   1.111   7.851  0.4795 -0.9414 -0.4065
  151SAPE  C21316718   5.619   0.947   7.862  0.7481 -0.8056  0.0987
  151SAPE  H13R16719   5.636   0.855   7.802  1.2462 -1.2641  0.9223
  151SAPE  H13S16720   5.559   0.913   7.949  1.0729 -0.7884  0.3305
  151SAPE  C21416721   5.748   0.996   7.914 -0.3515  0.6608  0.3126
  151SAPE  H14R16722   5.839   0.956   7.867 -2.7051 -1.0890 -3.0752
  151SAPE  C21516723   5.772   1.084   8.007 -0.9048  0.2582  0.1398
  151SAPE  H15R16724   5.879   1.104   8.027 -1.3860  0.8192  2.4081
  151SAPE  C21616725   5.674   1.161   8.093 -0.0854 -0.1450  0.5529
  151SAPE  H16R16726   5.579   1.177   8.037  0.3519  0.2588 -0.0826
  151SAPE  H16S16727   5.724   1.256   8.123  3.6199 -2.0250  0.8382
  151SAPE  C21716728   5.630   1.095   8.224  0.3178 -0.6536 -0.4391
  151SAPE  H17R16729   5.585   0.996   8.199 -1.3775 -0.2313  0.8293
  151SAPE  H17S16730   5.553   1.158   8.272  0.7135 -0.2813 -0.2808
  151SAPE  C21816731   5.747   1.077   8.323 -0.3083  0.3550  0.8371
  151SAPE  H18R16732   5.765   1.182   8.354 -2.3090  0.8189  0.5666
  151SAPE  H18S16733   5.831   1.026   8.271 -2.2007 -0.9140 -1.1494
  151SAPE  C21916734   5.726   0.999   8.457  0.0645  0.4473 -0.0956
  151SAPE  H19R16735   5.637   1.042   8.509 -0.7519 -0.0572 -1.0260
  151SAPE  H19S16736   5.822   1.014   8.511  0.9007 -0.5078 -1.2754
  151SAPE  C22016737   5.696   0.846   8.441  0.3602 -0.5085  0.9755
  151SAPE  H20R16738   5.769   0.804   8.369  0.1529 -0.8163  0.9469
  151SAPE  H20S16739   5.707   0.802   8.542 -1.5195  0.6128  1.7197
  151SAPE  H20T16740   5.595   0.820   8.402 -0.4888  0.0395  2.7025
  151SAPE   C3316741   5.452   0.531   7.045  0.4560  0.4555 -0.3864
  151SAPE   H3X16742   5.374   0.474   6.991 -1.8518  1.6245  1.5301
  151SAPE   H3Y16743   5.407   0.633   7.050  0.2716  0.3932 -0.7804
  151SAPE   C3416744   5.457   0.465   7.188  0.2466 -1.0774  0.2687
  151SAPE   H4X16745   5.493   0.360   7.193 -0.7847 -1.5223 -1.0663
  151SAPE   H4Y16746   5.353   0.433   7.211  0.1849 -0.9286  0.2030
  151SAPE   C3516747   5.506   0.568   7.300  0.3942 -0.6303  1.0582
  151SAPE   H5X16748   5.439   0.655   7.315  1.1666  0.2570 -0.4761
  151SAPE   H5Y16749   5.596   0.617   7.258  0.0648 -0.8841  0.0150
  151SAPE   C3616750   5.521   0.499   7.435 -0.0438  0.5148 -0.0227
  151SAPE   H6X16751   5.590   0.412   7.423  0.5281  1.0938 -1.0800
  151SAPE   H6Y16752   5.425   0.454   7.468  0.0302 -1.0260 -1.7393
  151SAPE   C3716753   5.570   0.593   7.546 -0.3137 -0.0329  0.3504
  151SAPE   H7X16754   5.503   0.681   7.546  1.2618  1.2174 -0.1057
  151SAPE   H7Y16755   5.670   0.626   7.511 -1.1258 -0.4499 -2.6542
  151SAPE   C3816756   5.570   0.516   7.677  0.3712 -0.0005 -0.2384
  151SAPE   H8X16757   5.470   0.474   7.702 -0.6456  2.8299  0.9162
  151SAPE   H8Y16758   5.590   0.596   7.751 -2.2454  0.7140 -0.1907
  151SAPE   C3916759   5.684   0.415   7.695 -0.2478 -0.2014  0.2183
  151SAPE   H9X16760   5.774   0.464   7.652  1.0607 -3.2870 -0.8198
  151SAPE   H9Y16761   5.666   0.318   7.645  1.8051 -0.6301  0.2348
  151SAPE  C31016762   5.718   0.378   7.843 -0.1219 -0.0650 -0.3233
  151SAPE  H10X16763   5.716   0.477   7.895 -1.7570  0.2535 -0.9073
  151SAPE  H10Y16764   5.818   0.334   7.863  0.5923  1.9053  0.7413
  151SAPE  C31116765   5.597   0.297   7.911 -0.1550  0.5290  0.2387
  151SAPE  H11X16766   5.604   0.193   7.873  0.4881  1.2062 -1.6033
  151SAPE  H11Y16767   5.495   0.338   7.897 -0.3527 -0.2573 -0.6977
  151SAPE  C31216768   5.610   0.291   8.067 -0.3202  0.2555 -0.5456
  151SAPE  H12X16769   5.521   0.245   8.115  0.8189  0.3723  1.8517
  151SAPE  H12Y16770   5.621   0.394   8.108  0.3301 -0.5288  1.3937
  151SAPE  C31316771   5.722   0.196   8.126 -0.0494  0.0168  0.7669
  151SAPE  H13X16772   5.815   0.227   8.075 -1.4848  0.9537 -1.4424
  151SAPE  H13Y16773   5.705   0.090   8.096  0.1584 -0.1139  1.0975
  151SAPE  C31416774   5.733   0.203   8.280 -0.2489 -0.0414  0.8424
  151SAPE  H14X16775   5.794   0.117   8.315  1.1393  0.3155 -0.6162
  151SAPE  H14Y16776   5.630   0.200   8.323 -0.1982  3.6283  1.5023
  151SAPE  C31516777   5.796   0.327   8.324 -0.4562 -0.1348  0.0912
  151SAPE  H15X16778   5.789   0.409   8.249  1.5923 -0.6643 -0.7582
  151SAPE  H15Y16779   5.907   0.320   8.330 -0.2280  0.3993 -2.4678
  151SAPE  C31616780   5.753   0.381   8.457  0.0300  0.1038  0.2268
  151SAPE  H16X16781   5.814   0.470   8.484  1.5686 -0.8240 -0.1062
  151SAPE  H16Y16782   5.770   0.303   8.534  1.2287 -0.4702 -0.5911
  151SAPE  C31716783   5.605   0.422   8.460  0.1522  0.2100 -0.0752
  151SAPE  H17X16784   5.539   0.332   8.457  0.9114 -0.4796 -4.9198
  151SAPE  H17Y16785   5.589   0.489   8.372 -0.4460 -0.2822 -0.3524
  151SAPE  C31816786   5.576   0.512   8.581  0.1968  0.0368  0.7583
  151SAPE  H18X16787   5.622   0.476   8.675 -1.4764 -2.0671  0.8572
  151SAPE  H18Y16788   5.467   0.518   8.601 -0.0394 -1.4978  0.0656
  151SAPE  H18Z16789   5.621   0.614   8.578 -1.0654  0.6053 -0.4808
  152SAPE     N16790   0.957   6.232   6.129  0.4979 -0.1107 -0.4941
  152SAPE   HN116791   0.880   6.287   6.172  0.8591  0.2820 -0.3388
  152SAPE   HN216792   0.917   6.153   6.075  2.6630 -1.4711 -0.2381
  152SAPE   HN316793   0.999   6.188   6.213 -2.5993 -0.5953  0.9047
  152SAPE   C1216794   1.057   6.312   6.052 -0.5366 -0.2247 -0.1411
  152SAPE  H12A16795   1.016   6.315   5.949 -0.1693  1.2054 -0.2689
  152SAPE  H12B16796   1.151   6.253   6.049  1.1195  2.3521 -2.4036
  152SAPE   C1116797   1.081   6.447   6.119  0.5049 -0.8474 -0.3213
  152SAPE  H11A16798   0.990   6.509   6.105  0.5531 -0.0323  2.3502
  152SAPE  H11B16799   1.164   6.495   6.064  0.6963 -1.6558 -0.7422
  152SAPE     P16800   1.084   6.548   6.363 -0.5187  0.3563  0.0610
  152SAPE   O1316801   1.199   6.638   6.378  0.4902  0.1965  0.1123
  152SAPE   O1416802   0.957   6.607   6.319 -0.4423 -0.1877  0.0021
  152SAPE   O1216803   1.125   6.440   6.257  0.5835  0.4551 -0.1256
  152SAPE   O1116804   1.071   6.463   6.498 -0.6949 -0.0473  0.4915
  152SAPE    C116805   0.957   6.380   6.523  0.2373 -0.8403  0.1388
  152SAPE    HA16806   0.907   6.348   6.429 -2.5361 -0.5212  1.4153
  152SAPE    HB16807   1.001   6.289   6.570  2.0379 -0.0816  0.0278
  152SAPE    C216808   0.862   6.458   6.612  0.0780  0.3688 -0.1752
  152SAPE    HS16809   0.843   6.559   6.568  1.7761  2.8628  4.1704
  152SAPE   O2116810   0.933   6.473   6.734 -0.0492 -0.6499 -0.6393
  152SAPE   C2116811   0.893   6.572   6.819 -1.5769  0.0452 -0.3114
  152SAPE   O2216812   0.798   6.640   6.805 -0.2760 -0.7260  0.2042
  152SAPE   C2216813   0.990   6.594   6.935  0.2958 -0.3293 -0.4725
  152SAPE   H2R16814   1.078   6.527   6.934  1.8293  1.4737  2.0729
  152SAPE   H2S16815   1.035   6.694   6.915  1.0575 -0.6441 -0.3578
  152SAPE    C316816   0.722   6.383   6.637  0.1203 -0.4572 -0.3991
  152SAPE    HX16817   0.679   6.369   6.535  1.7636 -0.1957 -1.1733
  152SAPE    HY16818   0.664   6.459   6.693 -2.4085 -0.7488 -2.4224
  152SAPE   O3116819   0.733   6.263   6.717  0.3060 -0.0049  0.0104
  152SAPE   C3116820   0.750   6.144   6.649 -0.2962 -0.4848 -0.0447
  152SAPE   O3216821   0.749   6.137   6.529 -0.3391 -0.2865 -0.1238
  152SAPE   C3216822   0.750   6.020   6.731  0.4723  0.2019  0.3389
  152SAPE   H2X16823   0.853   5.979   6.725  1.6073  2.7978  0.6433
  152SAPE   H2Y16824   0.678   5.949   6.686  0.5579  0.3741 -0.0662
  152SAPE   C2316825   0.928   6.583   7.072  0.6372  0.3725 -0.0224
  152SAPE   H3R16826   0.841   6.651   7.088  0.2943  0.1471 -0.8604
  152SAPE   H3S16827   1.002   6.608   7.151 -1.3439  0.5818  1.8936
  152SAPE   C2416828   0.870   6.441   7.103  0.4854 -0.3715  0.2606
  152SAPE   H4R16829   0.889   6.427   7.211  1.5115  1.7031  0.4145
  152SAPE   H4S16830   0.930   6.370   7.042  1.5563  2.4057 -2.2084
  152SAPE   C2516831   0.726   6.435   7.074  0.8886 -1.1498 -0.1332
  152SAPE   H5R16832   0.688   6.439   6.971 -1.3869  2.8850  0.6722
  152SAPE   C2616833   0.631   6.434   7.170 -0.4883 -0.1403  0.1613
  152SAPE   H6R16834   0.527   6.427   7.135 -0.6501  0.6414  0.4801
  152SAPE   C2716835   0.662   6.431   7.320  0.0080  0.5613  0.0242
  152SAPE   H7R16836   0.741   6.508   7.326 -1.1740  2.3136 -3.7518
  152SAPE   H7S16837   0.701   6.330   7.345 -0.4886 -0.1169 -1.7801
  152SAPE   C2816838   0.548   6.471   7.407 -0.4431  0.0507 -0.3341
  152SAPE   H8R16839   0.449   6.447   7.367  0.6759 -0.4943 -3.0280
  152SAPE   C2916840   0.544   6.525   7.537 -0.1383 -0.5271  0.6849
  152SAPE   H9R16841   0.450   6.553   7.587 -0.6610 -2.7858  1.1088
  152SAPE  C21016842   0.674   6.553   7.607 -0.6187  0.4825 -0.7317
  152SAPE  H10R16843   0.665   6.655   7.650  1.2558  1.2186 -1.9529
  152SAPE  H10S16844   0.757   6.554   7.533 -1.5799 -1.4092 -1.9080
  152SAPE  C21116845   0.708   6.449   7.717  0.5072  0.1184  0.1912
  152SAPE  H11R16846   0.711   6.345   7.682 -2.8009  0.0938 -0.2916
  152SAPE  C21216847   0.739   6.476   7.840  0.6786 -0.7351 -1.0660
  152SAPE  H12R16848   0.767   6.387   7.898  1.1958  0.6124  0.8412
  152SAPE  C21316849   0.746   6.604   7.927 -0.1165  0.4146  0.0439
  152SAPE  H13R16850   0.649   6.650   7.958  0.9398  1.9818  1.2181
  152SAPE  H13S16851   0.794   6.677   7.858  0.6887 -0.6405 -0.5259
  152SAPE  C21416852   0.838   6.602   8.044 -0.1342 -0.4404 -0.2635
  152SAPE  H14R16853   0.925   6.665   8.022 -0.3947 -0.2092 -0.6327
  152SAPE  C21516854   0.819   6.551   8.165  0.1257 -0.2959  0.3010
  152SAPE  H15R16855   0.886   6.588   8.243 -1.0167  1.1519  0.6352
  152SAPE  C21616856   0.692   6.469   8.191  0.1044 -0.3417  0.3383
  152SAPE  H16R16857   0.655   6.402   8.110  1.6140 -0.7409 -0.0560
  152SAPE  H16S16858   0.608   6.537   8.215 -0.6598 -1.5385  1.1511
  152SAPE  C21716859   0.708   6.386   8.326 -0.2976  0.0389 -0.3756
  152SAPE  H17R16860   0.804   6.332   8.316 -0.3686 -0.0329 -0.6834
  152SAPE  H17S16861   0.634   6.305   8.344  0.3771 -1.2077 -2.8147
  152SAPE  C21816862   0.729   6.477   8.455 -0.8592  0.2740  0.2171
  152SAPE  H18R16863   0.669   6.570   8.457 -1.7459 -0.2419  4.1566
  152SAPE  H18S16864   0.830   6.523   8.447 -0.5204  0.2498  3.3135
  152SAPE  C21916865   0.715   6.422   8.602 -0.3789  0.0164  0.3131
  152SAPE  H19R16866   0.781   6.336   8.623  0.7826  1.2711  1.9892
  152SAPE  H19S16867   0.611   6.384   8.616 -1.7265  3.1507 -0.3737
  152SAPE  C22016868   0.745   6.523   8.712  0.5560  0.5928  0.3024
  152SAPE  H20R16869   0.693   6.617   8.686  2.7642  1.3365 -1.8313
  152SAPE  H20S16870   0.853   6.543   8.726  0.5762  1.6784 -1.1996
  152SAPE  H20T16871   0.714   6.483   8.811 -1.2096 -3.0514 -1.5080
  152SAPE   C3316872   0.733   6.044   6.889 -0.7524 -0.2799  0.1992
  152SAPE   H3X16873   0.710   5.942   6.925  2.0880 -1.7074 -1.6187
  152SAPE   H3Y16874   0.654   6.122   6.893 -0.1466  0.4718 -1.4853
  152SAPE   C3416875   0.856   6.077   6.976  0.5178 -0.2135  0.7147
  152SAPE   H4X16876   0.880   6.183   6.957  1.5403  0.0544  3.1464
  152SAPE   H4Y16877   0.948   6.024   6.944  1.6951  1.2184  1.5817
  152SAPE   C3516878   0.831   6.038   7.123  0.2131 -0.9085  0.3797
  152SAPE   H5X16879   0.790   5.934   7.124 -0.0748 -0.8004 -0.0488
  152SAPE   H5Y16880   0.747   6.100   7.162 -1.6277 -2.9771 -0.0561
  152SAPE   C3616881   0.946   6.053   7.212  0.3006  0.1758  0.1334
  152SAPE   H6X16882   0.991   6.152   7.189 -1.4022  1.6684  2.8001
  152SAPE   H6Y16883   1.026   5.979   7.191 -0.7833 -0.4191 -2.2223
  152SAPE   C3716884   0.920   6.052   7.360 -0.0868 -0.1715 -0.7341
  152SAPE   H7X16885   0.894   5.956   7.408  3.2455 -1.3297 -0.9697
  152SAPE   H7Y16886   0.840   6.128   7.375  0.3189  0.2866 -0.8729
  152SAPE   C3816887   1.043   6.090   7.442  0.7330 -0.0338 -0.2573
  152SAPE   H8X16888   1.074   6.195   7.421  1.0657 -0.0688  0.0541
  152SAPE   H8Y16889   1.131   6.026   7.422 -0.6830 -2.1434 -0.0571
  152SAPE   C3916890   1.006   6.078   7.595 -0.7625 -0.2888  0.2455
  152SAPE   H9X16891   0.998   5.973   7.631  1.4716 -0.8387 -0.6837
  152SAPE   H9Y16892   0.907   6.117   7.625 -0.6476 -1.5984  2.5622
  152SAPE  C31016893   1.109   6.142   7.680 -0.4438  0.7140 -0.2373
  152SAPE  H10X16894   1.125   6.246   7.647 -0.4348  0.5499 -0.7552
  152SAPE  H10Y16895   1.206   6.089   7.677 -0.9092 -0.2114  0.4603
  152SAPE  C31116896   1.074   6.155   7.833  0.6869 -0.3549  0.6931
  152SAPE  H11X16897   0.975   6.204   7.842  2.2382  2.8525  2.1324
  152SAPE  H11Y16898   1.141   6.226   7.885  1.8653 -2.1825  1.8007
  152SAPE  C31216899   1.071   6.018   7.906  0.0912  0.6718 -0.0905
  152SAPE  H12X16900   1.176   5.980   7.907  0.5733  1.9161  1.3163
  152SAPE  H12Y16901   1.002   5.949   7.853 -0.7471  1.7044 -0.3760
  152SAPE  C31316902   1.028   6.040   8.054 -0.7548  0.2415 -0.0818
  152SAPE  H13X16903   0.925   6.083   8.053 -0.6178  0.6555 -2.5491
  152SAPE  H13Y16904   1.097   6.117   8.094  1.9431 -0.6156 -2.6581
  152SAPE  C31416905   1.018   5.923   8.151 -0.6449  0.2455  0.7291
  152SAPE  H14X16906   1.120   5.880   8.161  0.7388  2.5451 -2.1155
  152SAPE  H14Y16907   0.957   5.849   8.094  2.0312 -0.4015 -1.5193
  152SAPE  C31516908   0.982   5.949   8.299 -0.9619 -0.3387  0.0580
  152SAPE  H15X16909   0.981   5.848   8.344 -0.6727 -0.5107 -0.3211
  152SAPE  H15Y16910   0.888   6.008   8.307  0.4129  1.9281  0.7233
  152SAPE  C31616911   1.087   6.022   8.374  0.6752 -0.0394  0.2990
  152SAPE  H16X16912   1.185   6.025   8.321  2.0663  0.7302  2.7566
  152SAPE  H16Y16913   1.112   5.972   8.470 -0.5816 -0.4844  0.4125
  152SAPE  C31716914   1.031   6.157   8.400  0.0623 -0.0656  0.8443
  152SAPE  H17X16915   0.943   6.145   8.467  0.3397 -2.5243  0.8905
  152SAPE  H17Y16916   1.004   6.213   8.309 -0.1896 -3.0154 -1.0339
  152SAPE  C31816917   1.142   6.246   8.467  0.5704 -0.4641 -0.4896
  152SAPE  H18X16918   1.104   6.350   8.469  0.4229 -0.5289  0.5033
  152SAPE  H18Y16919   1.228   6.256   8.398  1.0797  1.7088  0.3880
  152SAPE  H18Z16920   1.165   6.215   8.571  2.2699  2.3213  0.0733
  153SAPE     N16921   4.247   5.748   6.551  0.0311 -0.2425 -0.0356
  153SAPE   HN116922   4.259   5.780   6.649 -1.6350  1.1289 -0.2476
  153SAPE   HN216923   4.228   5.837   6.501 -0.0222 -0.1691  0.1147
  153SAPE   HN316924   4.169   5.679   6.552 -0.9627  0.8338 -0.7773
  153SAPE   C1216925   4.374   5.676   6.515  0.6149 -0.5545  0.2397
  153SAPE  H12A16926   4.348   5.627   6.418 -0.0726  1.7004 -0.7807
  153SAPE  H12B16927   4.388   5.596   6.591  1.8224  0.5313  1.2007
  153SAPE   C1116928   4.494   5.769   6.506  0.3663  0.3074  0.7898
  153SAPE  H11A16929   4.579   5.703   6.479 -0.6977 -1.6671  1.9520
  153SAPE  H11B16930   4.514   5.814   6.606 -0.0395  1.1637  0.4921
  153SAPE     P16931   4.419   6.005   6.422  0.5698 -0.2423 -0.0397
  153SAPE   O1316932   4.479   6.091   6.315 -0.4894  0.1887  0.2347
  153SAPE   O1416933   4.272   5.991   6.421 -0.2575  0.0400  0.0796
  153SAPE   O1216934   4.479   5.862   6.401 -0.5372  0.3923  0.2330
  153SAPE   O1116935   4.482   6.053   6.563 -0.1286  0.5658  0.0678
  153SAPE    C116936   4.626   6.076   6.568  0.4459  0.4996  0.3182
  153SAPE    HA16937   4.678   5.996   6.510 -2.6299 -1.0460 -0.5333
  153SAPE    HB16938   4.659   6.170   6.519  0.9412  1.1392  1.8265
  153SAPE    C216939   4.675   6.072   6.719  0.2404 -0.0246 -0.2454
  153SAPE    HS16940   4.767   6.131   6.733 -0.3702  0.5661  1.5501
  153SAPE   O2116941   4.695   5.938   6.765  0.6111 -0.1301  0.4729
  153SAPE   C2116942   4.804   5.883   6.718  0.4169 -0.8576  0.1409
  153SAPE   O2216943   4.893   5.939   6.654  0.1847  0.1102 -0.1240
  153SAPE   C2216944   4.807   5.742   6.770  0.4302 -1.0131 -0.4830
  153SAPE   H2R16945   4.723   5.731   6.842  0.9271 -0.7417  0.1564
  153SAPE   H2S16946   4.787   5.674   6.685  1.4735 -0.6343 -1.0538
  153SAPE    C316947   4.571   6.140   6.808 -0.0479  0.7857 -0.4980
  153SAPE    HX16948   4.470   6.095   6.818  1.6517 -3.5734 -0.5666
  153SAPE    HY16949   4.546   6.232   6.752  0.7312  2.2730  1.4743
  153SAPE   O3116950   4.630   6.171   6.940 -0.1815 -0.1828 -0.2445
  153SAPE   C3116951   4.608   6.078   7.031  0.2080  0.3622  0.2777
  153SAPE   O3216952   4.542   5.974   7.012 -0.7670 -0.0230  0.7338
  153SAPE   C3216953   4.678   6.122   7.161  0.4200 -0.0845  0.4953
  153SAPE   H2X16954   4.601   6.176   7.220  1.8496  0.1151  2.2747
  153SAPE   H2Y16955   4.759   6.193   7.137 -1.0578  1.3891 -0.3594
  153SAPE   C2316956   4.938   5.715   6.844 -0.3118  0.0678 -0.0306
  153SAPE   H3R16957   4.954   5.793   6.921 -0.5945  0.3298 -0.2380
  153SAPE   H3S16958   5.019   5.722   6.767 -1.8954  1.7441 -1.6379
  153SAPE   C2416959   4.923   5.569   6.903 -0.1388  0.1595 -0.2791
  153SAPE   H4R16960   5.021   5.543   6.948  0.5702 -2.0125 -2.8859
  153SAPE   H4S16961   4.906   5.501   6.818  2.4978 -1.2799  0.2311
  153SAPE   C2516962   4.813   5.546   7.018 -0.3580  0.2206  1.0832
  153SAPE   H5R16963   4.710   5.522   6.987  0.5749 -1.0100 -1.2943
  153SAPE   C2616964   4.830   5.578   7.145  0.0663 -0.3687  0.3335
  153SAPE   H6R16965   4.746   5.564   7.215  0.0449  2.5106  1.0305
  153SAPE   C2716966   4.956   5.642   7.207  0.6422 -0.8540 -0.2373
  153SAPE   H7R16967   4.932   5.726   7.275  1.2847  1.1065 -2.2922
  153SAPE   H7S16968   5.019   5.684   7.126  1.7086 -1.6666  0.1466
  153SAPE   C2816969   5.031   5.552   7.299 -0.2783  0.4845  0.1395
  153SAPE   H8R16970   5.006   5.446   7.281 -2.2060  0.8902  0.2368
  153SAPE   C2916971   5.118   5.591   7.397  0.6565  0.4081 -0.3757
  153SAPE   H9R16972   5.190   5.522   7.443  0.7454  0.9124  0.2614
  153SAPE  C21016973   5.149   5.733   7.429  0.4584  0.4056 -0.1004
  153SAPE  H10R16974   5.141   5.791   7.334 -1.8381  0.1697 -0.1041
  153SAPE  H10S16975   5.256   5.747   7.457 -0.0743 -0.7942  2.8613
  153SAPE  C21116976   5.063   5.777   7.548  0.0409 -0.3516 -0.5753
  153SAPE  H11R16977   4.959   5.802   7.526  0.4296  1.6458 -0.3204
  153SAPE  C21216978   5.104   5.793   7.675 -0.2942 -0.0992  0.0157
  153SAPE  H12R16979   5.046   5.844   7.754 -0.5988  2.3780 -1.6844
  153SAPE  C21316980   5.244   5.766   7.729  0.2236  0.2823  0.3709
  153SAPE  H13R16981   5.281   5.677   7.674 -2.8970 -2.0340  1.7135
  153SAPE  H13S16982   5.228   5.715   7.827  2.6268 -0.6343  0.3537
  153SAPE  C21416983   5.328   5.889   7.732 -0.6076 -0.7708  0.2259
  153SAPE  H14R16984   5.327   5.947   7.638 -1.1012  0.1129  0.7652
  153SAPE  C21516985   5.401   5.928   7.839  0.0436 -0.2469  1.7200
  153SAPE  H15R16986   5.459   6.019   7.820 -0.8996 -0.0828 -0.8960
  153SAPE  C21616987   5.407   5.855   7.972 -1.1246 -0.1855  0.1154
  153SAPE  H16R16988   5.507   5.810   7.984 -1.2894 -0.5921 -0.0285
  153SAPE  H16S16989   5.338   5.769   7.980 -1.0676 -0.0676  2.3159
  153SAPE  C21716990   5.386   5.941   8.095  0.7243 -1.0493 -0.3944
  153SAPE  H17R16991   5.285   5.984   8.080  1.5171  1.3323  0.5669
  153SAPE  H17S16992   5.464   6.021   8.094 -1.5709  1.5841  3.4249
  153SAPE  C21816993   5.388   5.848   8.222  0.0030  0.1392  0.6806
  153SAPE  H18R16994   5.308   5.772   8.209  1.8190 -1.8295  0.3599
  153SAPE  H18S16995   5.362   5.913   8.309  1.3627  0.0811  1.1609
  153SAPE  C21916996   5.518   5.768   8.248 -0.7811  0.3861 -0.4410
  153SAPE  H19R16997   5.599   5.843   8.237  0.2293 -0.7602 -1.0482
  153SAPE  H19S16998   5.535   5.691   8.169 -0.0489  0.8691 -0.7694
  153SAPE  C22016999   5.522   5.706   8.381  0.0388  0.5538 -0.2391
  153SAPE  H20R17000   5.443   5.628   8.394  1.3452 -0.2947  4.9211
  153SAPE  H20S17001   5.517   5.777   8.466 -0.8866  1.1664 -0.7881
  153SAPE  H20T17002   5.613   5.643   8.393  0.4362  1.0867 -0.4425
  153SAPE   C3317003   4.725   6.001   7.247  0.2587  0.1592 -0.7966
  153SAPE   H3X17004   4.757   5.916   7.183 -2.7097 -2.0281  0.3547
  153SAPE   H3Y17005   4.643   5.965   7.314  1.2353  1.6102  1.2703
  153SAPE   C3417006   4.847   6.049   7.331  0.0621  0.1827  0.4676
  153SAPE   H4X17007   4.913   6.107   7.263 -2.7903  0.3512 -2.4381
  153SAPE   H4Y17008   4.904   5.963   7.373  1.0363  0.2908 -0.5740
  153SAPE   C3517009   4.800   6.139   7.450  0.2453  0.5360  0.3647
  153SAPE   H5X17010   4.701   6.101   7.481  0.2197 -0.0229 -0.3889
  153SAPE   H5Y17011   4.785   6.241   7.409  1.0296  0.6548  0.3421
  153SAPE   C3617012   4.899   6.148   7.565 -0.5691  0.3100  0.3257
  153SAPE   H6X17013   4.995   6.194   7.533  0.3151 -1.0584  0.9209
  153SAPE   H6Y17014   4.931   6.044   7.588 -0.6889  0.3316  0.5854
  153SAPE   C3717015   4.851   6.207   7.690  0.2500 -0.5248  0.2044
  153SAPE   H7X17016   4.748   6.174   7.714 -0.5195  0.8454 -1.0328
  153SAPE   H7Y17017   4.834   6.316   7.675  1.3025 -0.5186 -1.1189
  153SAPE   C3817018   4.954   6.177   7.805 -0.2999  0.2335  0.0333
  153SAPE   H8X17019   5.039   6.246   7.783  1.4375 -2.1464 -1.2977
  153SAPE   H8Y17020   4.989   6.072   7.790  1.9747  0.9830 -0.2554
  153SAPE   C3917021   4.894   6.190   7.946 -0.3440 -0.1122 -0.5950
  153SAPE   H9X17022   4.814   6.115   7.960 -0.6942  0.7019  2.7269
  153SAPE   H9Y17023   4.859   6.293   7.968  0.9851  0.3089 -0.3572
  153SAPE  C31017024   4.990   6.157   8.065 -0.0556  0.0965 -0.7187
  153SAPE  H10X17025   5.033   6.058   8.038 -0.5161 -1.2967  2.9888
  153SAPE  H10Y17026   4.930   6.126   8.153 -0.7203 -4.0128 -2.3674
  153SAPE  C31117027   5.097   6.262   8.087 -0.0717 -0.2296  0.2015
  153SAPE  H11X17028   5.059   6.363   8.058 -1.4267 -0.7431  0.0889
  153SAPE  H11Y17029   5.176   6.237   8.013  0.1987  0.0117  0.4070
  153SAPE  C31217030   5.141   6.269   8.234  0.7440  0.3354 -0.1317
  153SAPE  H12X17031   5.166   6.164   8.262 -0.8120 -0.4186 -1.3916
  153SAPE  H12Y17032   5.054   6.300   8.295  0.1294  0.7775 -1.1959
  153SAPE  C31317033   5.259   6.366   8.238 -0.5906 -0.5313 -0.9501
  153SAPE  H13X17034   5.248   6.465   8.187 -0.2652  0.0282  0.0425
  153SAPE  H13Y17035   5.352   6.314   8.204  2.1370  2.2638  1.5899
  153SAPE  C31417036   5.281   6.407   8.385  0.3169 -0.3006  0.1548
  153SAPE  H14X17037   5.300   6.318   8.449 -0.8565  0.0279  0.9913
  153SAPE  H14Y17038   5.179   6.428   8.424  0.2054 -0.5816  0.0167
  153SAPE  C31517039   5.377   6.527   8.409  0.2028  0.5913 -0.2629
  153SAPE  H15X17040   5.356   6.558   8.514  0.4344 -2.7920  0.8812
  153SAPE  H15Y17041   5.347   6.608   8.339 -1.2027 -0.2036 -0.6002
  153SAPE  C31617042   5.528   6.502   8.373 -1.4887  0.3255 -0.2540
  153SAPE  H16X17043   5.564   6.595   8.325  0.9905  0.1857  1.1368
  153SAPE  H16Y17044   5.552   6.428   8.294 -0.0782  2.9790 -2.4595
  153SAPE  C31717045   5.623   6.501   8.494  0.3984 -0.2316  0.0106
  153SAPE  H17X17046   5.614   6.395   8.528  1.3761 -0.4648 -0.4165
  153SAPE  H17Y17047   5.587   6.564   8.577 -0.0437  2.0298 -1.7904
  153SAPE  C31817048   5.769   6.521   8.457 -0.1424 -0.4205 -0.1682
  153SAPE  H18X17049   5.809   6.450   8.382 -0.1943  0.7229 -1.3139
  153SAPE  H18Y17050   5.837   6.519   8.545  0.8889  0.2946 -0.9338
  153SAPE  H18Z17051   5.784   6.623   8.417  0.0971  0.4032  1.9083
  154SAPE     N17052   1.793   6.384   6.414  0.2238  0.0742 -0.4382
  154SAPE   HN117053   1.711   6.435   6.374 -0.4884 -0.8727 -0.2047
  154SAPE   HN217054   1.755   6.289   6.431  0.4501 -0.2730 -1.7315
  154SAPE   HN317055   1.821   6.417   6.508 -1.3716  0.4364 -0.0627
  154SAPE   C1217056   1.900   6.393   6.309 -0.0828 -0.1640  0.0593
  154SAPE  H12A17057   1.991   6.365   6.367 -0.5114 -1.2794  0.2212
  154SAPE  H12B17058   1.919   6.500   6.285  2.8389 -0.5470  0.3127
  154SAPE   C1117059   1.864   6.297   6.194  0.8371  0.5065  0.0594
  154SAPE  H11A17060   1.868   6.195   6.236  1.5935 -0.3820 -2.0482
  154SAPE  H11B17061   1.946   6.303   6.119  0.7924 -0.0378 -0.0323
  154SAPE     P17062   1.629   6.204   6.114 -0.2319 -0.1768  0.3489
  154SAPE   O1317063   1.507   6.283   6.135  0.0591 -0.2044  0.6782
  154SAPE   O1417064   1.650   6.134   5.988  0.4264  0.5630  0.0515
  154SAPE   O1217065   1.742   6.320   6.127  0.1233  0.1602  0.7734
  154SAPE   O1117066   1.645   6.105   6.241  0.4779 -0.1093 -0.0262
  154SAPE    C117067   1.706   5.971   6.216  0.0815 -0.3218 -0.1259
  154SAPE    HA17068   1.659   5.918   6.131  0.2597 -0.9625  0.1717
  154SAPE    HB17069   1.816   5.988   6.208  0.1747  2.2106  3.7682
  154SAPE    C217070   1.690   5.879   6.340 -0.0546 -0.8175 -0.8002
  154SAPE    HS17071   1.583   5.853   6.354 -0.2876  0.7123  0.4716
  154SAPE   O2117072   1.741   5.951   6.459 -0.0935  0.6480 -0.7615
  154SAPE   C2117073   1.693   5.911   6.581  0.1093 -0.3794 -0.1784
  154SAPE   O2217074   1.627   5.811   6.604 -0.0096 -0.6780 -0.3871
  154SAPE   C2217075   1.747   6.005   6.682 -0.9109 -0.0295 -0.4475
  154SAPE   H2R17076   1.850   6.034   6.650 -0.2642 -1.4402  0.2372
  154SAPE   H2S17077   1.698   6.104   6.686  0.4907  0.6605  0.6701
  154SAPE    C317078   1.761   5.746   6.325 -0.0365  0.5774 -0.2833
  154SAPE    HX17079   1.706   5.684   6.251 -0.7597  0.1129  0.6386
  154SAPE    HY17080   1.735   5.691   6.417 -0.5260  0.3285 -0.5670
  154SAPE   O3117081   1.898   5.764   6.305  0.5074  0.0735 -0.3880
  154SAPE   C3117082   1.966   5.649   6.324 -0.1843 -0.5839 -0.5558
  154SAPE   O3217083   1.920   5.539   6.349 -0.0917 -0.6258  0.2462
  154SAPE   C3217084   2.112   5.683   6.322  0.1560  0.4912 -0.1002
  154SAPE   H2X17085   2.137   5.789   6.301  0.8668  0.0022 -1.9336
  154SAPE   H2Y17086   2.157   5.628   6.236  4.5414  1.8922  1.0373
  154SAPE   C2317087   1.748   5.949   6.823  0.3177  0.4388 -0.3872
  154SAPE   H3R17088   1.774   5.842   6.830 -0.5989  0.2484  0.4448
  154SAPE   H3S17089   1.653   5.973   6.876 -0.0825  0.7365 -1.2250
  154SAPE   C2417090   1.850   6.010   6.919  0.4422 -0.4765  0.1781
  154SAPE   H4R17091   1.947   6.014   6.865  0.1973 -0.5099 -0.2689
  154SAPE   H4S17092   1.864   5.941   7.004 -2.9204 -0.5180  0.8315
  154SAPE   C2517093   1.827   6.145   6.973  0.7277 -0.2323  0.3139
  154SAPE   H5R17094   1.770   6.219   6.915  2.7255  1.2526  0.1498
  154SAPE   C2617095   1.871   6.195   7.095 -0.0222 -0.3644 -0.5730
  154SAPE   H6R17096   1.857   6.302   7.113  4.2076  0.4955 -1.2839
  154SAPE   C2717097   1.952   6.116   7.200 -0.0140  0.0095  0.1541
  154SAPE   H7R17098   2.018   6.184   7.258  2.3262 -1.4452 -0.6585
  154SAPE   H7S17099   2.030   6.048   7.160  1.8790  1.3161  1.4353
  154SAPE   C2817100   1.869   6.043   7.304  0.9870  0.1142 -0.4658
  154SAPE   H8R17101   1.808   5.958   7.272 -1.6362  1.0263  1.6675
  154SAPE   C2917102   1.865   6.076   7.435  0.2675  0.6570 -0.0784
  154SAPE   H9R17103   1.828   6.001   7.507  0.7091 -0.1474 -0.6740
  154SAPE  C21017104   1.943   6.183   7.512 -0.2146 -0.0277  0.0581
  154SAPE  H10R17105   1.868   6.229   7.579  0.1952 -2.0941  2.0709
  154SAPE  H10S17106   1.983   6.265   7.449 -0.5363  0.3254  0.3086
  154SAPE  C21117107   2.050   6.109   7.593 -0.1143 -0.5034  0.1354
  154SAPE  H11R17108   2.124   6.064   7.525  0.5767 -0.1875  0.6662
  154SAPE  C21217109   2.079   6.135   7.725  0.0404 -0.1152  0.6341
  154SAPE  H12R17110   2.161   6.077   7.772 -0.1117 -0.9653 -0.1090
  154SAPE  C21317111   2.011   6.232   7.819 -0.0544 -0.7488 -0.6443
  154SAPE  H13R17112   1.948   6.307   7.767 -0.3611 -0.4842  0.0825
  154SAPE  H13S17113   2.098   6.285   7.864 -0.6012  0.6838 -1.2141
  154SAPE  C21417114   1.932   6.171   7.930 -0.1961  0.0557  0.0699
  154SAPE  H14R17115   1.975   6.092   7.994 -2.2830 -1.2076  0.0340
  154SAPE  C21517116   1.797   6.170   7.928  0.1644 -0.2598 -0.2132
  154SAPE  H15R17117   1.741   6.130   8.013  0.4933 -1.6020 -0.6121
  154SAPE  C21617118   1.709   6.250   7.825 -0.7816 -0.0758  0.7804
  154SAPE  H16R17119   1.669   6.180   7.748  3.9637  0.9894 -3.2010
  154SAPE  H16S17120   1.756   6.335   7.771 -1.1449 -1.1501 -1.3570
  154SAPE  C21717121   1.605   6.332   7.895  0.0400 -0.7466  0.3875
  154SAPE  H17R17122   1.555   6.254   7.955 -1.2069 -0.0351  0.2958
  154SAPE  H17S17123   1.533   6.371   7.820  2.0976 -1.2575 -1.9893
  154SAPE  C21817124   1.654   6.449   7.983  0.3398 -0.6339  0.1774
  154SAPE  H18R17125   1.724   6.511   7.922 -2.1775 -0.1043 -2.4054
  154SAPE  H18S17126   1.703   6.406   8.073  3.0714 -0.7433 -1.2665
  154SAPE  C21917127   1.542   6.544   8.039  0.2535 -0.0800  0.7815
  154SAPE  H19R17128   1.520   6.607   7.950  1.3826  1.5655  1.6117
  154SAPE  H19S17129   1.587   6.620   8.106  0.2941  2.6407 -2.0898
  154SAPE  C22017130   1.416   6.479   8.085  0.4823 -0.4432  0.1106
  154SAPE  H20R17131   1.442   6.436   8.185 -2.7301  3.2019  2.8398
  154SAPE  H20S17132   1.375   6.402   8.016  0.8839 -0.6779  0.1303
  154SAPE  H20T17133   1.330   6.544   8.113  1.0664  0.4198 -0.0521
  154SAPE   C3317134   2.183   5.636   6.448 -0.1118 -0.8994  0.2190
  154SAPE   H3X17135   2.292   5.630   6.427  0.3399  2.9955  0.6868
  154SAPE   H3Y17136   2.156   5.534   6.484  2.2095 -1.2790  1.0575
  154SAPE   C3417137   2.166   5.743   6.564  0.2286  0.1637  0.0381
  154SAPE   H4X17138   2.175   5.846   6.521 -1.6850  1.3747  2.2837
  154SAPE   H4Y17139   2.250   5.731   6.635 -1.1790  0.9126  1.9164
  154SAPE   C3517140   2.038   5.732   6.644 -0.0211  0.7753 -0.1593
  154SAPE   H5X17141   1.956   5.765   6.576 -0.9035  1.7754  1.3351
  154SAPE   H5Y17142   2.044   5.800   6.732 -0.1459 -0.1016  0.5431
  154SAPE   C3617143   2.014   5.584   6.703  0.3719  0.6452  0.3902
  154SAPE   H6X17144   2.114   5.538   6.715  0.1502  0.1779  0.4462
  154SAPE   H6Y17145   1.960   5.530   6.623  1.6868  1.6795 -1.2659
  154SAPE   C3717146   1.935   5.578   6.827 -0.6112 -0.8342 -0.7931
  154SAPE   H7X17147   1.908   5.472   6.848 -1.3786 -1.0301 -2.5853
  154SAPE   H7Y17148   1.845   5.643   6.829 -0.9171 -1.2492  1.3498
  154SAPE   C3817149   2.029   5.623   6.946 -0.2723  0.0191 -0.5308
  154SAPE   H8X17150   2.074   5.723   6.924 -2.1894  0.8419 -0.9833
  154SAPE   H8Y17151   2.116   5.556   6.957 -2.0611 -2.3331 -0.0448
  154SAPE   C3917152   1.953   5.628   7.079 -0.0600  0.1662  0.1722
  154SAPE   H9X17153   1.924   5.526   7.111 -0.9064  0.2300 -0.3629
  154SAPE   H9Y17154   1.859   5.682   7.054 -0.3677 -0.6284 -0.4316
  154SAPE  C31017155   2.034   5.685   7.195  0.5413 -0.0551 -0.0129
  154SAPE  H10X17156   2.059   5.793   7.186  1.4306 -0.1726  0.8493
  154SAPE  H10Y17157   2.133   5.634   7.197  0.1572 -0.9048 -1.3333
  154SAPE  C31117158   1.962   5.665   7.329 -0.5803 -0.2684  0.2503
  154SAPE  H11X17159   1.936   5.557   7.317 -0.4950 -0.3716  0.9323
  154SAPE  H11Y17160   1.861   5.710   7.338 -0.7110 -0.5955  0.4836
  154SAPE  C31217161   2.058   5.703   7.444  0.2063  0.5074  0.6184
  154SAPE  H12X17162   2.080   5.811   7.428  0.6699  0.2198 -0.8145
  154SAPE  H12Y17163   2.155   5.650   7.450 -1.6382 -3.3541 -0.8543
  154SAPE  C31317164   1.995   5.705   7.586  0.3151 -0.4034 -0.0680
  154SAPE  H13X17165   1.947   5.609   7.615 -1.1915  0.7379  1.4613
  154SAPE  H13Y17166   1.916   5.783   7.576  1.6915  0.9397 -1.1582
  154SAPE  C31417167   2.095   5.738   7.693  0.4012  0.1900  0.3963
  154SAPE  H14X17168   2.133   5.842   7.683  1.3206  0.1785  2.9252
  154SAPE  H14Y17169   2.181   5.669   7.683 -0.7145 -1.0046 -1.3729
  154SAPE  C31517170   2.039   5.726   7.825  0.5970  0.0782 -1.3198
  154SAPE  H15X17171   2.020   5.620   7.851 -1.5474  0.9557  1.0960
  154SAPE  H15Y17172   1.945   5.786   7.829 -0.5126 -1.6767  1.7096
  154SAPE  C31617173   2.132   5.776   7.934 -0.5774  0.3155  0.3440
  154SAPE  H16X17174   2.161   5.881   7.916 -1.2553  0.1366 -2.0696
  154SAPE  H16Y17175   2.222   5.712   7.943 -0.8053 -0.1010 -0.2734
  154SAPE  C31717176   2.059   5.795   8.069  0.3970 -0.7494  0.5254
  154SAPE  H17X17177   2.014   5.702   8.108  0.2733 -1.1938 -0.6235
  154SAPE  H17Y17178   1.968   5.858   8.061 -0.7177 -2.4104 -0.5673
  154SAPE  C31817179   2.164   5.846   8.170  0.7912 -0.7342  0.5313
  154SAPE  H18X17180   2.266   5.804   8.158  1.8197  2.2179 -2.5563
  154SAPE  H18Y17181   2.121   5.825   8.270  0.0486 -1.3131  0.1018
  154SAPE  H18Z17182   2.169   5.956   8.156 -0.3972 -0.8492 -1.0894
  155SAPE     N17183   2.224   0.886   6.227 -1.1406 -0.1502 -0.9084
  155SAPE   HN117184   2.213   0.870   6.125 -0.1865  0.3253 -1.0977
  155SAPE   HN217185   2.155   0.819   6.266 -0.0106 -1.7463 -1.5465
  155SAPE   HN317186   2.197   0.985   6.247 -0.6410 -0.4784  1.8049
  155SAPE   C1217187   2.365   0.857   6.265  0.6136  0.1747  0.2151
  155SAPE  H12A17188   2.428   0.930   6.210  2.3085 -1.7031 -0.4409
  155SAPE  H12B17189   2.398   0.756   6.234  1.8473  0.9677 -1.1657
  155SAPE   C1117190   2.373   0.854   6.422  0.1030  0.6841  0.5497
  155SAPE  H11A17191   2.477   0.835   6.455  0.8357  4.3781  0.7887
  155SAPE  H11B17192   2.299   0.776   6.453  1.6820  0.2473  3.5847
  155SAPE     P17193   2.405   1.103   6.520 -0.0492  0.3665  0.2936
  155SAPE   O1317194   2.526   1.094   6.444 -0.2488 -0.0425  0.9553
  155SAPE   O1417195   2.315   1.221   6.522  0.5585 -0.4618 -0.1025
  155SAPE   O1217196   2.324   0.977   6.480 -0.0007 -0.3566  0.9663
  155SAPE   O1117197   2.435   1.072   6.676  0.5851 -0.1566  0.6539
  155SAPE    C117198   2.553   0.997   6.717  0.1453 -0.2200 -0.2082
  155SAPE    HA17199   2.578   0.917   6.644  0.3163 -1.8031  1.4992
  155SAPE    HB17200   2.635   1.071   6.724 -0.1188  0.0132  0.4658
  155SAPE    C217201   2.537   0.928   6.854 -0.0754  0.1999 -0.6053
  155SAPE    HS17202   2.478   0.840   6.821 -1.4226  0.5528  0.7360
  155SAPE   O2117203   2.473   1.013   6.953 -0.2214  0.0703 -0.2312
  155SAPE   C2117204   2.377   0.961   7.024  0.1858 -0.6569 -0.0841
  155SAPE   O2217205   2.351   0.843   7.038  0.4873  0.1727  0.0052
  155SAPE   C2217206   2.314   1.067   7.104 -0.2070  0.6420 -0.7011
  155SAPE   H2R17207   2.396   1.141   7.118 -0.2181  0.1479  3.1730
  155SAPE   H2S17208   2.243   1.126   7.043  0.2217  0.9850 -0.8821
  155SAPE    C317209   2.670   0.885   6.913 -0.0491 -0.2806  0.2263
  155SAPE    HX17210   2.740   0.971   6.913  0.1892 -0.4322 -1.5630
  155SAPE    HY17211   2.727   0.814   6.849 -0.0993  0.2871 -0.4689
  155SAPE   O3117212   2.666   0.843   7.052 -0.1820 -0.1827  0.7187
  155SAPE   C3117213   2.625   0.717   7.067  0.0199 -0.3668  0.0486
  155SAPE   O3217214   2.608   0.637   6.978  0.2214  0.3819  0.4687
  155SAPE   C3217215   2.589   0.715   7.219 -0.0006  0.5419 -0.2848
  155SAPE   H2X17216   2.506   0.783   7.247 -0.6327 -0.3764  0.1028
  155SAPE   H2Y17217   2.673   0.752   7.282  0.4129  0.6241 -0.8641
  155SAPE   C2317218   2.267   1.036   7.238 -0.2836  0.3727  0.7643
  155SAPE   H3R17219   2.336   0.969   7.295 -2.5481 -0.2272  3.0143
  155SAPE   H3S17220   2.177   0.971   7.236 -0.2916  0.3856  0.7041
  155SAPE   C2417221   2.222   1.163   7.321  0.1559 -0.1714  0.5735
  155SAPE   H4R17222   2.156   1.136   7.406 -0.8144 -0.1120 -0.1444
  155SAPE   H4S17223   2.150   1.221   7.260  0.7715 -1.9151 -1.9630
  155SAPE   C2517224   2.340   1.256   7.350 -0.8131  0.4309 -0.1572
  155SAPE   H5R17225   2.398   1.286   7.262  1.4581  0.4166  1.2657
  155SAPE   C2617226   2.364   1.306   7.473 -0.7001  0.3046  0.1907
  155SAPE   H6R17227   2.447   1.377   7.489 -0.8907  1.1913 -2.3339
  155SAPE   C2717228   2.278   1.269   7.597 -0.1869 -0.2820 -0.2870
  155SAPE   H7R17229   2.269   1.159   7.602 -1.1490 -0.1957  0.2787
  155SAPE   H7S17230   2.174   1.305   7.579 -0.5149  0.2276  2.1643
  155SAPE   C2817231   2.329   1.308   7.730 -0.0693 -0.0288 -0.4142
  155SAPE   H8R17232   2.347   1.416   7.740 -3.0693  0.5442  0.0254
  155SAPE   C2917233   2.352   1.226   7.837 -0.4471  0.1758  0.1341
  155SAPE   H9R17234   2.385   1.274   7.930  1.7320 -0.2931 -0.3436
  155SAPE  C21017235   2.328   1.078   7.851  0.3913  0.2780  0.0248
  155SAPE  H10R17236   2.333   1.027   7.753 -0.1508 -3.1015  1.6113
  155SAPE  H10S17237   2.224   1.065   7.888 -0.0857 -0.7092 -1.5595
  155SAPE  C21117238   2.424   0.999   7.933 -0.1348 -0.0665 -0.0331
  155SAPE  H11R17239   2.510   0.962   7.875  1.3497  0.0319  1.9887
  155SAPE  C21217240   2.409   0.974   8.072 -0.6099  0.4378  0.1859
  155SAPE  H12R17241   2.486   0.915   8.123 -0.3598 -0.4684 -1.1970
  155SAPE  C21317242   2.300   1.026   8.157  0.1037  0.5882  0.2240
  155SAPE  H13R17243   2.274   0.948   8.231  0.8433 -0.6777 -0.8159
  155SAPE  H13S17244   2.206   1.046   8.101  1.1245 -1.0859 -2.2393
  155SAPE  C21417245   2.351   1.146   8.232 -0.1266  0.1168 -0.6376
  155SAPE  H14R17246   2.397   1.221   8.165  1.2474 -0.3542 -0.2660
  155SAPE  C21517247   2.355   1.165   8.367 -0.2959  0.0550 -0.6029
  155SAPE  H15R17248   2.375   1.268   8.401  2.0093 -0.4570 -0.2390
  155SAPE  C21617249   2.305   1.066   8.470  0.5996 -0.5558 -0.6161
  155SAPE  H16R17250   2.373   1.064   8.557  1.7387 -3.4985 -1.4509
  155SAPE  H16S17251   2.299   0.963   8.428 -1.7160 -0.8235  0.2459
  155SAPE  C21717252   2.156   1.107   8.512 -0.9002 -0.3138 -0.6814
  155SAPE  H17R17253   2.088   1.080   8.428 -0.4273 -1.2438 -0.7818
  155SAPE  H17S17254   2.149   1.217   8.531 -2.4030 -1.0190  4.2714
  155SAPE  C21817255   2.123   1.048   8.648 -0.2436 -0.6273  0.7351
  155SAPE  H18R17256   2.169   1.100   8.735 -1.7728  0.1144  1.1425
  155SAPE  H18S17257   2.145   0.940   8.657  1.5175 -0.2088  1.8362
  155SAPE  C21917258   1.971   1.047   8.651  0.1271 -0.5052 -0.1343
  155SAPE  H19R17259   1.935   0.990   8.740 -0.1672 -0.0780  0.0231
  155SAPE  H19S17260   1.928   0.986   8.569  1.2946 -2.3542  0.5658
  155SAPE  C22017261   1.911   1.182   8.659  0.0224  0.0343 -0.7847
  155SAPE  H20R17262   1.950   1.252   8.582 -0.5152 -1.6652 -2.7111
  155SAPE  H20S17263   1.947   1.228   8.753  3.2195 -1.9763 -0.8804
  155SAPE  H20T17264   1.801   1.170   8.667 -0.1121  2.1179  1.4214
  155SAPE   C3317265   2.547   0.574   7.258  0.0959  0.8621 -0.2744
  155SAPE   H3X17266   2.637   0.514   7.232 -0.8128 -0.0908 -1.2802
  155SAPE   H3Y17267   2.467   0.542   7.187 -1.1527  0.3905  1.3011
  155SAPE   C3417268   2.533   0.556   7.409  0.3659  0.2773  0.5547
  155SAPE   H4X17269   2.627   0.589   7.458  0.3041  1.0079  0.1988
  155SAPE   H4Y17270   2.515   0.450   7.435 -0.3167  0.2113 -0.1592
  155SAPE   C3517271   2.406   0.625   7.463 -0.2948 -0.5637 -0.0228
  155SAPE   H5X17272   2.320   0.577   7.412  0.1326 -0.8211 -0.5105
  155SAPE   H5Y17273   2.391   0.731   7.435  1.4530 -0.0916  0.7052
  155SAPE   C3617274   2.382   0.601   7.614  0.0425 -0.1109 -0.2700
  155SAPE   H6X17275   2.471   0.637   7.669  0.0684 -2.6807  1.5128
  155SAPE   H6Y17276   2.368   0.494   7.640  1.8164 -0.3954 -0.3647
  155SAPE   C3717277   2.259   0.688   7.660  0.5907  0.8364 -0.1669
  155SAPE   H7X17278   2.175   0.633   7.613 -2.1319  3.2019  1.6181
  155SAPE   H7Y17279   2.269   0.789   7.617 -2.3408  0.5547 -1.7268
  155SAPE   C3817280   2.238   0.695   7.808 -0.6165  0.0564  0.3758
  155SAPE   H8X17281   2.145   0.755   7.824  0.2538  1.2237  1.2600
  155SAPE   H8Y17282   2.321   0.743   7.864  1.1071 -1.0952 -1.1149
  155SAPE   C3917283   2.199   0.564   7.878 -0.2511 -0.2121 -0.1244
  155SAPE   H9X17284   2.287   0.497   7.877  0.1870  0.3617 -0.4972
  155SAPE   H9Y17285   2.132   0.504   7.813  0.2808  0.4020 -1.2692
  155SAPE  C31017286   2.151   0.589   8.021  0.4622  0.0247  0.1053
  155SAPE  H10X17287   2.081   0.506   8.047  1.2578 -0.6223  0.2338
  155SAPE  H10Y17288   2.094   0.683   8.013  2.7162  1.4184 -0.4672
  155SAPE  C31117289   2.273   0.587   8.118 -0.4142 -0.2678  0.1174
  155SAPE  H11X17290   2.355   0.656   8.086 -1.7746  0.4912 -1.9294
  155SAPE  H11Y17291   2.312   0.484   8.133  0.7757  0.0834 -0.3986
  155SAPE  C31217292   2.243   0.648   8.257  0.1084 -0.0538 -0.1080
  155SAPE  H12X17293   2.196   0.748   8.255  1.3480  0.6396  2.0806
  155SAPE  H12Y17294   2.340   0.658   8.310 -0.8751 -0.9351  1.9819
  155SAPE  C31317295   2.173   0.560   8.362 -0.5930 -0.0509  0.8256
  155SAPE  H13X17296   2.235   0.469   8.377 -0.0422  0.0781 -0.5049
  155SAPE  H13Y17297   2.075   0.519   8.329 -0.2712 -0.5763  0.4951
  155SAPE  C31417298   2.153   0.628   8.498 -0.6425 -0.4618 -0.1940
  155SAPE  H14X17299   2.118   0.731   8.474  1.0725  0.2377  0.1383
  155SAPE  H14Y17300   2.254   0.642   8.542 -0.2426 -1.1268 -0.8768
  155SAPE  C31517301   2.050   0.574   8.591  0.3741 -0.2516 -0.1648
  155SAPE  H15X17302   1.948   0.587   8.550 -0.1240 -0.9955  0.7933
  155SAPE  H15Y17303   2.064   0.618   8.692  3.5421 -1.0514 -0.1606
  155SAPE  C31617304   2.061   0.424   8.627 -0.4918 -0.2500 -0.1608
  155SAPE  H16X17305   2.165   0.401   8.661 -0.6212  1.0125  1.1941
  155SAPE  H16Y17306   2.029   0.363   8.539 -1.3982 -0.0734  0.0357
  155SAPE  C31717307   1.958   0.389   8.741  0.3554 -0.5807 -0.5462
  155SAPE  H17X17308   1.962   0.452   8.832  0.0638 -1.5882  0.1871
  155SAPE  H17Y17309   1.972   0.286   8.781 -1.7841 -1.0306 -0.8247
  155SAPE  C31817310   1.815   0.398   8.677 -0.1615 -0.3529  0.7801
  155SAPE  H18X17311   1.794   0.498   8.634  0.9773 -0.3945  0.0703
  155SAPE  H18Y17312   1.736   0.377   8.752 -0.6340  2.4916  1.1906
  155SAPE  H18Z17313   1.813   0.332   8.588  1.5765 -0.4764  0.7918
  156SAPE     N17314   0.235   0.106   5.984 -0.7885  0.4617 -0.1540
  156SAPE   HN117315   0.313   0.078   5.922  0.3362 -1.4203  1.9563
  156SAPE   HN217316   0.222   0.042   6.065  0.1516 -0.4828 -0.7413
  156SAPE   HN317317   0.141   0.105   5.940 -0.9252 -0.2363  0.1496
  156SAPE   C1217318   0.259   0.247   6.040  0.4290  0.0929  0.1065
  156SAPE  H12A17319   0.161   0.299   6.044 -0.5075 -1.6631  1.8408
  156SAPE  H12B17320   0.321   0.303   5.967  1.1590 -1.3265 -0.4089
  156SAPE   C1117321   0.307   0.248   6.181 -0.3721  0.2928  0.0434
  156SAPE  H11A17322   0.221   0.223   6.248 -0.7696  0.2697 -0.4695
  156SAPE  H11B17323   0.336   0.352   6.207  0.4512 -0.2186  1.2556
  156SAPE     P17324   0.556   0.180   6.171  0.4881 -0.0786  0.6106
  156SAPE   O1317325   0.647   0.077   6.226  0.8275  0.5618 -0.1698
  156SAPE   O1417326   0.587   0.198   6.029  0.2177 -0.0694 -0.1419
  156SAPE   O1217327   0.414   0.144   6.204  1.1667  0.7657 -0.0298
  156SAPE   O1117328   0.577   0.315   6.250  0.1302  0.1065  0.3153
  156SAPE    C117329   0.702   0.353   6.307 -0.2649  0.4496 -0.2844
  156SAPE    HA17330   0.780   0.304   6.245 -1.1003  1.1779 -1.9927
  156SAPE    HB17331   0.714   0.463   6.293  0.1043  0.6016  1.1222
  156SAPE    C217332   0.701   0.309   6.450  0.2092 -1.0535 -0.1046
  156SAPE    HS17333   0.680   0.200   6.446 -0.5435 -0.9186  0.1697
  156SAPE   O2117334   0.595   0.375   6.516  0.1368 -0.2646  0.4390
  156SAPE   C2117335   0.518   0.307   6.602 -0.2052 -0.3208 -0.0856
  156SAPE   O2217336   0.520   0.186   6.627 -1.3886  0.3582 -0.8299
  156SAPE   C2217337   0.423   0.412   6.669 -0.1309  0.2167 -0.3047
  156SAPE   H2R17338   0.478   0.505   6.695  0.2140  0.6178 -2.3598
  156SAPE   H2S17339   0.346   0.428   6.591  0.7004  1.9217 -0.8135
  156SAPE    C317340   0.840   0.337   6.516 -0.0646 -0.2440  0.0669
  156SAPE    HX17341   0.857   0.446   6.515  0.8671 -0.3766  0.4710
  156SAPE    HY17342   0.920   0.290   6.453 -0.6750 -0.4224 -0.5870
  156SAPE   O3117343   0.837   0.295   6.651 -0.3754  0.0476  0.5041
  156SAPE   C3117344   0.952   0.307   6.715 -0.1718 -0.2102 -0.3511
  156SAPE   O3217345   1.054   0.367   6.674 -0.0782  0.5118 -0.3768
  156SAPE   C3217346   0.927   0.257   6.857 -0.6354  0.6255  0.7542
  156SAPE   H2X17347   0.916   0.147   6.855 -2.1268  0.7517  0.7746
  156SAPE   H2Y17348   0.839   0.308   6.902 -0.5237  0.6469  0.9474
  156SAPE   C2317349   0.351   0.357   6.790  0.0670  0.6217 -0.1710
  156SAPE   H3R17350   0.323   0.250   6.781  0.8883  0.3081  0.7864
  156SAPE   H3S17351   0.253   0.408   6.806 -0.5476 -0.9965  1.5877
  156SAPE   C2417352   0.451   0.363   6.916 -0.2195 -0.4928 -0.2752
  156SAPE   H4R17353   0.479   0.469   6.933  0.3346 -0.2644 -2.4050
  156SAPE   H4S17354   0.537   0.307   6.874  0.0028  0.6737 -1.4337
  156SAPE   C2517355   0.396   0.289   7.034 -0.6136 -0.1709 -0.4480
  156SAPE   H5R17356   0.369   0.186   7.005  0.3002  0.6969 -5.1745
  156SAPE   C2617357   0.372   0.319   7.164  0.4068  0.0795 -0.1561
  156SAPE   H6R17358   0.323   0.249   7.234 -1.6014 -0.4110 -1.9500
  156SAPE   C2717359   0.399   0.460   7.218 -0.2804  0.7760  1.0670
  156SAPE   H7R17360   0.297   0.499   7.239 -1.0163 -0.7951  0.6061
  156SAPE   H7S17361   0.439   0.529   7.140  1.8406 -3.1304 -1.6653
  156SAPE   C2817362   0.503   0.441   7.322 -0.3918 -0.2124 -0.8136
  156SAPE   H8R17363   0.598   0.395   7.292 -1.0760 -1.8641 -0.5701
  156SAPE   C2917364   0.496   0.469   7.453  0.5441 -0.9113  0.3864
  156SAPE   H9R17365   0.576   0.446   7.525 -0.1849 -2.6942  0.6601
  156SAPE  C21017366   0.380   0.534   7.517  0.0451 -0.3111 -0.3129
  156SAPE  H10R17367   0.326   0.449   7.564  3.0935 -1.7504  0.8039
  156SAPE  H10S17368   0.321   0.594   7.444  0.9395 -1.8143 -2.3657
  156SAPE  C21117369   0.444   0.634   7.616 -0.3454  0.1197 -0.9615
  156SAPE  H11R17370   0.487   0.722   7.564 -2.5892  0.7935 -1.8170
  156SAPE  C21217371   0.440   0.626   7.750 -0.3570  0.6835  1.0076
  156SAPE  H12R17372   0.502   0.701   7.801 -1.6006  1.8388  0.8968
  156SAPE  C21317373   0.370   0.514   7.824  0.3099 -0.2558  0.1827
  156SAPE  H13R17374   0.348   0.429   7.756  1.2424  0.7072 -1.3706
  156SAPE  H13S17375   0.270   0.548   7.858 -0.2534 -2.8968  1.4635
  156SAPE  C21417376   0.463   0.451   7.923  0.2204 -0.0872  0.0307
  156SAPE  H14R17377   0.535   0.381   7.880 -2.7754 -2.9921 -0.6602
  156SAPE  C21517378   0.473   0.483   8.048  0.3909 -0.4979 -0.3576
  156SAPE  H15R17379   0.554   0.430   8.102 -0.4175 -0.1203  1.2756
  156SAPE  C21617380   0.393   0.586   8.120  0.9451  0.2635  0.5469
  156SAPE  H16R17381   0.350   0.529   8.205 -1.3505  2.1175  0.7372
  156SAPE  H16S17382   0.305   0.626   8.064 -0.6782 -3.5771  0.0450
  156SAPE  C21717383   0.488   0.696   8.178 -0.1561 -0.0132  0.2999
  156SAPE  H17R17384   0.589   0.661   8.210 -0.3906  0.9721  2.2627
  156SAPE  H17S17385   0.440   0.738   8.269 -0.0169  0.5225  0.1288
  156SAPE  C21817386   0.500   0.809   8.075  0.4681  0.2130 -0.9186
  156SAPE  H18R17387   0.401   0.818   8.024  0.0395  0.1944 -0.1150
  156SAPE  H18S17388   0.576   0.779   8.000 -1.3854 -0.3735 -2.6528
  156SAPE  C21917389   0.560   0.935   8.133  0.1945 -0.2575  0.8472
  156SAPE  H19R17390   0.587   0.994   8.044  1.6710 -0.6933  0.9641
  156SAPE  H19S17391   0.649   0.913   8.197 -0.5590 -2.2354  1.3052
  156SAPE  C22017392   0.462   1.026   8.220 -0.2304  0.3181  0.6617
  156SAPE  H20R17393   0.499   1.122   8.263 -0.1839  0.8962 -0.6333
  156SAPE  H20S17394   0.447   0.964   8.311 -0.6923 -0.8029 -0.1546
  156SAPE  H20T17395   0.362   1.051   8.177 -0.1357 -0.0806  0.2008
  156SAPE   C3317396   1.051   0.271   6.958 -0.7156 -0.9127 -0.4245
  156SAPE   H3X17397   1.092   0.371   6.935 -0.9867 -0.5643  0.5287
  156SAPE   H3Y17398   1.122   0.189   6.932 -1.1628 -1.0868 -1.1193
  156SAPE   C3417399   1.016   0.250   7.111  0.0464 -0.0067  0.0084
  156SAPE   H4X17400   0.931   0.314   7.140  0.5047 -0.0531  1.5200
  156SAPE   H4Y17401   1.100   0.266   7.182 -1.4613 -2.0433  2.4260
  156SAPE   C3517402   0.971   0.105   7.151  0.4515  0.5387 -0.5295
  156SAPE   H5X17403   1.052   0.029   7.143  1.5036  1.7434 -1.8886
  156SAPE   H5Y17404   0.896   0.074   7.076 -0.9415 -1.0222  1.4144
  156SAPE   C3617405   0.903   0.083   7.293  0.0280 -0.1115 -0.1527
  156SAPE   H6X17406   0.958   0.142   7.370 -2.6112 -0.7149  2.3883
  156SAPE   H6Y17407   0.918  -0.020   7.331 -0.6067  0.4614  1.7397
  156SAPE   C3717408   0.755   0.135   7.299 -0.6400 -1.5976  0.5240
  156SAPE   H7X17409   0.701   0.087   7.214 -1.7291 -1.9043  1.3670
  156SAPE   H7Y17410   0.759   0.244   7.278  0.5716 -2.1176 -2.4932
  156SAPE   C3817411   0.679   0.084   7.424  0.0630  0.2213  0.5669
  156SAPE   H8X17412   0.688  -0.027   7.426 -0.0275  0.2016  0.0375
  156SAPE   H8Y17413   0.574   0.116   7.435 -0.0102 -0.1788  1.0913
  156SAPE   C3917414   0.732   0.140   7.558  0.2601 -0.7902  0.8582
  156SAPE   H9X17415   0.770   0.242   7.537  1.9005 -1.8920 -2.3078
  156SAPE   H9Y17416   0.821   0.081   7.588 -0.1199 -1.4628  0.6842
  156SAPE  C31017417   0.622   0.124   7.664 -0.1681 -0.4975  1.0129
  156SAPE  H10X17418   0.574   0.027   7.643 -1.3619  0.2651  0.0667
  156SAPE  H10Y17419   0.543   0.201   7.653 -0.2436 -0.1186  3.5865
  156SAPE  C31117420   0.680   0.125   7.804  0.3570 -0.1366  0.2124
  156SAPE  H11X17421   0.725   0.224   7.831  2.3621 -0.9565  0.0620
  156SAPE  H11Y17422   0.757   0.046   7.818  1.7408  1.2596  0.9410
  156SAPE  C31217423   0.572   0.083   7.908  0.3474 -0.2586  0.1190
  156SAPE  H12X17424   0.542  -0.023   7.900 -0.8776  0.0727  0.1358
  156SAPE  H12Y17425   0.483   0.149   7.902  0.9362  0.4474 -1.2562
  156SAPE  C31317426   0.627   0.089   8.059 -0.5166  0.3687 -0.2593
  156SAPE  H13X17427   0.660   0.195   8.064  2.7357 -0.5654  0.6784
  156SAPE  H13Y17428   0.711   0.023   8.087 -0.8170  0.8264  1.8566
  156SAPE  C31417429   0.520   0.050   8.172 -0.2438 -0.0827 -0.5138
  156SAPE  H14X17430   0.488  -0.055   8.156  0.7542 -0.3168 -1.0635
  156SAPE  H14Y17431   0.432   0.114   8.151 -1.0092 -0.6583  0.8094
  156SAPE  C31517432   0.565   0.061   8.321 -0.2730 -0.6378 -0.4083
  156SAPE  H15X17433   0.662   0.007   8.332  0.7446  1.3955  1.5866
  156SAPE  H15Y17434   0.486   0.035   8.395 -2.1160 -1.7106 -2.6308
  156SAPE  C31617435   0.594   0.211   8.349 -0.2707  0.8348 -0.5585
  156SAPE  H16X17436   0.507   0.274   8.319 -2.0736 -1.9258 -1.4841
  156SAPE  H16Y17437   0.685   0.244   8.293 -0.4373  0.5870 -0.9753
  156SAPE  C31717438   0.634   0.224   8.507  0.6629  0.1235  0.6366
  156SAPE  H17X17439   0.698   0.134   8.520  0.2624 -0.0216  1.6648
  156SAPE  H17Y17440   0.551   0.216   8.580  0.5791  1.0557  0.6590
  156SAPE  C31817441   0.692   0.360   8.526 -0.3170 -0.6274  0.7610
  156SAPE  H18X17442   0.746   0.357   8.623 -0.7149  0.1310  1.0088
  156SAPE  H18Y17443   0.616   0.439   8.537  1.4716  1.4517 -0.7780
  156SAPE  H18Z17444   0.769   0.379   8.447 -2.0403 -0.3733 -0.9187
  157SAPE     N17445   4.633   2.361   6.241 -0.4274 -0.3452 -0.0237
  157SAPE   HN117446   4.548   2.304   6.261 -2.5176  3.0928  1.8629
  157SAPE   HN217447   4.715   2.311   6.281 -1.1434 -1.2374  0.3756
  157SAPE   HN317448   4.633   2.450   6.295  1.9526 -0.2097 -0.1628
  157SAPE   C1217449   4.662   2.387   6.095 -0.6596  0.3235 -0.1749
  157SAPE  H12A17450   4.569   2.430   6.052 -2.7206 -2.0123  1.6283
  157SAPE  H12B17451   4.670   2.289   6.044 -0.4145  0.4467 -0.3753
  157SAPE   C1117452   4.799   2.463   6.078  0.5912  0.5925 -0.1437
  157SAPE  H11A17453   4.795   2.557   6.137  0.4913  0.0887  0.6667
  157SAPE  H11B17454   4.809   2.495   5.972  0.0653  0.4103 -0.2533
  157SAPE     P17455   4.998   2.413   6.239  0.1137  0.2774 -0.0234
  157SAPE   O1317456   5.123   2.332   6.236 -0.6201  0.0664  0.1402
  157SAPE   O1417457   5.022   2.558   6.251  0.0356  0.0606  0.5936
  157SAPE   O1217458   4.907   2.376   6.110  0.0976  0.1711  0.0432
  157SAPE   O1117459   4.901   2.358   6.355 -0.1254 -0.5618 -0.2078
  157SAPE    C117460   4.929   2.231   6.417 -0.6769  0.9317  0.2603
  157SAPE    HA17461   4.853   2.154   6.392  1.0938 -2.5546  4.3048
  157SAPE    HB17462   5.022   2.178   6.389 -1.0999  0.0976  0.4054
  157SAPE    C217463   4.945   2.230   6.570  0.2220  0.6135 -0.1735
  157SAPE    HS17464   4.846   2.262   6.609 -1.4905  0.3362 -3.9300
  157SAPE   O2117465   5.052   2.325   6.605  0.0549  0.3541 -0.3552
  157SAPE   C2117466   5.011   2.449   6.613  0.1126  0.8899  0.0458
  157SAPE   O2217467   4.896   2.488   6.607  0.5023  0.7752 -0.2366
  157SAPE   C2217468   5.129   2.544   6.643 -0.3472  0.1437  0.5861
  157SAPE   H2R17469   5.204   2.522   6.564 -0.7170 -0.4518  0.3875
  157SAPE   H2S17470   5.083   2.641   6.619  0.0248 -0.1101 -1.2683
  157SAPE    C317471   4.972   2.083   6.627 -0.0539 -0.2953  0.1845
  157SAPE    HX17472   5.071   2.046   6.593 -0.3715 -0.7905 -0.2190
  157SAPE    HY17473   4.900   2.011   6.583 -0.6042  0.3803 -0.0502
  157SAPE   O3117474   4.962   2.084   6.772 -0.4321  0.0956  0.2541
  157SAPE   C3117475   4.849   2.068   6.829  0.4176  0.6501  0.0844
  157SAPE   O3217476   4.744   2.046   6.765  0.2532  0.4823 -0.1028
  157SAPE   C3217477   4.867   2.073   6.980  0.1197  0.5498  0.8366
  157SAPE   H2X17478   4.925   1.990   7.027  0.2396  0.8565  1.2444
  157SAPE   H2Y17479   4.764   2.053   7.016  0.2495 -0.6748  0.5874
  157SAPE   C2317480   5.176   2.537   6.789 -0.2417  0.3617  0.1926
  157SAPE   H3R17481   5.094   2.542   6.865 -0.3291  0.9839  0.0621
  157SAPE   H3S17482   5.249   2.618   6.810 -1.6829  2.0277 -0.9758
  157SAPE   C2417483   5.260   2.405   6.835  0.0492  0.6643 -0.2953
  157SAPE   H4R17484   5.185   2.322   6.831 -0.9825  1.5615 -0.0295
  157SAPE   H4S17485   5.278   2.407   6.944  0.0342  1.1265 -0.3020
  157SAPE   C2517486   5.379   2.363   6.753  0.3207 -0.6255 -0.3552
  157SAPE   H5R17487   5.358   2.313   6.657 -1.4270 -1.7827  0.5877
  157SAPE   C2617488   5.507   2.380   6.789 -0.0076 -0.4900  0.0853
  157SAPE   H6R17489   5.592   2.342   6.730 -0.4652  2.7983 -3.0371
  157SAPE   C2717490   5.552   2.451   6.912  0.3745 -0.7825 -0.7093
  157SAPE   H7R17491   5.493   2.544   6.926  0.2560 -1.1721  1.7405
  157SAPE   H7S17492   5.655   2.485   6.891 -0.8306  3.6256 -0.5535
  157SAPE   C2817493   5.537   2.354   7.030  0.2260 -0.5100  0.2099
  157SAPE   H8R17494   5.525   2.248   7.003 -0.4901 -0.1749 -0.8285
  157SAPE   C2917495   5.522   2.385   7.165  0.9453 -0.6938 -0.6914
  157SAPE   H9R17496   5.495   2.303   7.234  0.0939  0.1905  0.0646
  157SAPE  C21017497   5.511   2.525   7.228  0.5056 -0.2605  0.5022
  157SAPE  H10R17498   5.441   2.587   7.169 -1.3115 -1.4908  1.2930
  157SAPE  H10S17499   5.611   2.570   7.210  0.5114 -0.8716 -1.1313
  157SAPE  C21117500   5.466   2.529   7.374 -0.2116  0.0690  0.3840
  157SAPE  H11R17501   5.423   2.431   7.403  0.7467 -0.5209 -0.1509
  157SAPE  C21217502   5.480   2.629   7.464  0.2647  0.2089 -0.1320
  157SAPE  H12R17503   5.437   2.616   7.565  0.2228  0.1516 -0.1569
  157SAPE  C21317504   5.538   2.770   7.436 -0.0010  0.0593 -0.2250
  157SAPE  H13R17505   5.459   2.846   7.455 -0.4989 -0.0224 -1.7850
  157SAPE  H13S17506   5.561   2.778   7.327 -1.0377 -1.3970 -0.5855
  157SAPE  C21417507   5.667   2.796   7.512 -0.2445 -0.2616  0.0486
  157SAPE  H14R17508   5.759   2.791   7.453  0.9039 -0.7308  1.8020
  157SAPE  C21517509   5.684   2.827   7.646 -0.2384  0.7209  0.0121
  157SAPE  H15R17510   5.787   2.850   7.675 -0.3928 -0.4148  1.5798
  157SAPE  C21617511   5.573   2.842   7.744 -0.0007  0.4962 -0.9625
  157SAPE  H16R17512   5.603   2.795   7.841  1.0920  1.5370 -0.7681
  157SAPE  H16S17513   5.477   2.803   7.706 -0.4456 -0.4831  1.0037
  157SAPE  C21717514   5.547   2.988   7.783  0.8784 -0.4967 -0.1467
  157SAPE  H17R17515   5.494   3.024   7.692 -2.1833 -1.9365  0.9054
  157SAPE  H17S17516   5.637   3.051   7.799  1.6715 -1.9001  1.1118
  157SAPE  C21817517   5.448   2.995   7.908  0.1293 -0.6714 -0.0229
  157SAPE  H18R17518   5.495   2.950   7.998  2.2620  2.3814  0.5323
  157SAPE  H18S17519   5.351   2.948   7.880 -1.1281  0.7301  1.7309
  157SAPE  C21917520   5.424   3.142   7.953  0.5883  1.1336 -1.0673
  157SAPE  H19R17521   5.425   3.206   7.861 -0.7317 -0.4624 -2.2595
  157SAPE  H19S17522   5.506   3.178   8.019  0.2448  1.3718 -0.7679
  157SAPE  C22017523   5.291   3.145   8.032  0.1405  0.4535  0.5907
  157SAPE  H20R17524   5.288   3.235   8.097 -0.6577  1.2951 -0.5595
  157SAPE  H20S17525   5.285   3.054   8.095  1.3346  0.3174  0.5184
  157SAPE  H20T17526   5.212   3.134   7.954  0.6561  0.3852  0.0696
  157SAPE   C3317527   4.896   2.212   7.034 -0.7953 -0.2593 -0.2825
  157SAPE   H3X17528   4.812   2.284   7.046 -2.0441 -1.2666 -2.4900
  157SAPE   H3Y17529   4.976   2.263   6.976 -1.5489  0.8163 -0.4022
  157SAPE   C3417530   4.969   2.217   7.173  0.0070 -0.4415  0.1529
  157SAPE   H4X17531   5.058   2.151   7.176  0.9636  0.7802 -0.0516
  157SAPE   H4Y17532   4.905   2.190   7.260 -1.7370  1.4522 -0.4483
  157SAPE   C3517533   5.038   2.349   7.205 -0.3151 -0.2690  0.0152
  157SAPE   H5X17534   4.981   2.442   7.226 -0.0081 -0.2727  0.9195
  157SAPE   H5Y17535   5.113   2.373   7.127  0.2112 -0.8872  0.3164
  157SAPE   C3617536   5.124   2.345   7.333 -0.0336  0.4776  0.5524
  157SAPE   H6X17537   5.204   2.421   7.323  1.9207 -1.5526  0.0543
  157SAPE   H6Y17538   5.164   2.241   7.332 -1.0039  0.0899 -0.4743
  157SAPE   C3717539   5.044   2.355   7.458 -0.0304  0.1804  0.3769
  157SAPE   H7X17540   4.962   2.281   7.453 -0.0843  0.2705 -0.0855
  157SAPE   H7Y17541   4.994   2.454   7.451 -0.8311 -0.3414 -2.1598
  157SAPE   C3817542   5.119   2.328   7.592 -0.5817 -0.6368  0.5305
  157SAPE   H8X17543   5.184   2.407   7.635 -2.8518  0.8011  1.4726
  157SAPE   H8Y17544   5.184   2.239   7.576  0.4589  0.3654 -1.1728
  157SAPE   C3917545   5.024   2.284   7.709  0.0322 -0.6258  0.6126
  157SAPE   H9X17546   4.957   2.203   7.673 -0.1860 -0.4178  0.5553
  157SAPE   H9Y17547   4.961   2.371   7.736  1.0921  0.2429  0.3658
  157SAPE  C31017548   5.086   2.227   7.835 -0.4120 -0.5615  0.7701
  157SAPE  H10X17549   5.133   2.132   7.804  0.9469  0.1122  0.6705
  157SAPE  H10Y17550   5.000   2.195   7.898  0.3180 -1.1188  1.5142
  157SAPE  C31117551   5.180   2.318   7.909 -0.7180 -0.5584  0.1850
  157SAPE  H11X17552   5.271   2.352   7.854 -1.2205  0.8360  0.1685
  157SAPE  H11Y17553   5.215   2.256   7.994  0.8002 -0.0795 -0.0490
  157SAPE  C31217554   5.116   2.438   7.968 -0.2243  0.0033 -1.0363
  157SAPE  H12X17555   5.008   2.423   7.987 -0.8898  2.0034 -2.8764
  157SAPE  H12Y17556   5.125   2.516   7.890  0.6074 -1.0816 -2.0581
  157SAPE  C31317557   5.193   2.484   8.097 -0.4890  0.0921 -0.0972
  157SAPE  H13X17558   5.297   2.452   8.077 -0.2519  1.3543 -0.9498
  157SAPE  H13Y17559   5.171   2.413   8.180 -0.1031  1.5433  1.3052
  157SAPE  C31417560   5.177   2.631   8.142  0.2341 -0.1033 -1.1284
  157SAPE  H14X17561   5.073   2.656   8.170  1.1352  3.0212 -0.1741
  157SAPE  H14Y17562   5.201   2.702   8.060  2.8481  0.7605  0.2520
  157SAPE  C31517563   5.263   2.670   8.262  0.1986  0.5413 -0.2709
  157SAPE  H15X17564   5.366   2.644   8.229  0.6745  0.8189  0.9076
  157SAPE  H15Y17565   5.233   2.616   8.355 -0.5361 -0.5820 -1.1479
  157SAPE  C31617566   5.263   2.822   8.301  0.5660 -0.3573  0.1110
  157SAPE  H16X17567   5.155   2.843   8.314  0.7303  0.0376  0.9375
  157SAPE  H16Y17568   5.310   2.877   8.216  1.1323 -1.5419 -0.3718
  157SAPE  C31717569   5.336   2.856   8.432 -0.2485  0.5300  0.1678
  157SAPE  H17X17570   5.441   2.865   8.399 -0.0333 -0.9318  0.4039
  157SAPE  H17Y17571   5.327   2.767   8.497 -0.9200 -0.4612 -1.2204
  157SAPE  C31817572   5.267   2.974   8.494 -0.3086 -0.2708 -0.2370
  157SAPE  H18X17573   5.166   2.946   8.532 -0.3418 -0.3244 -0.3638
  157SAPE  H18Y17574   5.255   3.046   8.410  0.7805  0.5146  0.2545
  157SAPE  H18Z17575   5.313   3.020   8.584 -2.8353 -1.7276  1.9774
  158SAPE     N17576   6.683   0.063   6.299  0.3065 -0.1220 -0.4948
  158SAPE   HN117577   6.774   0.035   6.258  0.9984  1.4212 -0.0918
  158SAPE   HN217578   6.617   0.073   6.220  0.6845 -0.2413 -0.8260
  158SAPE   HN317579   6.691   0.149   6.358 -1.9292 -0.2860  0.1746
  158SAPE   C1217580   6.641  -0.045   6.386 -0.3707  0.1769 -0.1129
  158SAPE  H12A17581   6.546  -0.019   6.437 -1.3607 -1.6229 -0.9465
  158SAPE  H12B17582   6.726  -0.051   6.458  0.4235  0.3530 -1.0166
  158SAPE   C1117583   6.621  -0.169   6.314 -0.0196 -0.4653  0.6974
  158SAPE  H11A17584   6.529  -0.162   6.251  0.9032  0.1356 -0.6274
  158SAPE  H11B17585   6.590  -0.248   6.386 -1.5227  0.5988  1.2744
  158SAPE     P17586   6.818  -0.326   6.230  0.3777  0.3371  0.2517
  158SAPE   O1317587   6.734  -0.445   6.222  0.2954  0.1691  0.0078
  158SAPE   O1417588   6.915  -0.315   6.122  0.1264 -0.1339  0.1649
  158SAPE   O1217589   6.733  -0.201   6.235  0.3676  0.2554  0.1029
  158SAPE   O1117590   6.895  -0.333   6.373  0.0893  0.2820 -0.1107
  158SAPE    C117591   6.822  -0.337   6.499 -0.1474 -0.2558 -0.9937
  158SAPE    HA17592   6.797  -0.237   6.539 -0.9165 -0.3206 -1.3066
  158SAPE    HB17593   6.729  -0.397   6.507  0.9561 -1.9598 -0.0915
  158SAPE    C217594   6.922  -0.387   6.611  0.3341  0.1402 -0.3280
  158SAPE    HS17595   6.876  -0.389   6.712  1.9323  0.3231  0.4338
  158SAPE   O2117596   7.043  -0.314   6.599  0.0206  0.5998  0.3044
  158SAPE   C2117597   7.054  -0.223   6.683 -0.0674 -0.0781  0.3693
  158SAPE   O2217598   6.963  -0.182   6.760  0.0762  0.1420  0.1874
  158SAPE   C2217599   7.197  -0.167   6.680 -0.6465  0.2664 -0.2360
  158SAPE   H2R17600   7.268  -0.250   6.656  0.0626  0.6468  0.5069
  158SAPE   H2S17601   7.215  -0.104   6.591 -0.6852  2.2830  1.1336
  158SAPE    C317602   6.956  -0.536   6.577 -0.3997  0.4012 -0.0545
  158SAPE    HX17603   7.011  -0.532   6.481  0.6248  1.2484  0.5485
  158SAPE    HY17604   6.868  -0.601   6.556  0.1303  0.3008 -2.1384
  158SAPE   O3117605   7.030  -0.604   6.681  0.7140 -0.7411 -0.6461
  158SAPE   C3117606   7.161  -0.613   6.670 -0.2341  0.0823 -0.6950
  158SAPE   O3217607   7.225  -0.560   6.582 -0.2352  0.6202 -0.1095
  158SAPE   C3217608   7.224  -0.706   6.780  0.3944 -0.3901 -0.6571
  158SAPE   H2X17609   7.332  -0.695   6.758  0.2007  1.5179 -0.8251
  158SAPE   H2Y17610   7.199  -0.810   6.752  0.1281 -0.4531 -0.2013
  158SAPE   C2317611   7.232  -0.100   6.808  0.0993  0.0408 -0.8838
  158SAPE   H3R17612   7.151  -0.031   6.840 -0.2960 -1.2516  1.0628
  158SAPE   H3S17613   7.335  -0.059   6.796  0.5462 -0.8119 -0.0223
  158SAPE   C2417614   7.258  -0.200   6.921 -0.4709 -0.2785 -0.5771
  158SAPE   H4R17615   7.320  -0.288   6.891  1.4155  1.3757 -1.8319
  158SAPE   H4S17616   7.165  -0.250   6.953  0.0092  0.1051  1.5739
  158SAPE   C2517617   7.320  -0.124   7.041  0.7517  0.0526 -0.4826
  158SAPE   H5R17618   7.423  -0.091   7.019  1.3577 -2.9632 -2.8644
  158SAPE   C2617619   7.255  -0.092   7.161  0.2451 -0.5483 -0.3912
  158SAPE   H6R17620   7.322  -0.047   7.236  1.0192 -1.5931 -0.4341
  158SAPE   C2717621   7.115  -0.112   7.212 -0.3692 -0.5051  0.2658
  158SAPE   H7R17622   7.119  -0.131   7.322  2.3656  2.3772  0.8226
  158SAPE   H7S17623   7.073  -0.207   7.173 -0.8654 -0.6772  1.1845
  158SAPE   C2817624   7.010  -0.006   7.181 -0.2982 -0.3686  0.3981
  158SAPE   H8R17625   6.995  -0.009   7.072 -1.0907 -2.4761  0.5240
  158SAPE   C2917626   6.950   0.078   7.271  0.1462 -0.2145 -0.0657
  158SAPE   H9R17627   6.887   0.160   7.234 -0.0274 -0.4705 -0.3490
  158SAPE  C21017628   6.981   0.075   7.416 -0.2125  0.1820  0.1050
  158SAPE  H10R17629   6.929   0.154   7.475 -1.6683 -1.7175  1.5123
  158SAPE  H10S17630   7.091   0.088   7.424 -0.0232 -0.5570 -1.1017
  158SAPE  C21117631   6.913  -0.037   7.484 -0.8586 -0.3582  0.9547
  158SAPE  H11R17632   6.851  -0.102   7.420 -0.7975  1.0594 -0.5952
  158SAPE  C21217633   6.944  -0.079   7.608  0.0849  0.3131  0.0567
  158SAPE  H12R17634   6.898  -0.173   7.643 -0.5333  0.4174 -0.4602
  158SAPE  C21317635   7.041  -0.001   7.695  0.2448 -0.8359 -0.3633
  158SAPE  H13R17636   7.034   0.106   7.668 -1.3611 -1.1451 -1.2723
  158SAPE  H13S17637   7.143  -0.033   7.663 -0.2367 -1.1543 -1.6109
  158SAPE  C21417638   7.025  -0.007   7.844  0.7212 -0.3131  0.1160
  158SAPE  H14R17639   6.952   0.063   7.886 -1.0286 -0.8109 -1.9112
  158SAPE  C21517640   7.074  -0.110   7.916 -0.3601 -0.2811  0.4849
  158SAPE  H15R17641   7.061  -0.098   8.024 -2.4270  1.0648  0.1526
  158SAPE  C21617642   7.151  -0.235   7.869  0.5343 -1.1072 -0.3577
  158SAPE  H16R17643   7.260  -0.218   7.874  0.2164  1.4604 -0.8160
  158SAPE  H16S17644   7.139  -0.255   7.760  1.6590 -0.4253 -0.6186
  158SAPE  C21717645   7.100  -0.356   7.939  0.3691  0.8724 -0.7859
  158SAPE  H17R17646   7.155  -0.441   7.894  0.8598  0.3534  0.7396
  158SAPE  H17S17647   6.994  -0.375   7.912 -0.3618 -1.3466  2.8790
  158SAPE  C21817648   7.112  -0.358   8.095 -0.3607 -0.2063 -0.2312
  158SAPE  H18R17649   7.038  -0.287   8.138 -0.2601 -0.0191 -0.3665
  158SAPE  H18S17650   7.213  -0.332   8.134  0.2625 -1.4303 -0.9798
  158SAPE  C21917651   7.068  -0.488   8.154  0.1700  0.0804  0.0424
  158SAPE  H19R17652   6.961  -0.517   8.145  0.1524 -0.1472  0.9099
  158SAPE  H19S17653   7.076  -0.476   8.264  1.2050 -0.6032  0.0639
  158SAPE  C22017654   7.157  -0.610   8.120 -0.7666 -0.1440 -0.6030
  158SAPE  H20R17655   7.154  -0.683   8.203  0.7865  0.1226 -0.2805
  158SAPE  H20S17656   7.264  -0.583   8.107 -0.7405  0.7272  1.1502
  158SAPE  H20T17657   7.123  -0.673   8.035 -1.8509 -4.2726  2.5446
  158SAPE   C3317658   7.184  -0.668   6.931 -0.5007 -0.0144  0.1483
  158SAPE   H3X17659   7.077  -0.636   6.937  0.1941  2.2820  2.3341
  158SAPE   H3Y17660   7.248  -0.581   6.956 -0.6873 -0.0080  0.6207
  158SAPE   C3417661   7.216  -0.774   7.033  0.5625  0.0092  0.3288
  158SAPE   H4X17662   7.313  -0.820   7.005  0.2250 -1.1976  1.0387
  158SAPE   H4Y17663   7.141  -0.857   7.038  0.5320  0.1214  3.7952
  158SAPE   C3517664   7.212  -0.731   7.182 -0.7199 -0.0123  0.3716
  158SAPE   H5X17665   7.105  -0.710   7.202 -0.9548  0.0468 -0.8383
  158SAPE   H5Y17666   7.277  -0.642   7.192 -1.3644  0.3791  1.2354
  158SAPE   C3617667   7.270  -0.836   7.279  0.5512 -0.0893 -0.8664
  158SAPE   H6X17668   7.378  -0.853   7.258  1.4099  0.0547  2.6782
  158SAPE   H6Y17669   7.212  -0.927   7.254  1.4728 -1.0804  0.4369
  158SAPE   C3717670   7.249  -0.811   7.424  0.3994 -0.6773  0.6978
  158SAPE   H7X17671   7.141  -0.815   7.451  0.5545 -0.0938  1.4332
  158SAPE   H7Y17672   7.288  -0.898   7.481  1.0605 -0.1345  1.0888
  158SAPE   C3817673   7.314  -0.681   7.465 -0.2879  0.1373  0.2369
  158SAPE   H8X17674   7.279  -0.600   7.398  2.8534  0.6269 -0.9561
  158SAPE   H8Y17675   7.424  -0.673   7.457 -0.2681  1.7190  1.6410
  158SAPE   C3917676   7.271  -0.641   7.609 -0.0767 -0.3601 -0.0058
  158SAPE   H9X17677   7.164  -0.613   7.613  0.3615  1.4075  0.3952
  158SAPE   H9Y17678   7.327  -0.547   7.630 -0.3516 -0.2096  0.0463
  158SAPE  C31017679   7.306  -0.738   7.722  0.3369 -0.0374 -0.7359
  158SAPE  H10X17680   7.241  -0.824   7.695  1.5399 -1.5368  0.9264
  158SAPE  H10Y17681   7.265  -0.691   7.814  2.6714 -0.2496  0.4883
  158SAPE  C31117682   7.453  -0.778   7.742  0.0618 -0.3999 -0.5059
  158SAPE  H11X17683   7.513  -0.693   7.782  1.9395 -1.2751 -1.3030
  158SAPE  H11Y17684   7.493  -0.815   7.645 -1.8024 -2.9301 -0.4199
  158SAPE  C31217685   7.464  -0.898   7.845  0.0922 -0.3476 -0.2460
  158SAPE  H12X17686   7.573  -0.907   7.861  0.0552 -0.6573 -0.1638
  158SAPE  H12Y17687   7.428  -0.992   7.797  1.9109 -1.8556  1.2107
  158SAPE  C31317688   7.381  -0.876   7.971  0.3322 -0.7141 -0.3797
  158SAPE  H13X17689   7.272  -0.884   7.954 -0.4468  1.5300  2.6785
  158SAPE  H13Y17690   7.396  -0.768   7.993  0.2445 -0.5390 -1.1459
  158SAPE  C31417691   7.413  -0.950   8.103  0.3279 -0.1576  0.2808
  158SAPE  H14X17692   7.521  -0.978   8.106  0.4022  0.1809  0.9302
  158SAPE  H14Y17693   7.359  -1.047   8.109 -0.2176  0.1619  0.5719
  158SAPE  C31517694   7.366  -0.863   8.223  0.2482  0.6030  0.4312
  158SAPE  H15X17695   7.256  -0.872   8.221  0.3957 -1.9301 -1.1115
  158SAPE  H15Y17696   7.397  -0.757   8.209 -1.9502  1.0239 -2.2360
  158SAPE  C31617697   7.422  -0.917   8.359  0.1719  0.0334 -0.4110
  158SAPE  H16X17698   7.426  -0.831   8.429  1.4747  0.1494 -0.6068
  158SAPE  H16Y17699   7.530  -0.941   8.343  0.6488  1.6889  0.1557
  158SAPE  C31717700   7.340  -1.037   8.413  0.0852  0.2868  0.2747
  158SAPE  H17X17701   7.339  -1.122   8.340 -0.0296 -0.3839  1.0488
  158SAPE  H17Y17702   7.232  -1.012   8.423 -0.1819 -0.9214  0.5516
  158SAPE  C31817703   7.395  -1.091   8.548  0.2376 -0.0889  0.4772
  158SAPE  H18X17704   7.376  -1.009   8.621 -1.6037 -0.4451  0.4429
  158SAPE  H18Y17705   7.502  -1.120   8.542  0.0586 -0.5554 -0.7038
  158SAPE  H18Z17706   7.330  -1.178   8.573  1.5862 -0.9885  0.9280
  159SAPE     N17707   5.308   2.873   6.012 -0.4336  0.4853  0.0109
  159SAPE   HN117708   5.357   2.929   5.939 -1.0368 -0.6071 -1.2662
  159SAPE   HN217709   5.342   2.776   6.022 -2.6573 -0.2934  0.7730
  159SAPE   HN317710   5.206   2.882   5.990 -1.0211  2.2462  2.8123
  159SAPE   C1217711   5.302   2.942   6.150 -0.3182  0.0525 -0.6260
  159SAPE  H12A17712   5.235   2.884   6.217 -0.2418 -0.0116 -0.6054
  159SAPE  H12B17713   5.248   3.037   6.129 -1.7828 -0.7656 -0.6568
  159SAPE   C1117714   5.441   2.981   6.203  0.0991 -0.4030  0.4185
  159SAPE  H11A17715   5.503   2.891   6.223  0.9376 -0.1222 -0.8070
  159SAPE  H11B17716   5.410   3.015   6.305 -2.2576 -0.3238 -0.2727
  159SAPE     P17717   5.663   3.072   6.116 -0.0076  0.5396  0.5683
  159SAPE   O1317718   5.701   2.932   6.069  0.7367 -0.1543  0.1841
  159SAPE   O1417719   5.728   3.185   6.038 -0.0836  0.0392  0.2092
  159SAPE   O1217720   5.505   3.086   6.126 -0.1538  0.4905 -0.2977
  159SAPE   O1117721   5.713   3.082   6.261 -0.2797 -0.6727  0.1790
  159SAPE    C117722   5.770   3.210   6.316  0.8759 -0.0421 -0.3319
  159SAPE    HA17723   5.754   3.293   6.245 -0.3494  0.3749  0.3993
  159SAPE    HB17724   5.727   3.231   6.416  0.1348 -0.7169 -0.4907
  159SAPE    C217725   5.914   3.181   6.347  0.0561 -0.0036 -0.2457
  159SAPE    HS17726   5.967   3.171   6.250 -3.0642  2.1035 -2.3646
  159SAPE   O2117727   5.920   3.058   6.421  0.0007  0.1751  0.1031
  159SAPE   C2117728   6.016   2.974   6.381 -0.3031  0.7602  0.1677
  159SAPE   O2217729   6.086   2.990   6.279  0.0272 -0.3539  0.1287
  159SAPE   C2217730   6.034   2.865   6.491 -0.4302  0.0294 -0.1293
  159SAPE   H2R17731   6.052   2.910   6.591 -1.2919  0.3909 -0.1279
  159SAPE   H2S17732   5.935   2.815   6.503 -0.5166  0.0601 -0.6639
  159SAPE    C317733   5.978   3.300   6.429  0.0581  0.1080  0.0742
  159SAPE    HX17734   5.961   3.387   6.362 -1.6188 -0.9931 -1.0001
  159SAPE    HY17735   6.084   3.276   6.453 -0.1166 -1.2100 -0.3735
  159SAPE   O3117736   5.903   3.330   6.542 -0.1355 -0.1873  0.3091
  159SAPE   C3117737   5.968   3.401   6.633 -0.5139 -0.4075  0.2661
  159SAPE   O3217738   6.081   3.451   6.619 -0.1865  0.5526  0.0702
  159SAPE   C3217739   5.894   3.401   6.767 -0.6873  0.0878 -0.3000
  159SAPE   H2X17740   5.809   3.472   6.764  0.1196  1.2611  1.9526
  159SAPE   H2Y17741   5.973   3.430   6.840 -0.5264  2.9190 -1.4856
  159SAPE   C2317742   6.138   2.758   6.444 -0.3725  0.3277  0.2352
  159SAPE   H3R17743   6.235   2.809   6.427  0.4087 -1.2593 -0.2605
  159SAPE   H3S17744   6.107   2.718   6.345  0.3055 -0.1792  0.2148
  159SAPE   C2417745   6.161   2.640   6.534 -0.2074 -0.1207 -0.7156
  159SAPE   H4R17746   6.241   2.579   6.486  0.6149  3.0098 -3.8029
  159SAPE   H4S17747   6.069   2.578   6.541 -0.6218  0.5458 -0.2214
  159SAPE   C2517748   6.199   2.690   6.679  0.2188 -0.6444 -0.0238
  159SAPE   H5R17749   6.295   2.743   6.686 -1.1936  1.8939  1.2334
  159SAPE   C2617750   6.138   2.655   6.790  0.0743  0.3009  0.5161
  159SAPE   H6R17751   6.202   2.650   6.879  1.9170 -2.1826 -0.8441
  159SAPE   C2717752   6.012   2.569   6.797  0.2735 -0.1289  0.2502
  159SAPE   H7R17753   6.062   2.471   6.814 -1.8629 -0.9337  2.4100
  159SAPE   H7S17754   5.950   2.563   6.705  1.2658  0.8532 -0.5103
  159SAPE   C2817755   5.912   2.606   6.908 -0.8251  0.6574 -0.4464
  159SAPE   H8R17756   5.830   2.671   6.876 -1.8474 -0.2953  0.1583
  159SAPE   C2917757   5.914   2.564   7.030  0.3556 -0.0507 -0.9923
  159SAPE   H9R17758   5.822   2.561   7.090  0.0365  0.7063 -1.4253
  159SAPE  C21017759   6.021   2.475   7.096  0.2064  0.0942 -0.3422
  159SAPE  H10R17760   6.095   2.431   7.026  0.8943  0.7180 -0.0267
  159SAPE  H10S17761   5.959   2.403   7.154 -1.0073  1.6137  0.3309
  159SAPE  C21117762   6.115   2.549   7.193 -0.4021 -0.2296  0.4900
  159SAPE  H11R17763   6.186   2.614   7.140  0.4961  0.9851  3.0244
  159SAPE  C21217764   6.123   2.536   7.327 -0.1631 -0.0816 -0.0186
  159SAPE  H12R17765   6.193   2.598   7.384  2.2025 -1.9233 -0.7339
  159SAPE  C21317766   6.033   2.455   7.413 -0.5645 -0.0735  0.8790
  159SAPE  H13R17767   6.094   2.391   7.481 -1.1868 -0.0405  1.4724
  159SAPE  H13S17768   5.967   2.385   7.358  1.4571 -1.2702 -0.1802
  159SAPE  C21417769   5.951   2.545   7.503  0.0592  0.7104  0.3249
  159SAPE  H14R17770   5.868   2.596   7.453  1.3210  1.1580 -1.4333
  159SAPE  C21517771   5.953   2.572   7.640 -1.0627 -0.4647 -0.1576
  159SAPE  H15R17772   5.893   2.657   7.677 -2.3385 -0.7185 -1.5449
  159SAPE  C21617773   6.067   2.531   7.734 -0.0874 -0.0355  0.6037
  159SAPE  H16R17774   6.134   2.465   7.676  1.5475 -0.1983  2.5717
  159SAPE  H16S17775   6.024   2.479   7.822 -0.6272 -2.5690 -1.0711
  159SAPE  C21717776   6.153   2.654   7.763  0.0684  0.1730  0.6906
  159SAPE  H17R17777   6.109   2.717   7.843 -0.4720  0.0847  0.4691
  159SAPE  H17S17778   6.166   2.707   7.667 -1.5908 -1.6616 -0.6214
  159SAPE  C21817779   6.294   2.616   7.798  0.1715  0.4628 -0.4971
  159SAPE  H18R17780   6.364   2.702   7.789  1.1364 -0.2860 -0.2547
  159SAPE  H18S17781   6.329   2.536   7.729  1.7435 -0.0994  0.8988
  159SAPE  C21917782   6.307   2.574   7.942  0.7711 -0.0026 -0.1554
  159SAPE  H19R17783   6.246   2.483   7.958  1.1610 -0.3332 -0.5139
  159SAPE  H19S17784   6.265   2.660   7.999 -0.8984 -0.4058 -0.7247
  159SAPE  C22017785   6.452   2.546   7.982  0.1377 -0.3561  0.6487
  159SAPE  H20R17786   6.509   2.471   7.922 -0.1243  0.0431 -0.1217
  159SAPE  H20S17787   6.435   2.509   8.085 -2.9130 -1.3231 -0.0998
  159SAPE  H20T17788   6.516   2.637   7.977  1.4678 -1.2351  1.1038
  159SAPE   C3317789   5.833   3.264   6.791  0.0736  0.5142 -0.2364
  159SAPE   H3X17790   5.908   3.187   6.765 -1.7962 -0.3498 -3.7065
  159SAPE   H3Y17791   5.747   3.253   6.721 -1.4793  1.9277  1.3094
  159SAPE   C3417792   5.791   3.251   6.937  0.1726  0.3881  0.0688
  159SAPE   H4X17793   5.735   3.342   6.967  0.0554 -0.1671  1.6182
  159SAPE   H4Y17794   5.880   3.243   7.003  1.1806  3.0708 -0.8491
  159SAPE   C3517795   5.692   3.134   6.954 -0.2666 -0.1653  0.7801
  159SAPE   H5X17796   5.711   3.035   6.907 -0.6401  0.3107 -0.4350
  159SAPE   H5Y17797   5.592   3.160   6.914 -0.6188 -0.8576  1.2075
  159SAPE   C3617798   5.676   3.105   7.102  0.3920  0.0450 -0.0296
  159SAPE   H6X17799   5.771   3.060   7.136 -0.3526 -2.2766 -0.7963
  159SAPE   H6Y17800   5.595   3.031   7.120  0.4186  0.3506  1.4433
  159SAPE   C3717801   5.636   3.235   7.184 -0.2042  0.5719 -0.0820
  159SAPE   H7X17802   5.546   3.280   7.137 -0.7508  1.3135  1.6000
  159SAPE   H7Y17803   5.725   3.298   7.202  1.4883 -1.8040  0.3438
  159SAPE   C3817804   5.595   3.183   7.320 -0.1786  0.0938 -0.7135
  159SAPE   H8X17805   5.686   3.149   7.374 -1.3658 -2.3764 -0.1306
  159SAPE   H8Y17806   5.523   3.098   7.321 -0.6719  0.4591  1.5167
  159SAPE   C3917807   5.535   3.285   7.415 -0.0037 -0.3731 -0.0546
  159SAPE   H9X17808   5.612   3.359   7.447  0.0916  0.2042 -1.5320
  159SAPE   H9Y17809   5.516   3.228   7.509  1.0830  1.2925  1.2378
  159SAPE  C31017810   5.420   3.372   7.358 -0.0304  0.9024 -0.1804
  159SAPE  H10X17811   5.335   3.309   7.325  0.6308 -0.7745  1.1279
  159SAPE  H10Y17812   5.449   3.446   7.281 -2.3144  2.1355  0.0680
  159SAPE  C31117813   5.359   3.463   7.468  0.2442  0.8335  0.3694
  159SAPE  H11X17814   5.269   3.514   7.425  0.9308  1.6322 -0.1539
  159SAPE  H11Y17815   5.432   3.544   7.489  0.8869  0.4983 -0.5163
  159SAPE  C31217816   5.332   3.395   7.606  0.1495 -0.2610 -0.8098
  159SAPE  H12X17817   5.420   3.364   7.667  0.1310 -1.3417 -1.3139
  159SAPE  H12Y17818   5.272   3.305   7.582  0.8235 -2.1340  3.4818
  159SAPE  C31317819   5.238   3.490   7.687  0.3096 -0.1737  0.4093
  159SAPE  H13X17820   5.146   3.496   7.624  0.8101 -1.0209 -0.4328
  159SAPE  H13Y17821   5.285   3.590   7.703 -1.6044  0.4430  2.7488
  159SAPE  C31417822   5.200   3.435   7.817  0.3274  0.0920  0.5855
  159SAPE  H14X17823   5.289   3.446   7.881  1.2388  0.1420 -0.6514
  159SAPE  H14Y17824   5.198   3.325   7.799  1.9027  0.2008 -0.4808
  159SAPE  C31517825   5.074   3.504   7.872 -0.3339 -0.0639 -0.9357
  159SAPE  H15X17826   4.990   3.474   7.807 -1.3685  4.6823 -2.1348
  159SAPE  H15Y17827   5.077   3.612   7.849  1.4449 -0.4385 -2.7853
  159SAPE  C31617828   5.058   3.470   8.025 -0.1873 -0.2058 -0.0366
  159SAPE  H16X17829   5.155   3.458   8.077  1.3682 -0.9266 -2.8880
  159SAPE  H16Y17830   5.026   3.364   8.011 -0.5458 -0.1934  0.6748
  159SAPE  C31717831   4.959   3.556   8.101 -0.8888  0.1960  0.4683
  159SAPE  H17X17832   4.865   3.580   8.047 -0.2597 -0.0214 -0.7610
  159SAPE  H17Y17833   5.005   3.656   8.114  3.3909 -1.7478  2.2416
  159SAPE  C31817834   4.912   3.491   8.228 -0.0839 -0.8927 -0.9825
  159SAPE  H18X17835   4.830   3.419   8.208 -1.6363  0.5547 -0.1389
  159SAPE  H18Y17836   4.859   3.561   8.296  2.5969  0.6467 -0.3534
  159SAPE  H18Z17837   4.993   3.455   8.294  1.9913  0.2882 -2.7690
  160SAPE     N17838   1.440   1.304   6.597 -0.4364  0.3919 -0.0452
  160SAPE   HN117839   1.365   1.319   6.667  0.1389  0.4527  0.5652
  160SAPE   HN217840   1.532   1.282   6.640 -0.4801  1.1369  0.4475
  160SAPE   HN317841   1.448   1.401   6.561  0.7065  0.5823  0.6734
  160SAPE   C1217842   1.399   1.196   6.506  0.0529  0.7054  0.0028
  160SAPE  H12A17843   1.304   1.239   6.467  1.0329  1.9660 -1.0877
  160SAPE  H12B17844   1.378   1.102   6.561 -0.1306 -0.8715 -2.5848
  160SAPE   C1117845   1.493   1.159   6.399  0.4135  0.2042  1.1185
  160SAPE  H11A17846   1.593   1.124   6.433  0.6716 -0.5852 -0.3484
  160SAPE  H11B17847   1.513   1.246   6.333 -4.1380  0.3640 -0.3981
  160SAPE     P17848   1.307   1.051   6.244 -0.0139  0.0896  0.7898
  160SAPE   O1317849   1.288   1.185   6.185  0.6284  0.0127  0.0967
  160SAPE   O1417850   1.318   0.940   6.150  0.0002  0.0912  0.0422
  160SAPE   O1217851   1.438   1.051   6.322 -0.1400  0.1476 -0.5190
  160SAPE   O1117852   1.195   1.024   6.356  0.1567 -0.2204 -0.3612
  160SAPE    C117853   1.205   0.912   6.445 -0.0461  0.1678 -0.1932
  160SAPE    HA17854   1.298   0.853   6.434 -0.2506 -0.0710 -0.7119
  160SAPE    HB17855   1.197   0.957   6.546 -1.3781 -0.6400  0.0966
  160SAPE    C217856   1.084   0.817   6.425  0.6514 -0.4614 -0.0582
  160SAPE    HS17857   1.083   0.783   6.319  0.9918 -0.9023  0.0767
  160SAPE   O2117858   0.959   0.884   6.459  0.2658 -0.5021 -0.2535
  160SAPE   C2117859   0.847   0.829   6.424  0.6725  0.3973 -0.5657
  160SAPE   O2217860   0.829   0.743   6.342 -0.4507  0.4704  0.3070
  160SAPE   C2217861   0.733   0.892   6.510  0.7377 -0.0519 -0.2142
  160SAPE   H2R17862   0.762   0.993   6.548 -2.0811  0.7113  0.1359
  160SAPE   H2S17863   0.649   0.926   6.445 -0.1837  2.0846  1.9194
  160SAPE    C317864   1.097   0.673   6.492 -0.2820 -0.7268  0.0582
  160SAPE    HX17865   1.195   0.626   6.470 -0.4943 -1.6744  1.0709
  160SAPE    HY17866   1.027   0.602   6.442 -0.8791 -1.2493  1.5779
  160SAPE   O3117867   1.079   0.671   6.639 -0.9357  0.0086 -0.0288
  160SAPE   C3117868   1.188   0.680   6.709 -0.1554 -0.5127  0.3716
  160SAPE   O3217869   1.303   0.676   6.665 -0.8085  0.5522  0.5149
  160SAPE   C3217870   1.164   0.718   6.859 -0.0107 -0.0658  0.0066
  160SAPE   H2X17871   1.053   0.710   6.864 -0.0883 -1.0829 -2.2728
  160SAPE   H2Y17872   1.188   0.826   6.855 -1.0799  0.2611  1.4201
  160SAPE   C2317873   0.688   0.782   6.610 -0.5899 -0.5495 -0.5602
  160SAPE   H3R17874   0.695   0.681   6.565 -0.5600 -1.5937  1.6465
  160SAPE   H3S17875   0.578   0.790   6.624 -0.5921  0.0993 -0.8986
  160SAPE   C2417876   0.767   0.788   6.744 -0.0547 -0.1532 -0.1784
  160SAPE   H4R17877   0.721   0.882   6.781 -2.2420 -1.0980 -0.3219
  160SAPE   H4S17878   0.874   0.807   6.720 -0.3402  0.6362 -0.8611
  160SAPE   C2517879   0.751   0.660   6.831  0.1907 -0.1044  0.2433
  160SAPE   H5R17880   0.736   0.570   6.769  0.1239  0.3719 -0.4379
  160SAPE   C2617881   0.755   0.654   6.965 -0.5519  0.1126  0.7393
  160SAPE   H6R17882   0.754   0.557   7.015  1.0552  0.5433  1.6843
  160SAPE   C2717883   0.786   0.766   7.054  0.0978 -0.6361  0.1035
  160SAPE   H7R17884   0.787   0.868   7.009  0.9572 -0.0650  1.3828
  160SAPE   H7S17885   0.890   0.747   7.087  0.9527  1.4165 -1.2028
  160SAPE   C2817886   0.689   0.779   7.168  0.3927 -0.1584 -0.3968
  160SAPE   H8R17887   0.589   0.818   7.144  1.3904  2.3262 -0.8790
  160SAPE   C2917888   0.717   0.772   7.301  0.2320  0.6054  0.5328
  160SAPE   H9R17889   0.631   0.784   7.369 -0.7632 -2.4104 -0.0409
  160SAPE  C21017890   0.848   0.739   7.364  0.0961  0.0555  0.0953
  160SAPE  H10R17891   0.871   0.804   7.451  0.4538  0.8731 -0.5977
  160SAPE  H10S17892   0.930   0.757   7.292 -0.3494  2.1440  0.0594
  160SAPE  C21117893   0.866   0.590   7.398 -0.2255  0.8642 -0.3670
  160SAPE  H11R17894   0.884   0.521   7.315 -2.7764  0.8611 -1.0243
  160SAPE  C21217895   0.849   0.531   7.520  0.0105 -0.4257 -0.2920
  160SAPE  H12R17896   0.874   0.425   7.535 -1.1467 -0.6608  0.0681
  160SAPE  C21317897   0.824   0.594   7.662  0.4715 -0.2624  1.0154
  160SAPE  H13R17898   0.733   0.550   7.709  0.4723  0.5141  1.7870
  160SAPE  H13S17899   0.793   0.699   7.643 -0.4570 -0.9957 -1.9731
  160SAPE  C21417900   0.952   0.594   7.738  0.0380 -0.0469 -0.2342
  160SAPE  H14R17901   1.043   0.635   7.690  0.8282 -2.4085 -0.8651
  160SAPE  C21517902   0.958   0.555   7.865  0.1619  0.2861 -0.1514
  160SAPE  H15R17903   1.053   0.542   7.919 -0.2624 -0.2301  0.4681
  160SAPE  C21617904   0.838   0.514   7.949  0.0358  0.4696 -0.0170
  160SAPE  H16R17905   0.793   0.419   7.910  0.2007  1.1634 -2.0172
  160SAPE  H16S17906   0.754   0.586   7.940 -0.2385  0.7663  3.5074
  160SAPE  C21717907   0.880   0.516   8.099 -0.1044 -0.8539  0.7607
  160SAPE  H17R17908   0.974   0.458   8.112  1.7005  1.8044  0.3248
  160SAPE  H17S17909   0.795   0.464   8.149 -0.7468 -1.1450 -0.5943
  160SAPE  C21817910   0.895   0.657   8.153 -0.7323 -0.2633 -0.8424
  160SAPE  H18R17911   0.837   0.742   8.112  0.4601  0.6357 -0.7121
  160SAPE  H18S17912   1.002   0.681   8.140 -0.5077 -1.5939 -1.6303
  160SAPE  C21917913   0.876   0.658   8.309 -0.0941  0.1139  0.4182
  160SAPE  H19R17914   0.778   0.608   8.321 -1.7866  3.0041 -0.4160
  160SAPE  H19S17915   0.871   0.759   8.353  2.0301  0.8800 -0.9312
  160SAPE  C22017916   0.979   0.593   8.392 -0.5762 -0.0661  0.4535
  160SAPE  H20R17917   1.066   0.661   8.405 -1.4281  1.2533 -0.4282
  160SAPE  H20S17918   1.012   0.502   8.340 -0.9779  1.1954 -2.1764
  160SAPE  H20T17919   0.932   0.575   8.492 -0.8014  0.7654  0.5096
  160SAPE   C3317920   1.257   0.653   6.969  0.1743  0.6433 -0.6283
  160SAPE   H3X17921   1.357   0.699   6.959  0.4212  0.7271  1.6675
  160SAPE   H3Y17922   1.263   0.542   6.956 -0.5900 -0.2060  4.2099
  160SAPE   C3417923   1.200   0.692   7.101 -0.4036  0.6862  0.0865
  160SAPE   H4X17924   1.090   0.675   7.101 -0.0503 -2.0991  0.9961
  160SAPE   H4Y17925   1.217   0.801   7.109 -1.0766  0.7873  0.1876
  160SAPE   C3517926   1.266   0.626   7.224 -0.3949  0.1385  0.3709
  160SAPE   H5X17927   1.244   0.518   7.229 -3.6423  0.7347  0.8860
  160SAPE   H5Y17928   1.220   0.679   7.310  1.3717  0.1657  1.3300
  160SAPE   C3617929   1.416   0.661   7.233  0.2202 -0.1676 -0.0236
  160SAPE   H6X17930   1.431   0.771   7.234 -0.3364 -0.0798 -0.7919
  160SAPE   H6Y17931   1.460   0.627   7.137  1.7722  1.4026  0.0886
  160SAPE   C3717932   1.488   0.593   7.353  0.7660  0.5880 -0.6756
  160SAPE   H7X17933   1.594   0.621   7.339  0.3274  2.3706 -0.6723
  160SAPE   H7Y17934   1.477   0.484   7.335  0.4920  0.1858  1.6445
  160SAPE   C3817935   1.437   0.632   7.493 -0.4436 -0.3083 -0.6706
  160SAPE   H8X17936   1.326   0.626   7.494 -0.5543  0.9491 -2.0316
  160SAPE   H8Y17937   1.460   0.739   7.509 -0.1611 -0.4106 -0.3900
  160SAPE   C3917938   1.480   0.547   7.613  0.4214 -0.4075  1.2759
  160SAPE   H9X17939   1.585   0.567   7.642  0.6055  0.2275  0.2246
  160SAPE   H9Y17940   1.477   0.443   7.574 -1.5657 -0.0158  0.2348
  160SAPE  C31017941   1.404   0.561   7.740 -0.4339 -0.0118  1.0042
  160SAPE  H10X17942   1.312   0.500   7.724 -0.6786  1.0114 -2.2055
  160SAPE  H10Y17943   1.367   0.661   7.772 -1.2230  0.1028 -0.2296
  160SAPE  C31117944   1.472   0.497   7.861  0.2202 -0.0567 -0.2462
  160SAPE  H11X17945   1.563   0.557   7.879  0.5441  0.1595 -2.4248
  160SAPE  H11Y17946   1.507   0.397   7.830 -2.5936 -1.2785  0.2152
  160SAPE  C31217947   1.377   0.489   7.983 -0.3601  0.1255 -0.1855
  160SAPE  H12X17948   1.284   0.433   7.962 -0.4676  0.3064 -0.1978
  160SAPE  H12Y17949   1.332   0.585   8.016  1.2213 -0.2990  3.8205
  160SAPE  C31317950   1.447   0.452   8.119  0.0532 -0.1435  1.0546
  160SAPE  H13X17951   1.534   0.521   8.125  0.5924 -0.6934 -0.0654
  160SAPE  H13Y17952   1.498   0.353   8.122 -0.3120 -0.3074  2.5547
  160SAPE  C31417953   1.362   0.466   8.245  0.0666  0.2257  1.0333
  160SAPE  H14X17954   1.275   0.397   8.249 -0.3068  0.6551  0.3568
  160SAPE  H14Y17955   1.307   0.563   8.242 -0.0927  0.1359  1.0268
  160SAPE  C31517956   1.450   0.448   8.368 -0.0072  0.8653 -0.0115
  160SAPE  H15X17957   1.533   0.522   8.363  1.0395 -0.3148 -0.7158
  160SAPE  H15Y17958   1.500   0.349   8.366  1.1176  1.3987  0.9009
  160SAPE  C31617959   1.366   0.467   8.496  0.4159 -0.0923  0.4685
  160SAPE  H16X17960   1.270   0.413   8.506  1.1972 -1.4895  0.6910
  160SAPE  H16Y17961   1.354   0.575   8.519  1.2329  0.3724 -1.1575
  160SAPE  C31717962   1.451   0.427   8.619 -0.2342 -0.6447 -0.3679
  160SAPE  H17X17963   1.415   0.496   8.699  1.2327  0.9345 -1.0038
  160SAPE  H17Y17964   1.557   0.454   8.601 -0.4526  0.3504 -0.2133
  160SAPE  C31817965   1.434   0.289   8.663  0.5073  0.8430  0.6249
  160SAPE  H18X17966   1.491   0.225   8.593  1.4067  0.3510  1.7662
  160SAPE  H18Y17967   1.335   0.244   8.642  0.7871  1.0237 -1.2117
  160SAPE  H18Z17968   1.463   0.266   8.768 -0.9516  0.5730  0.9878
  161SOPE     N17969   5.028   5.215  10.851 -0.0127 -0.2485 -0.6650
  161SOPE   HN117970   5.074   5.188  10.762 -2.5527 -3.0666 -1.3242
  161SOPE   HN217971   4.999   5.315  10.842 -1.2074 -0.4008  0.9206
  161SOPE   HN317972   5.086   5.194  10.934 -0.6993  0.6952  0.0724
  161SOPE   C1217973   4.908   5.124  10.851 -0.1704 -0.0256 -0.0167
  161SOPE  H12A17974   4.854   5.131  10.948 -0.4484  2.4657 -0.2939
  161SOPE  H12B17975   4.948   5.023  10.830 -2.2397 -0.9175  0.1179
  161SOPE   C1117976   4.807   5.162  10.743  0.4179 -0.1120  0.1838
  161SOPE  H11A17977   4.849   5.156  10.640  1.1200  0.4035  0.4301
  161SOPE  H11B17978   4.779   5.267  10.764  0.7742  0.1781 -0.7265
  161SOPE     P17979   4.685   4.928  10.727  0.0115 -0.2095  0.3839
  161SOPE   O1317980   4.547   4.884  10.700  0.1974  0.0117  0.3454
  161SOPE   O1417981   4.749   4.859  10.843  0.3350 -0.3533  0.1656
  161SOPE   O1217982   4.681   5.088  10.750  0.1295  0.2595  0.0373
  161SOPE   O1117983   4.767   4.916  10.598 -0.1862 -0.6051  0.4855
  161SOPE    C117984   4.706   4.910  10.467 -0.1376 -0.3812  0.6345
  161SOPE    HA17985   4.758   4.973  10.392 -1.1106 -0.1232  0.1590
  161SOPE    HB17986   4.603   4.952  10.475  0.2324  0.4711  1.0138
  161SOPE    C217987   4.686   4.767  10.411 -0.0127 -0.0949  0.6508
  161SOPE    HS17988   4.621   4.706  10.477  0.3979 -1.9110 -0.5669
  161SOPE   O2117989   4.818   4.716  10.408 -0.2371 -0.0011 -0.9292
  161SOPE   C2117990   4.823   4.582  10.427 -0.6064  0.1254 -0.0699
  161SOPE   O2217991   4.729   4.510  10.448 -0.3661  0.4892 -0.0196
  161SOPE   C2217992   4.970   4.535  10.407  0.1225 -0.5861 -0.3807
  161SOPE   H2R17993   5.009   4.515  10.509 -0.0298 -1.3856 -0.4662
  161SOPE   H2S17994   5.032   4.614  10.360 -1.6890  0.3165 -1.3499
  161SOPE    C317995   4.620   4.773  10.259 -0.3199  0.0061 -0.0135
  161SOPE    HX17996   4.692   4.841  10.209  1.1172 -1.5794 -0.2138
  161SOPE    HY17997   4.519   4.820  10.266 -0.3471 -0.1439  0.6828
  161SOPE   O3117998   4.615   4.648  10.199 -0.0928 -0.0623  0.4636
  161SOPE   C3117999   4.526   4.561  10.241  0.5549  0.5558  0.5108
  161SOPE   O3218000   4.436   4.588  10.321 -0.2709  0.5773 -0.1436
  161SOPE   C3218001   4.543   4.422  10.180  0.7353  0.3168  0.2503
  161SOPE   H2X18002   4.572   4.360  10.268 -2.6122 -0.5457  0.9082
  161SOPE   H2Y18003   4.621   4.434  10.102  3.2608 -2.3477  2.1248
  161SOPE   C2318004   4.974   4.393  10.348 -0.2524 -0.2782  0.4894
  161SOPE   H3R18005   4.931   4.318  10.419 -0.6470  0.5308  1.1214
  161SOPE   H3S18006   5.084   4.375  10.345 -0.4307 -1.2251 -0.8371
  161SOPE   C2418007   4.930   4.376  10.203  0.7217 -0.1324  0.0902
  161SOPE   H4R18008   4.962   4.276  10.166  2.3960  0.2931  0.3317
  161SOPE   H4S18009   4.819   4.371  10.214  0.7418 -0.4230  0.1567
  161SOPE   C2518010   4.968   4.494  10.113  0.3276 -0.1378 -0.1836
  161SOPE   H5R18011   4.903   4.584  10.124  0.0352 -0.2157 -1.1547
  161SOPE   H5S18012   5.073   4.525  10.133 -0.0302  1.3071 -0.4447
  161SOPE   C2618013   4.970   4.458   9.958 -0.1465  0.1715  0.1009
  161SOPE   H6R18014   5.011   4.355   9.951  1.4043  0.5943  2.0863
  161SOPE   H6S18015   4.866   4.469   9.920  0.7499 -0.0547 -2.6093
  161SOPE   C2718016   5.066   4.549   9.875 -0.4058  0.5515  0.7230
  161SOPE   H7R18017   5.052   4.653   9.911 -3.0102  0.8722 -1.0116
  161SOPE   H7S18018   5.167   4.513   9.906 -0.9952 -1.8477  0.1005
  161SOPE   C2818019   5.053   4.527   9.721  0.1055 -0.4937 -0.3157
  161SOPE   H8R18020   4.943   4.521   9.708  0.0835 -2.4964  0.4826
  161SOPE   H8S18021   5.083   4.615   9.659 -1.0583  0.7653  0.8604
  161SOPE   C2918022   5.112   4.395   9.661  0.0489  0.5064 -0.9549
  161SOPE   H9118023   5.121   4.312   9.732 -0.8444  1.7134  0.6192
  161SOPE  C21018024   5.150   4.383   9.532 -0.9008  0.4475 -0.7438
  161SOPE  H10118025   5.184   4.282   9.507  2.8139  0.9062  1.6345
  161SOPE  C21118026   5.126   4.479   9.421  0.0676  0.1710  0.0555
  161SOPE  H11R18027   5.224   4.499   9.372 -0.7041  0.8822 -1.2593
  161SOPE  H11S18028   5.093   4.581   9.451 -1.8755 -0.5171  0.3853
  161SOPE  C21218029   5.033   4.435   9.303 -0.0144 -0.6584 -0.2732
  161SOPE  H12R18030   4.927   4.417   9.329 -1.5063  0.5528 -4.6365
  161SOPE  H12S18031   5.064   4.337   9.261 -2.7742 -1.4392 -0.6905
  161SOPE  C21318032   5.039   4.540   9.187 -0.3953 -0.1422  0.5020
  161SOPE  H13R18033   5.144   4.562   9.160 -0.6390 -0.8714 -1.1611
  161SOPE  H13S18034   4.993   4.634   9.223  1.7384  1.0914  0.1242
  161SOPE  C21418035   4.963   4.475   9.068  0.0543  0.0703  0.5578
  161SOPE  H14R18036   4.858   4.451   9.098 -0.2268  1.0293  0.3859
  161SOPE  H14S18037   5.023   4.385   9.044  1.4444  1.2176 -0.4299
  161SOPE  C21518038   4.964   4.559   8.938  0.4378 -0.1604  0.0290
  161SOPE  H15R18039   4.915   4.502   8.856  0.9223 -1.9113  0.9219
  161SOPE  H15S18040   5.065   4.551   8.891 -0.7836 -0.6462 -2.7074
  161SOPE  C21618041   4.905   4.698   8.964  0.1832  0.9026 -0.1122
  161SOPE  H16R18042   4.967   4.757   9.036 -0.4438  1.3999  0.0296
  161SOPE  H16S18043   4.814   4.689   9.027 -0.9127 -0.1147 -1.7865
  161SOPE  C21718044   4.882   4.778   8.835 -0.2559 -0.3036  0.7353
  161SOPE  H17R18045   4.808   4.738   8.761  0.5605  1.7901 -1.3417
  161SOPE  H17S18046   4.976   4.781   8.776 -1.4008  0.5476 -1.1470
  161SOPE  C21818047   4.837   4.926   8.865  0.4125  0.5478  0.1894
  161SOPE  H18R18048   4.870   4.994   8.783 -0.8546  1.6180  0.5376
  161SOPE  H18S18049   4.876   4.963   8.962 -1.7051 -0.5547  1.5166
  161SOPE  H18T18050   4.727   4.929   8.871  0.4668  2.5945  1.1724
  161SOPE   C3318051   4.409   4.367  10.120  0.0128 -0.8195 -0.4062
  161SOPE   H3X18052   4.324   4.403  10.182  0.3439 -0.2558 -0.2753
  161SOPE   H3Y18053   4.398   4.257  10.128 -2.7597 -0.6912 -1.1728
  161SOPE   C3418054   4.401   4.412   9.973  0.2455  0.0516  0.0306
  161SOPE   H4X18055   4.312   4.362   9.929 -2.4185  2.7685  1.9075
  161SOPE   H4Y18056   4.487   4.373   9.914 -0.5284 -2.4096  0.4133
  161SOPE   C3518057   4.363   4.560   9.941 -0.1274  0.1663  0.4136
  161SOPE   H5X18058   4.426   4.636   9.992  1.3623 -0.4350 -0.4654
  161SOPE   H5Y18059   4.253   4.571   9.958 -0.4857  0.3008 -1.7357
  161SOPE   C3618060   4.377   4.579   9.791  0.3046 -0.5476 -0.2924
  161SOPE   H6X18061   4.476   4.552   9.750  1.1818  2.3453 -0.2543
  161SOPE   H6Y18062   4.372   4.687   9.769  2.1742 -0.5475 -0.8399
  161SOPE   C3718063   4.277   4.499   9.704 -0.3761  0.3680 -0.0217
  161SOPE   H7X18064   4.175   4.532   9.735 -1.7053 -2.6994 -0.6980
  161SOPE   H7Y18065   4.281   4.390   9.725  0.2580  0.7927  2.3828
  161SOPE   C3818066   4.289   4.506   9.551 -0.5247  0.0289  0.4784
  161SOPE   H8X18067   4.392   4.472   9.524  0.1967  2.6323 -0.3648
  161SOPE   H8Y18068   4.284   4.616   9.534 -2.7291  0.1501  1.5738
  161SOPE   C3918069   4.176   4.440   9.485 -0.5730 -0.3047  0.1088
  161SOPE   H9X18070   4.086   4.500   9.511 -0.4487 -1.0071  2.3505
  161SOPE   H9Y18071   4.155   4.344   9.538 -2.9699 -1.0165 -1.9600
  161SOPE  C31018072   4.190   4.432   9.329 -0.0716 -0.0454  0.1232
  161SOPE  H10X18073   4.284   4.376   9.309 -0.2708  0.0468 -1.1815
  161SOPE  H10Y18074   4.210   4.535   9.294 -2.1986  0.2370 -0.3858
  161SOPE  C31118075   4.074   4.362   9.258 -1.1297  0.3037 -0.0213
  161SOPE  H11X18076   3.983   4.423   9.273 -0.6981  1.2053 -0.9457
  161SOPE  H11Y18077   4.062   4.261   9.302  0.3816  0.5167  0.9320
  161SOPE  C31218078   4.093   4.344   9.108  0.2257  0.0947 -0.1315
  161SOPE  H12X18079   4.131   4.438   9.065 -0.7702  1.0095  0.9196
  161SOPE  H12Y18080   3.994   4.312   9.069  0.0380  0.7852 -0.2208
  161SOPE  C31318081   4.190   4.224   9.074  0.4873 -0.0713  0.0981
  161SOPE  H13X18082   4.257   4.207   9.161 -1.6889 -1.3798  1.6021
  161SOPE  H13Y18083   4.245   4.262   8.985  0.3967 -0.9958 -0.3698
  161SOPE  C31418084   4.116   4.091   9.027  1.1064 -0.4459 -0.3378
  161SOPE  H14X18085   4.033   4.116   8.957  1.0614 -0.5798 -0.3325
  161SOPE  H14Y18086   4.068   4.041   9.114  0.1565 -1.1478 -1.2328
  161SOPE  C31518087   4.206   3.988   8.962  0.1973  0.4503 -0.0629
  161SOPE  H15X18088   4.299   3.972   9.021  0.6624 -1.8294 -1.3289
  161SOPE  H15Y18089   4.242   4.034   8.868  2.4263 -0.7027  0.1670
  161SOPE  C31618090   4.144   3.856   8.914 -0.1200 -0.4072  0.2987
  161SOPE  H16X18091   4.107   3.804   9.004  0.2471 -1.0809  0.0747
  161SOPE  H16Y18092   4.227   3.795   8.871 -1.6014 -1.3664 -1.2949
  161SOPE  C31718093   4.028   3.855   8.821  0.2240  0.2107  0.0024
  161SOPE  H17X18094   3.937   3.916   8.838  0.1925 -0.5226  2.9621
  161SOPE  H17Y18095   3.976   3.758   8.836  0.1918  0.1236 -0.6382
  161SOPE  C31818096   4.062   3.868   8.673 -1.0671  0.5322  0.1979
  161SOPE  H18X18097   4.137   3.790   8.647 -0.8208  0.8439 -0.0376
  161SOPE  H18Y18098   4.116   3.963   8.652  2.7243 -1.3632  0.4714
  161SOPE  H18Z18099   3.974   3.868   8.605  0.2341 -0.9831 -1.6105
  162SOPE     N18100   4.097   3.239  10.980 -0.0334  0.6031  0.4971
  162SOPE   HN118101   4.059   3.296  10.902  2.4123  1.4568 -0.1777
  162SOPE   HN218102   4.198   3.259  10.992  0.4496 -1.9014  1.1521
  162SOPE   HN318103   4.084   3.140  10.949 -3.3384  0.7855  0.9368
  162SOPE   C1218104   4.011   3.263  11.098 -0.5582  0.7604 -0.2686
  162SOPE  H12A18105   4.046   3.361  11.138 -2.7878  1.9546 -1.0538
  162SOPE  H12B18106   4.035   3.184  11.172 -0.0640  0.9191 -0.2566
  162SOPE   C1118107   3.866   3.255  11.061  0.4043  0.1523 -0.1743
  162SOPE  H11A18108   3.830   3.342  11.002  1.0195 -0.9032 -2.2006
  162SOPE  H11B18109   3.814   3.255  11.159  1.4316 -0.1723  0.3923
  162SOPE     P18110   3.739   3.032  11.024  0.3716  0.3457  0.1690
  162SOPE   O1318111   3.615   3.098  11.064  0.5109  0.2332 -0.8445
  162SOPE   O1418112   3.801   2.945  11.126  0.4971  0.0697  0.2224
  162SOPE   O1218113   3.842   3.133  10.981 -0.3466  0.0689 -0.3189
  162SOPE   O1118114   3.705   2.949  10.895 -0.3285  0.6613  0.0552
  162SOPE    C118115   3.789   2.949  10.779  0.0239  0.1453 -0.0653
  162SOPE    HA18116   3.788   2.848  10.733 -0.4415  0.5904 -1.0499
  162SOPE    HB18117   3.896   2.960  10.806 -0.1511 -0.7583  1.0909
  162SOPE    C218118   3.759   3.052  10.675  0.1741 -0.6500 -0.5062
  162SOPE    HS18119   3.784   3.152  10.718 -2.3909  0.2258 -0.8186
  162SOPE   O2118120   3.619   3.043  10.647 -0.0159 -0.4170  0.0788
  162SOPE   C2118121   3.569   3.150  10.591  0.5543 -0.2308 -0.1782
  162SOPE   O2218122   3.631   3.253  10.562  0.2753 -0.6782  0.3408
  162SOPE   C2218123   3.417   3.131  10.584  0.0161 -0.6818 -0.2254
  162SOPE   H2R18124   3.370   3.232  10.580  1.3917  0.1242  1.8337
  162SOPE   H2S18125   3.395   3.100  10.689  2.4656 -0.2462  0.4893
  162SOPE    C318126   3.860   3.030  10.546  0.5281 -0.0587 -0.5078
  162SOPE    HX18127   3.831   2.932  10.504  1.5343 -1.2228  1.4041
  162SOPE    HY18128   3.967   3.009  10.569  0.2575 -2.4916 -1.1857
  162SOPE   O3118129   3.838   3.120  10.436 -0.3924  0.2643  0.4159
  162SOPE   C3118130   3.906   3.229  10.431  0.3431 -0.4086 -0.2566
  162SOPE   O3218131   3.990   3.265  10.512  0.1967 -0.3854 -0.1307
  162SOPE   C3218132   3.867   3.312  10.309 -0.7048 -0.9048 -0.0985
  162SOPE   H2X18133   3.756   3.314  10.305 -0.7872  1.5023  1.3572
  162SOPE   H2Y18134   3.919   3.270  10.220 -0.9622 -2.3691  0.4224
  162SOPE   C2318135   3.367   3.022  10.493  0.7742  0.1234 -0.1081
  162SOPE   H3R18136   3.262   3.008  10.525  1.0432  0.0618  0.7686
  162SOPE   H3S18137   3.421   2.926  10.510 -0.7936 -0.9498 -0.9170
  162SOPE   C2418138   3.370   3.053  10.342  0.1517 -0.4812  0.3720
  162SOPE   H4R18139   3.300   2.983  10.292 -1.8274  0.2435  1.9727
  162SOPE   H4S18140   3.326   3.153  10.320  1.1484 -0.3751 -1.3131
  162SOPE   C2518141   3.509   3.062  10.282  0.3801 -0.5820  0.1791
  162SOPE   H5R18142   3.552   3.149  10.335 -0.9728 -0.0796  0.4884
  162SOPE   H5S18143   3.564   2.969  10.310  0.1429 -0.7061  0.2375
  162SOPE   C2618144   3.524   3.075  10.124 -0.0591 -0.4343 -1.0408
  162SOPE   H6R18145   3.480   2.987  10.074  1.2670 -0.9460 -1.3446
  162SOPE   H6S18146   3.467   3.164  10.089 -2.6288 -1.8971 -0.7713
  162SOPE   C2718147   3.672   3.083  10.079 -0.4881  0.1556 -0.3633
  162SOPE   H7R18148   3.697   3.189  10.101  0.4076  0.1910 -1.4850
  162SOPE   H7S18149   3.739   3.023  10.144  0.3903  0.6034 -0.8396
  162SOPE   C2818150   3.681   3.050   9.930  0.3875  0.4748  0.1040
  162SOPE   H8R18151   3.644   2.949   9.901  0.1545  0.4705  0.4101
  162SOPE   H8S18152   3.615   3.124   9.878  1.3455  0.8527 -0.5930
  162SOPE   C2918153   3.819   3.072   9.872 -0.0914 -0.3426 -0.6280
  162SOPE   H9118154   3.888   3.112   9.947 -3.0779  2.8239  0.7169
  162SOPE  C21018155   3.851   3.078   9.747 -0.1865  0.5157  0.2358
  162SOPE  H10118156   3.955   3.110   9.732  0.1618  1.6373  4.0262
  162SOPE  C21118157   3.762   3.070   9.630  0.5623 -0.0691  0.4294
  162SOPE  H11R18158   3.762   3.174   9.591  1.7593  1.0562  3.1628
  162SOPE  H11S18159   3.657   3.040   9.649  0.0452  0.5997 -1.1930
  162SOPE  C21218160   3.821   2.975   9.521  0.4470 -0.6716  0.1828
  162SOPE  H12R18161   3.839   2.872   9.558 -0.0871 -0.9780 -0.3937
  162SOPE  H12S18162   3.926   3.007   9.504  0.7949 -1.5589  0.6385
  162SOPE  C21318163   3.754   2.991   9.382  0.4963  0.0769 -0.2230
  162SOPE  H13R18164   3.783   3.089   9.338  0.5934 -0.1733 -0.7254
  162SOPE  H13S18165   3.644   2.975   9.380  0.3285  1.2006 -0.7151
  162SOPE  C21418166   3.809   2.878   9.291  0.1399  0.1142 -0.5504
  162SOPE  H14R18167   3.787   2.777   9.331 -3.1877  0.3916 -1.3532
  162SOPE  H14S18168   3.920   2.882   9.292  0.1785 -0.8043  0.9767
  162SOPE  C21518169   3.760   2.876   9.146 -0.2694  0.1391  0.5560
  162SOPE  H15R18170   3.651   2.857   9.152 -0.0297 -1.3005  0.6057
  162SOPE  H15S18171   3.803   2.783   9.104 -2.1140 -0.8604  0.7787
  162SOPE  C21618172   3.787   3.006   9.063 -0.1757 -0.1172 -0.7933
  162SOPE  H16R18173   3.896   3.020   9.076 -0.3114  0.2396 -0.0026
  162SOPE  H16S18174   3.724   3.093   9.090  0.6357  0.2788 -0.1220
  162SOPE  C21718175   3.770   2.977   8.911  0.4895  0.2066 -0.2566
  162SOPE  H17R18176   3.660   2.983   8.892  0.4252  3.5749  0.5581
  162SOPE  H17S18177   3.801   2.876   8.877 -1.0206  0.8638 -4.1163
  162SOPE  C21818178   3.838   3.079   8.824 -0.0830 -0.1794 -0.1851
  162SOPE  H18R18179   3.777   3.172   8.816  2.6082  1.7146  0.0621
  162SOPE  H18S18180   3.845   3.045   8.719 -0.7565  1.2361 -0.7197
  162SOPE  H18T18181   3.941   3.106   8.856 -0.3261  1.5450 -0.7164
  162SOPE   C3318182   3.918   3.460  10.326  0.2808  0.2604 -0.1503
  162SOPE   H3X18183   4.027   3.441  10.336  0.4084 -0.6869 -2.5210
  162SOPE   H3Y18184   3.870   3.500  10.417  0.0726 -2.1052  0.8517
  162SOPE   C3418185   3.882   3.538  10.198  0.7597  0.1172  0.0676
  162SOPE   H4X18186   3.774   3.564  10.202  0.2430 -1.9422  0.4742
  162SOPE   H4Y18187   3.903   3.473  10.111 -0.1785  0.5445 -0.4948
  162SOPE   C3518188   3.959   3.671  10.176 -0.3732  0.8233 -0.1416
  162SOPE   H5X18189   4.068   3.652  10.165 -0.6703 -0.5716 -1.0169
  162SOPE   H5Y18190   3.948   3.721  10.274 -0.5325  0.8645 -0.1813
  162SOPE   C3618191   3.912   3.746  10.056 -0.1518  0.3385 -0.3242
  162SOPE   H6X18192   3.941   3.852  10.072  2.9445 -0.4008 -0.4445
  162SOPE   H6Y18193   3.801   3.748  10.047 -0.0361 -0.2993 -2.2238
  162SOPE   C3718194   3.981   3.696   9.922 -0.1160 -0.4877  0.1267
  162SOPE   H7X18195   3.970   3.586   9.914  0.7799 -0.6343  0.7706
  162SOPE   H7Y18196   4.091   3.708   9.935  0.3199 -2.9100 -0.8200
  162SOPE   C3818197   3.935   3.766   9.794 -0.2135  0.1842  0.3125
  162SOPE   H8X18198   4.020   3.791   9.727  0.6599 -1.5187  0.7351
  162SOPE   H8Y18199   3.901   3.871   9.803  2.1458  0.9754  0.5203
  162SOPE   C3918200   3.831   3.684   9.711 -0.1365  0.0923 -0.1812
  162SOPE   H9X18201   3.754   3.654   9.785  1.4341 -2.5233  0.5475
  162SOPE   H9Y18202   3.872   3.582   9.692 -1.1800 -0.4203  0.2572
  162SOPE  C31018203   3.784   3.758   9.588  0.0396  0.0160  0.0841
  162SOPE  H10X18204   3.874   3.805   9.543 -2.5803  2.9454 -2.5654
  162SOPE  H10Y18205   3.711   3.840   9.607  1.2685  1.6089 -1.7087
  162SOPE  C31118206   3.727   3.670   9.482  0.1418 -0.0581  0.4966
  162SOPE  H11X18207   3.619   3.652   9.502  0.6269 -3.2393  0.8041
  162SOPE  H11Y18208   3.777   3.571   9.484  1.7332  0.5337 -3.0459
  162SOPE  C31218209   3.744   3.725   9.337 -0.8373  0.4209 -0.1063
  162SOPE  H12X18210   3.757   3.836   9.344  0.7589  0.3995 -1.7657
  162SOPE  H12Y18211   3.649   3.702   9.286 -1.3893 -0.4670  1.2764
  162SOPE  C31318212   3.873   3.675   9.265 -0.0018  0.5417 -0.0560
  162SOPE  H13X18213   3.954   3.666   9.341  0.0359  1.0674 -0.0309
  162SOPE  H13Y18214   3.908   3.748   9.190  2.0618  0.1125  0.4201
  162SOPE  C31418215   3.855   3.533   9.200  0.9312 -0.2254  0.2664
  162SOPE  H14X18216   3.783   3.554   9.118 -0.3296 -1.8330  0.9113
  162SOPE  H14Y18217   3.805   3.462   9.269 -0.8407  0.7072 -0.0059
  162SOPE  C31518218   3.982   3.482   9.131 -0.0925  0.3109  0.1214
  162SOPE  H15X18219   4.040   3.444   9.218 -1.0484 -0.8613  0.2753
  162SOPE  H15Y18220   4.035   3.574   9.097 -0.3761 -0.4996 -2.7576
  162SOPE  C31618221   3.958   3.395   9.003  0.0615 -0.3702  0.9557
  162SOPE  H16X18222   3.889   3.456   8.941 -0.5651 -1.3774  0.6194
  162SOPE  H16Y18223   3.901   3.301   9.026  0.4654 -0.2351  2.6497
  162SOPE  C31718224   4.087   3.364   8.924 -0.5970 -0.0974  0.2216
  162SOPE  H17X18225   4.070   3.285   8.847  0.7968  1.0377 -1.3177
  162SOPE  H17Y18226   4.152   3.323   9.004 -2.3023 -1.2586  1.0755
  162SOPE  C31818227   4.152   3.488   8.860  0.0654 -0.0680 -0.0129
  162SOPE  H18X18228   4.182   3.560   8.939  1.1289 -0.8397  0.3261
  162SOPE  H18Y18229   4.085   3.536   8.786 -0.5852 -1.4886 -0.3795
  162SOPE  H18Z18230   4.247   3.460   8.809 -0.3985 -1.4553 -0.1799
  163SOPE     N18231   5.653   1.108  10.786 -0.0162  0.3739  0.5113
  163SOPE   HN118232   5.668   1.011  10.821  2.8314 -0.3369 -2.1659
  163SOPE   HN218233   5.741   1.132  10.736  0.2891  2.0828  1.7780
  163SOPE   HN318234   5.643   1.176  10.864 -3.7587  1.3054 -0.6120
  163SOPE   C1218235   5.525   1.129  10.703 -0.1799 -0.3246 -1.2258
  163SOPE  H12A18236   5.436   1.097  10.762  0.1554  1.2152  0.1965
  163SOPE  H12B18237   5.540   1.065  10.613  3.6374 -1.9501  0.3698
  163SOPE   C1118238   5.502   1.279  10.677  0.5129 -0.2536 -0.1547
  163SOPE  H11A18239   5.422   1.286  10.600  0.6197 -2.2785 -0.5097
  163SOPE  H11B18240   5.598   1.320  10.639  0.9112 -0.5836  0.4860
  163SOPE     P18241   5.526   1.460  10.868  0.5514 -0.3429  0.2200
  163SOPE   O1318242   5.660   1.416  10.906  0.5099 -0.5168 -0.0921
  163SOPE   O1418243   5.448   1.504  10.985 -0.8247 -0.4951 -0.5360
  163SOPE   O1218244   5.454   1.343  10.791  0.2494 -0.7394 -0.0715
  163SOPE   O1118245   5.532   1.582  10.759 -0.4048  0.1516 -0.0919
  163SOPE    C118246   5.408   1.638  10.709 -0.2086 -0.0350  0.0195
  163SOPE    HA18247   5.403   1.746  10.733 -1.5626  0.4900 -2.3370
  163SOPE    HB18248   5.324   1.587  10.763 -0.2258 -1.2695 -1.1314
  163SOPE    C218249   5.386   1.615  10.562  0.2049  0.5327 -0.1194
  163SOPE    HS18250   5.390   1.507  10.534 -1.5879  0.7039 -1.1460
  163SOPE   O2118251   5.486   1.693  10.494 -0.1561  0.1400 -0.0299
  163SOPE   C2118252   5.567   1.632  10.407 -0.0805 -0.3661  0.2479
  163SOPE   O2218253   5.578   1.512  10.388 -0.2249  0.0152  0.1278
  163SOPE   C2218254   5.651   1.739  10.325  0.3559  0.3929  0.1835
  163SOPE   H2R18255   5.720   1.780  10.402 -0.7668  0.0985  1.3739
  163SOPE   H2S18256   5.584   1.823  10.298 -0.0275  0.0583  0.0859
  163SOPE    C318257   5.242   1.658  10.524 -0.0432 -0.3970  0.0461
  163SOPE    HX18258   5.228   1.761  10.564  1.6681 -0.1791  0.1808
  163SOPE    HY18259   5.170   1.591  10.574 -1.8676 -0.0181 -1.9199
  163SOPE   O3118260   5.225   1.649  10.386 -0.3195 -0.3776  0.2928
  163SOPE   C3118261   5.183   1.751  10.312 -0.0552  0.1510  0.0557
  163SOPE   O3218262   5.156   1.863  10.349 -0.2816  0.0181  0.0088
  163SOPE   C3218263   5.162   1.693  10.175 -0.0336 -0.1738  0.1058
  163SOPE   H2X18264   5.074   1.625  10.181  0.9992 -1.4433  3.5804
  163SOPE   H2Y18265   5.244   1.621  10.156  0.0583  0.2409 -1.1421
  163SOPE   C2318266   5.736   1.686  10.211  0.0676 -0.4058  0.1943
  163SOPE   H3R18267   5.786   1.587  10.211 -0.8804 -0.9293 -1.4245
  163SOPE   H3S18268   5.813   1.762  10.186  0.9889 -1.3706  0.0255
  163SOPE   C2418269   5.655   1.680  10.079  0.2305  0.8064 -0.5582
  163SOPE   H4R18270   5.727   1.634  10.007  0.2623 -1.4006  0.7736
  163SOPE   H4S18271   5.579   1.599  10.088  0.2275  0.8814  0.1261
  163SOPE   C2518272   5.607   1.811  10.029 -0.3046  0.1729  0.7041
  163SOPE   H5R18273   5.515   1.837  10.086 -1.7845  1.3387 -2.0134
  163SOPE   H5S18274   5.685   1.889  10.044 -3.2242  3.5667 -0.4290
  163SOPE   C2618275   5.573   1.813   9.877 -0.4129  0.6576 -0.4117
  163SOPE   H6R18276   5.493   1.737   9.861 -0.8522  0.5968  1.7314
  163SOPE   H6S18277   5.535   1.916   9.863 -2.4431  0.1601  0.8855
  163SOPE   C2718278   5.686   1.777   9.770 -1.1781 -0.4481  0.0159
  163SOPE   H7R18279   5.767   1.852   9.784 -2.0134  0.6522 -0.8266
  163SOPE   H7S18280   5.704   1.674   9.807  0.0417 -0.8260 -1.5530
  163SOPE   C2818281   5.631   1.790   9.628  0.7727 -0.1296 -0.3673
  163SOPE   H8R18282   5.526   1.754   9.632  0.6433  0.3921  1.4248
  163SOPE   H8S18283   5.633   1.899   9.607 -1.3119  0.1051  0.4223
  163SOPE   C2918284   5.699   1.707   9.526 -0.2400  0.4732  0.0307
  163SOPE   H9118285   5.674   1.600   9.531 -1.4055  0.6348 -1.6171
  163SOPE  C21018286   5.761   1.748   9.416 -0.6210  0.2867 -0.2939
  163SOPE  H10118287   5.776   1.666   9.344 -4.3811  1.6050 -2.9517
  163SOPE  C21118288   5.799   1.892   9.374 -0.2732  0.1909 -0.3724
  163SOPE  H11R18289   5.910   1.888   9.380 -0.2482 -1.4682 -1.2272
  163SOPE  H11S18290   5.757   1.961   9.450 -0.6274  0.5620 -0.8962
  163SOPE  C21218291   5.735   1.938   9.241 -0.2365 -0.4045 -0.4075
  163SOPE  H12R18292   5.750   2.048   9.233 -0.1940 -0.0786  2.7980
  163SOPE  H12S18293   5.625   1.923   9.242 -0.2031 -0.6585  0.7787
  163SOPE  C21318294   5.779   1.878   9.111 -0.2589 -0.4961 -0.1132
  163SOPE  H13R18295   5.694   1.814   9.077 -2.0202  1.0190  1.2686
  163SOPE  H13S18296   5.874   1.821   9.121  0.8167  0.8892 -1.8928
  163SOPE  C21418297   5.798   1.982   8.998  0.5002  0.3662  0.0256
  163SOPE  H14R18298   5.891   2.040   9.012  0.7693  0.4802 -1.9504
  163SOPE  H14S18299   5.714   2.054   8.988  0.7240  0.2856 -4.1297
  163SOPE  C21518300   5.810   1.918   8.858  0.1869 -0.3056  0.1322
  163SOPE  H15R18301   5.710   1.873   8.845 -0.0610  0.0707  0.6849
  163SOPE  H15S18302   5.885   1.836   8.860 -0.5969 -1.0243  0.2597
  163SOPE  C21618303   5.843   2.021   8.748  1.0103  0.7259 -0.1936
  163SOPE  H16R18304   5.911   2.101   8.784  1.4680 -0.0535  0.7260
  163SOPE  H16S18305   5.745   2.069   8.729  0.3983 -1.5007 -3.5366
  163SOPE  C21718306   5.872   1.952   8.624 -0.1839 -0.1943  0.5342
  163SOPE  H17R18307   5.808   1.863   8.605 -0.3969 -0.2100  1.2835
  163SOPE  H17S18308   5.974   1.912   8.636 -0.8132 -2.2805 -0.5354
  163SOPE  C21818309   5.870   2.043   8.501  0.6019  0.1923 -0.0712
  163SOPE  H18R18310   5.922   2.141   8.515  0.6470  0.0930  0.5170
  163SOPE  H18S18311   5.766   2.065   8.471  0.1697  0.1067  1.2793
  163SOPE  H18T18312   5.909   1.994   8.409  0.0597 -1.8858  0.7435
  163SOPE   C3318313   5.147   1.791  10.055  0.0006 -0.8263 -0.7449
  163SOPE   H3X18314   5.230   1.865  10.058 -1.1188  0.6566 -3.4538
  163SOPE   H3Y18315   5.058   1.855  10.069  0.4723 -0.3295  0.0716
  163SOPE   C3418316   5.142   1.713   9.919 -0.8252  0.2243 -0.1367
  163SOPE   H4X18317   5.042   1.665   9.919 -1.2420  1.0555  0.8405
  163SOPE   H4Y18318   5.231   1.647   9.908  1.0633  2.3598  1.4140
  163SOPE   C3518319   5.148   1.808   9.800  0.1373  0.6650 -0.2817
  163SOPE   H5X18320   5.212   1.893   9.833 -0.9627  1.5988 -0.4799
  163SOPE   H5Y18321   5.057   1.870   9.789 -0.5834 -0.4423 -0.6354
  163SOPE   C3618322   5.201   1.761   9.663 -0.2608 -0.1878  0.3119
  163SOPE   H6X18323   5.123   1.689   9.630 -1.5579  0.7406  1.2333
  163SOPE   H6Y18324   5.297   1.708   9.682  0.5010  0.5198 -1.3360
  163SOPE   C3718325   5.234   1.876   9.566 -0.1657 -0.1789 -0.2318
  163SOPE   H7X18326   5.310   1.934   9.623  1.5590 -1.1074 -1.4628
  163SOPE   H7Y18327   5.151   1.949   9.558 -0.5099 -0.6469 -1.0303
  163SOPE   C3818328   5.288   1.823   9.434 -0.1747 -0.7301 -0.0521
  163SOPE   H8X18329   5.211   1.765   9.378 -0.6918 -0.9890  0.8921
  163SOPE   H8Y18330   5.365   1.746   9.459  0.7675  0.6193  1.3967
  163SOPE   C3918331   5.344   1.931   9.337  0.1909  0.2361 -0.1389
  163SOPE   H9X18332   5.442   1.963   9.379  0.6185 -1.4073  0.1916
  163SOPE   H9Y18333   5.271   2.013   9.353  0.1558  0.2449 -0.3414
  163SOPE  C31018334   5.350   1.904   9.188 -0.4988  0.0433  0.2695
  163SOPE  H10X18335   5.431   1.830   9.167  1.7059  2.3103  0.3371
  163SOPE  H10Y18336   5.388   1.999   9.146 -1.9610  0.2144 -0.7655
  163SOPE  C31118337   5.221   1.867   9.119  0.5673  0.1036  0.4253
  163SOPE  H11X18338   5.169   1.798   9.189  0.1719 -0.4377 -0.3819
  163SOPE  H11Y18339   5.227   1.810   9.024  1.7944 -0.5657  0.8843
  163SOPE  C31218340   5.134   1.994   9.089 -0.3340  0.1644 -0.1398
  163SOPE  H12X18341   5.167   2.047   8.997  0.4452 -0.8997 -0.4858
  163SOPE  H12Y18342   5.146   2.064   9.174 -2.6903  0.8680 -0.2930
  163SOPE  C31318343   4.980   1.972   9.077 -0.0185  0.1878 -0.2047
  163SOPE  H13X18344   4.946   1.907   9.160 -0.8253  1.2516  0.3334
  163SOPE  H13Y18345   4.965   1.918   8.981  2.5038  0.5569 -0.8659
  163SOPE  C31418346   4.896   2.096   9.093  0.2274  0.2853 -0.2720
  163SOPE  H14X18347   4.897   2.140   8.992  0.1275 -1.4847 -1.0819
  163SOPE  H14Y18348   4.933   2.163   9.174 -3.1630 -0.7684  2.3771
  163SOPE  C31518349   4.749   2.055   9.111 -0.2964 -0.2506 -0.1329
  163SOPE  H15X18350   4.741   2.016   9.214  2.1451  1.1204  0.6480
  163SOPE  H15Y18351   4.722   1.970   9.044 -0.7486  0.4074 -0.8106
  163SOPE  C31618352   4.650   2.168   9.095 -0.0450  0.3024 -0.1265
  163SOPE  H16X18353   4.688   2.241   9.020 -1.8913  2.1077  0.6022
  163SOPE  H16Y18354   4.641   2.225   9.189  0.8685  0.1588  0.0607
  163SOPE  C31718355   4.505   2.135   9.042 -0.4524 -0.0923 -0.5874
  163SOPE  H17X18356   4.448   2.057   9.095 -2.6528  1.0727 -1.1197
  163SOPE  H17Y18357   4.515   2.092   8.940 -0.3578  0.3193 -0.7535
  163SOPE  C31818358   4.421   2.260   9.032 -0.1274 -0.5178 -0.4489
  163SOPE  H18X18359   4.467   2.329   8.958  2.1837  0.6411  1.8776
  163SOPE  H18Y18360   4.413   2.312   9.130  0.4127 -0.6269 -0.3430
  163SOPE  H18Z18361   4.318   2.236   8.999  0.0901 -0.5972 -1.0748
  164SOPE     N18362   0.607   4.440  11.098  0.3491  0.3448  0.3604
  164SOPE   HN118363   0.686   4.453  11.164  0.8585 -1.4930  0.1542
  164SOPE   HN218364   0.555   4.529  11.087  1.6093  0.8582 -2.1211
  164SOPE   HN318365   0.552   4.370  11.151 -0.5685  2.3721  2.2469
  164SOPE   C1218366   0.667   4.388  10.972  0.0473 -0.7552 -0.2460
  164SOPE  H12A18367   0.727   4.298  10.999 -0.9594 -1.6694 -0.9876
  164SOPE  H12B18368   0.734   4.471  10.944 -1.0567 -0.3900 -1.9390
  164SOPE   C1118369   0.571   4.362  10.861 -0.5666 -0.8742  0.0034
  164SOPE  H11A18370   0.518   4.274  10.903 -1.9878  0.2471  0.6240
  164SOPE  H11B18371   0.631   4.342  10.769 -0.9413  0.3819 -0.5272
  164SOPE     P18372   0.492   4.602  10.761  0.0829  0.3164 -0.0680
  164SOPE   O1318373   0.618   4.668  10.789 -0.0837  0.1287 -0.5380
  164SOPE   O1418374   0.365   4.678  10.766 -0.0606 -0.2201  0.4104
  164SOPE   O1218375   0.474   4.467  10.839 -0.0525  0.2174 -0.0651
  164SOPE   O1118376   0.509   4.547  10.614  0.3897  0.3121  0.0635
  164SOPE    C118377   0.413   4.451  10.567 -0.4374 -0.6773  0.1017
  164SOPE    HA18378   0.340   4.415  10.643 -0.5835  1.1228  0.8851
  164SOPE    HB18379   0.474   4.363  10.537 -0.5454 -1.6431  2.4632
  164SOPE    C218380   0.333   4.510  10.441  0.1219  0.3325  0.5736
  164SOPE    HS18381   0.283   4.423  10.393  2.6892 -1.2089  0.5325
  164SOPE   O2118382   0.423   4.559  10.349  0.2010 -0.5908  0.1320
  164SOPE   C2118383   0.499   4.472  10.287  0.3657 -0.7947 -0.1411
  164SOPE   O2218384   0.489   4.350  10.296 -0.2182 -0.1155  0.2524
  164SOPE   C2218385   0.595   4.539  10.187 -0.2055 -0.0972 -0.3335
  164SOPE   H2R18386   0.690   4.481  10.193 -0.3316 -0.5457 -2.1487
  164SOPE   H2S18387   0.615   4.647  10.208  0.1933  0.5142 -3.3648
  164SOPE    C318388   0.224   4.614  10.481  0.6218  0.7719  0.6357
  164SOPE    HX18389   0.275   4.695  10.537  1.6466  1.0665 -0.6530
  164SOPE    HY18390   0.152   4.559  10.545  0.6711 -1.1443 -0.8564
  164SOPE   O3118391   0.158   4.663  10.365  0.2054  0.3905 -0.0499
  164SOPE   C3118392   0.057   4.590  10.316 -0.5758  0.2714 -0.5093
  164SOPE   O3218393   0.031   4.476  10.346  0.2029 -0.2917 -0.0762
  164SOPE   C3218394  -0.031   4.681  10.231 -0.0723 -0.5249  0.5954
  164SOPE   H2X18395   0.008   4.785  10.228 -0.5679 -0.3630 -0.6133
  164SOPE   H2Y18396  -0.130   4.681  10.280 -1.1275  0.1796 -1.4528
  164SOPE   C2318397   0.539   4.504  10.047 -0.0502 -0.2004  0.1610
  164SOPE   H3R18398   0.445   4.563  10.040 -0.7049 -1.1032  1.0827
  164SOPE   H3S18399   0.517   4.396  10.041 -1.1622  0.0782 -1.9966
  164SOPE   C2418400   0.641   4.535   9.930 -0.1571  0.7538 -0.0350
  164SOPE   H4R18401   0.661   4.644   9.926  0.6577  0.6012 -0.3061
  164SOPE   H4S18402   0.734   4.476   9.943 -0.1000 -0.1400 -3.3700
  164SOPE   C2518403   0.581   4.502   9.793 -0.0185  0.3380  0.8516
  164SOPE   H5R18404   0.565   4.393   9.787 -0.6271  0.5082 -2.3770
  164SOPE   H5S18405   0.477   4.541   9.787  0.1411  0.6420 -0.1582
  164SOPE   C2618406   0.667   4.537   9.667  0.3571 -0.5027 -0.3679
  164SOPE   H6R18407   0.704   4.640   9.683  1.5766 -0.9941  0.1065
  164SOPE   H6S18408   0.753   4.467   9.669 -1.3458 -3.0884 -4.2858
  164SOPE   C2718409   0.598   4.527   9.538 -0.1412 -0.3243 -0.0961
  164SOPE   H7R18410   0.679   4.519   9.463 -0.3394  1.5269 -0.5516
  164SOPE   H7S18411   0.535   4.436   9.530  0.4951 -0.7118 -0.7729
  164SOPE   C2818412   0.509   4.650   9.509  0.0866  0.0768  0.4444
  164SOPE   H8R18413   0.436   4.650   9.593  0.0237  0.0162  0.3895
  164SOPE   H8S18414   0.563   4.747   9.508  1.8764 -0.7417 -3.6793
  164SOPE   C2918415   0.450   4.622   9.372  0.0607  0.1948  0.7828
  164SOPE   H9118416   0.348   4.580   9.378 -1.5481  3.7325  0.6100
  164SOPE  C21018417   0.504   4.622   9.248 -0.8293  0.3937 -0.0784
  164SOPE  H10118418   0.438   4.602   9.162 -0.9146  0.7781 -0.1033
  164SOPE  C21118419   0.652   4.655   9.222 -0.7870 -0.0454 -0.8222
  164SOPE  H11R18420   0.706   4.559   9.214  1.7740  1.3025 -0.8089
  164SOPE  H11S18421   0.699   4.720   9.299  1.1306 -1.2598 -0.9034
  164SOPE  C21218422   0.683   4.727   9.087  1.0044 -0.2333 -0.6096
  164SOPE  H12R18423   0.637   4.828   9.087 -0.6144 -0.7672 -4.7496
  164SOPE  H12S18424   0.642   4.664   9.005  1.7673 -1.4687 -0.0727
  164SOPE  C21318425   0.841   4.730   9.079  0.2905 -0.6813 -1.0291
  164SOPE  H13R18426   0.870   4.623   9.086  0.2800 -0.6484 -0.4108
  164SOPE  H13S18427   0.883   4.786   9.166 -1.1012 -2.5079  0.9454
  164SOPE  C21418428   0.892   4.778   8.939 -0.0500  1.3018  0.0735
  164SOPE  H14R18429   0.899   4.889   8.950  1.3908  1.0573  2.4407
  164SOPE  H14S18430   0.818   4.758   8.859  0.2510  2.4684 -0.5218
  164SOPE  C21518431   1.020   4.709   8.896  0.0651 -1.1057 -0.2081
  164SOPE  H15R18432   1.011   4.601   8.919  1.8899 -0.9700  1.4192
  164SOPE  H15S18433   1.091   4.754   8.969 -0.2807  0.5380 -0.8341
  164SOPE  C21618434   1.056   4.732   8.747 -0.5342  0.6465  0.0029
  164SOPE  H16R18435   0.987   4.666   8.690 -0.1051  1.2280 -1.2338
  164SOPE  H16S18436   1.159   4.698   8.723 -0.9591 -0.6462 -0.0771
  164SOPE  C21718437   1.047   4.876   8.694  0.5699 -0.7410 -0.0217
  164SOPE  H17R18438   1.130   4.939   8.734  0.3419 -0.5445  0.1443
  164SOPE  H17S18439   0.946   4.914   8.719  1.0342  0.4974  0.0600
  164SOPE  C21818440   1.067   4.884   8.540 -0.5815  0.1687  0.3513
  164SOPE  H18R18441   1.153   4.821   8.509  0.4761  1.3356  0.8348
  164SOPE  H18S18442   1.064   4.986   8.499 -2.5516 -0.1921 -0.4968
  164SOPE  H18T18443   0.983   4.838   8.484 -1.0290  0.2520  0.9428
  164SOPE   C3318444  -0.059   4.616  10.094 -0.1522 -0.0554  0.4637
  164SOPE   H3X18445  -0.114   4.685  10.026  1.3876  0.3075 -0.4628
  164SOPE   H3Y18446  -0.115   4.520  10.097 -0.5073  0.0792 -0.9761
  164SOPE   C3418447   0.072   4.581  10.024  0.2599 -0.8865  0.6121
  164SOPE   H4X18448   0.143   4.521  10.085 -0.5983 -2.1764  0.3861
  164SOPE   H4Y18449   0.122   4.676   9.994  0.0566 -1.6719 -2.5499
  164SOPE   C3518450   0.056   4.505   9.897 -0.0177 -0.2341  0.8582
  164SOPE   H5X18451  -0.024   4.431   9.915  0.2484 -0.7540 -0.0538
  164SOPE   H5Y18452   0.154   4.459   9.870 -0.0441  0.4933 -0.5704
  164SOPE   C3618453   0.021   4.602   9.782 -0.0576 -0.7099 -0.3543
  164SOPE   H6X18454   0.107   4.668   9.758 -1.1278  1.3583  1.1697
  164SOPE   H6Y18455  -0.063   4.671   9.807  0.1094 -1.0916  1.3660
  164SOPE   C3718456  -0.019   4.533   9.654  0.2509  0.4000  0.7730
  164SOPE   H7X18457  -0.073   4.601   9.584  1.1241  1.4011  1.0433
  164SOPE   H7Y18458  -0.083   4.448   9.687 -0.4059  1.8007  3.4147
  164SOPE   C3818459   0.096   4.484   9.571 -0.0768  0.1842  0.6537
  164SOPE   H8X18460   0.153   4.399   9.614  1.8176  2.1713  2.3708
  164SOPE   H8Y18461   0.169   4.568   9.570 -0.4112  0.4907 -0.9281
  164SOPE   C3918462   0.047   4.441   9.431  0.2866  0.1189  0.1074
  164SOPE   H9X18463  -0.054   4.394   9.430  0.9053 -1.3322  1.4066
  164SOPE   H9Y18464   0.127   4.375   9.391  0.8563 -1.0996  2.9767
  164SOPE  C31018465   0.051   4.553   9.320  0.2178  0.2740 -0.1601
  164SOPE  H10X18466   0.144   4.613   9.314  0.6814 -0.5231 -1.2763
  164SOPE  H10Y18467  -0.028   4.628   9.343 -0.1158  0.8363 -2.8492
  164SOPE  C31118468   0.033   4.505   9.177  0.9398  0.1007 -0.3542
  164SOPE  H11X18469  -0.058   4.442   9.170  0.5377  0.6184  0.1503
  164SOPE  H11Y18470   0.122   4.442   9.158  2.3550  1.2936  1.8437
  164SOPE  C31218471   0.019   4.614   9.067  0.7058 -0.1425  0.2827
  164SOPE  H12X18472   0.118   4.665   9.065  0.2533  0.7762 -2.3642
  164SOPE  H12Y18473  -0.055   4.692   9.096  0.6376  0.1202 -0.5920
  164SOPE  C31318474  -0.016   4.556   8.929  0.2187  0.0383  0.3708
  164SOPE  H13X18475  -0.118   4.513   8.926  0.0908  0.0172  2.8158
  164SOPE  H13Y18476   0.064   4.482   8.909  0.0678 -0.6621  2.2130
  164SOPE  C31418477  -0.018   4.680   8.829 -0.5913 -0.0247 -0.4545
  164SOPE  H14X18478   0.075   4.738   8.847  0.0194 -1.2041  0.2979
  164SOPE  H14Y18479  -0.103   4.750   8.845  0.5965  0.8619  2.6537
  164SOPE  C31518480  -0.010   4.644   8.683  0.0064  0.2460  0.1250
  164SOPE  H15X18481  -0.098   4.582   8.655 -0.2113  1.5196 -2.2896
  164SOPE  H15Y18482   0.082   4.586   8.661 -0.7449 -0.0905 -2.4893
  164SOPE  C31618483  -0.012   4.762   8.589 -0.0466 -0.0296  0.5801
  164SOPE  H16X18484   0.077   4.828   8.591 -0.4020  0.4463  0.9261
  164SOPE  H16Y18485  -0.096   4.833   8.604  1.8593  2.9095 -1.6127
  164SOPE  C31718486  -0.011   4.723   8.435  0.3862  0.8030 -0.0649
  164SOPE  H17X18487  -0.016   4.824   8.389 -0.7133  0.8091  0.0539
  164SOPE  H17Y18488  -0.107   4.670   8.418 -0.5640  2.6208 -0.6880
  164SOPE  C31818489   0.112   4.643   8.381 -0.4599  0.4838 -0.2441
  164SOPE  H18X18490   0.202   4.708   8.386 -0.6630  0.6940  1.1929
  164SOPE  H18Y18491   0.098   4.614   8.275 -1.2601  2.1462 -0.6229
  164SOPE  H18Z18492   0.142   4.547   8.429  1.4441 -0.3196 -2.8144
  165SOPE     N18493   0.867   0.264  10.916  0.1445 -0.1234  0.1943
  165SOPE   HN118494   0.769   0.260  10.950  0.0927  0.2101  0.0937
  165SOPE   HN218495   0.932   0.266  10.998  0.2840  0.5240  0.0733
  165SOPE   HN318496   0.870   0.355  10.865 -0.6377  0.2188  0.7308
  165SOPE   C1218497   0.906   0.150  10.818 -0.5419  0.0037  0.1322
  165SOPE  H12A18498   0.961   0.069  10.869  0.8431  1.2566  0.6952
  165SOPE  H12B18499   0.976   0.191  10.742 -2.1964  0.7892 -1.0226
  165SOPE   C1118500   0.781   0.095  10.749  0.6633 -0.2902  0.4521
  165SOPE  H11A18501   0.812   0.013  10.682 -0.0092  0.2506 -0.5507
  165SOPE  H11B18502   0.737   0.171  10.680 -1.6710 -1.3604  0.6686
  165SOPE     P18503   0.566   0.113  10.894  0.4315 -0.0921 -0.2755
  165SOPE   O1318504   0.603   0.243  10.952 -0.7779  0.0355 -0.5586
  165SOPE   O1418505   0.486   0.015  10.977  0.1377  0.2251  0.4329
  165SOPE   O1218506   0.690   0.035  10.842 -0.5623  0.3879 -0.5806
  165SOPE   O1118507   0.475   0.149  10.771 -0.9617 -0.0364 -0.0043
  165SOPE    C118508   0.419   0.045  10.694  0.3234 -0.5468  0.0052
  165SOPE    HA18509   0.310   0.040  10.715  0.7555  1.0538  3.1883
  165SOPE    HB18510   0.468  -0.052  10.718  1.5017  0.0840  0.2090
  165SOPE    C218511   0.434   0.074  10.535  0.5894  0.4539 -0.6733
  165SOPE    HS18512   0.540   0.105  10.522  0.5532  0.5575 -0.7249
  165SOPE   O2118513   0.333   0.167  10.485 -0.1193  0.2907 -0.1324
  165SOPE   C2118514   0.381   0.271  10.414  0.4522  0.5533 -0.0226
  165SOPE   O2218515   0.502   0.291  10.401 -0.4591  0.4032  0.0777
  165SOPE   C2218516   0.263   0.360  10.387  0.0019  0.0302  0.3410
  165SOPE   H2R18517   0.300   0.454  10.432  3.2707 -1.7945  1.8339
  165SOPE   H2S18518   0.177   0.325  10.446 -0.6853 -0.9220 -1.1567
  165SOPE    C318519   0.430  -0.057  10.449  0.2775 -0.3542  1.0969
  165SOPE    HX18520   0.326  -0.094  10.457 -0.3068  0.5171 -1.3905
  165SOPE    HY18521   0.489  -0.145  10.483  0.2565 -0.4475  0.8958
  165SOPE   O3118522   0.447  -0.023  10.306  0.0864  0.8946  0.3098
  165SOPE   C3118523   0.573  -0.010  10.266 -0.5598  0.7731 -0.2585
  165SOPE   O3218524   0.672  -0.026  10.336  0.1495  0.2771 -0.3552
  165SOPE   C3218525   0.569   0.012  10.117  0.0743 -0.2558  0.2832
  165SOPE   H2X18526   0.512  -0.071  10.070 -1.4411 -0.1304  1.8151
  165SOPE   H2Y18527   0.672   0.006  10.074 -0.1881 -5.5239 -0.1652
  165SOPE   C2318528   0.224   0.392  10.241  0.1189  0.3246  0.2826
  165SOPE   H3R18529   0.320   0.385  10.186  0.4947 -1.7988  1.1071
  165SOPE   H3S18530   0.178   0.493  10.231  1.9406  1.3149  1.2276
  165SOPE   C2418531   0.144   0.287  10.173  0.6710  0.0626  0.7171
  165SOPE   H4R18532   0.179   0.190  10.214 -0.9103 -0.2159  1.4993
  165SOPE   H4S18533   0.040   0.299  10.212  0.7806 -1.3247  1.4907
  165SOPE   C2518534   0.143   0.278  10.019 -0.7586 -0.0577  0.2728
  165SOPE   H5R18535   0.240   0.302   9.969 -0.5106  1.1020  1.2702
  165SOPE   H5S18536   0.117   0.174   9.990  1.8925 -0.4997 -0.8417
  165SOPE   C2618537   0.041   0.371   9.954 -0.4676 -0.0942  0.0591
  165SOPE   H6R18538  -0.054   0.362  10.010 -0.3836 -1.9507 -0.0621
  165SOPE   H6S18539   0.073   0.476   9.973 -0.2549 -0.4979  2.2390
  165SOPE   C2718540   0.018   0.344   9.803 -0.5091 -0.6914  0.0474
  165SOPE   H7R18541   0.103   0.388   9.747 -2.2647  1.4397 -1.0998
  165SOPE   H7S18542   0.027   0.234   9.791  2.5838 -0.3417 -2.1392
  165SOPE   C2818543  -0.121   0.392   9.752  0.4232  0.5931 -0.7530
  165SOPE   H8R18544  -0.191   0.353   9.830  0.1692 -0.1779 -1.3580
  165SOPE   H8S18545  -0.126   0.502   9.766  1.1967  0.4488  0.9719
  165SOPE   C2918546  -0.156   0.344   9.613  0.2564  0.8701  0.0010
  165SOPE   H9118547  -0.073   0.376   9.548  0.1084  2.7322  0.6524
  165SOPE  C21018548  -0.273   0.287   9.576 -0.5671 -0.3164  0.5498
  165SOPE  H10118549  -0.292   0.252   9.473 -2.7759 -0.8518  1.0913
  165SOPE  C21118550  -0.381   0.257   9.670  0.0362  0.0149  0.6777
  165SOPE  H11R18551  -0.421   0.345   9.723  0.5802  1.4483 -1.1727
  165SOPE  H11S18552  -0.348   0.181   9.743  0.0650 -0.8920 -0.2491
  165SOPE  C21218553  -0.496   0.183   9.595 -0.6737 -0.3476 -0.8951
  165SOPE  H12R18554  -0.557   0.144   9.679  0.3454 -0.5151 -0.2074
  165SOPE  H12S18555  -0.468   0.090   9.541 -2.5362 -1.0391 -0.7572
  165SOPE  C21318556  -0.583   0.274   9.507  0.5293  0.4320  0.0031
  165SOPE  H13R18557  -0.516   0.325   9.434  0.1390  1.8661  0.6214
  165SOPE  H13S18558  -0.614   0.355   9.576  2.9316  0.6349  0.9487
  165SOPE  C21418559  -0.709   0.206   9.448  0.7663  0.6456  0.5648
  165SOPE  H14R18560  -0.666   0.149   9.364 -0.0646  0.0473  0.5303
  165SOPE  H14S18561  -0.783   0.272   9.397  1.1525  0.4499 -0.2618
  165SOPE  C21518562  -0.777   0.105   9.538 -0.1690  0.0325 -0.7398
  165SOPE  H15R18563  -0.815   0.155   9.629 -0.9650 -1.7785 -0.0387
  165SOPE  H15S18564  -0.704   0.029   9.575  3.1578  1.9465 -2.7904
  165SOPE  C21618565  -0.888   0.036   9.465  0.6180 -0.4445 -0.2233
  165SOPE  H16R18566  -0.844  -0.014   9.377  0.2340 -1.6809  0.2690
  165SOPE  H16S18567  -0.951   0.120   9.428 -0.0115  0.1724  2.0582
  165SOPE  C21718568  -0.968  -0.061   9.547 -0.1254 -0.3693  0.0948
  165SOPE  H17R18569  -1.054  -0.085   9.481  1.8966  1.1822 -3.3999
  165SOPE  H17S18570  -1.013  -0.014   9.636 -0.0577 -0.4836  0.1898
  165SOPE  C21818571  -0.903  -0.198   9.584  0.5438 -0.0806  0.0207
  165SOPE  H18R18572  -0.813  -0.187   9.647  1.2304 -0.0520 -0.9360
  165SOPE  H18S18573  -0.874  -0.252   9.491  0.4867 -0.5292  0.2586
  165SOPE  H18T18574  -0.978  -0.257   9.641 -1.4022 -1.9099 -3.9538
  165SOPE   C3318575   0.501   0.149  10.088 -0.0095 -0.4079 -0.5855
  165SOPE   H3X18576   0.526   0.233  10.156 -2.4631  0.9371 -1.2369
  165SOPE   H3Y18577   0.393   0.135  10.105  0.1860  0.5671  1.7803
  165SOPE   C3418578   0.531   0.202   9.948  0.2066 -0.4055  0.7791
  165SOPE   H4X18579   0.642   0.202   9.945  0.3156 -2.4812  2.3536
  165SOPE   H4Y18580   0.491   0.305   9.942  0.9357 -0.1626 -0.0404
  165SOPE   C3518581   0.475   0.113   9.837 -0.1948 -0.5844 -0.7573
  165SOPE   H5X18582   0.368   0.103   9.868 -0.2010  1.5681  0.0593
  165SOPE   H5Y18583   0.514   0.009   9.843 -1.5331 -1.0697  0.3179
  165SOPE   C3618584   0.488   0.183   9.702  0.3137  0.3346  0.4056
  165SOPE   H6X18585   0.519   0.115   9.620 -0.1386  1.4706 -0.7407
  165SOPE   H6Y18586   0.557   0.268   9.720  2.9889 -1.9207  1.5162
  165SOPE   C3718587   0.349   0.225   9.646  0.1735  0.5777 -0.2620
  165SOPE   H7X18588   0.374   0.286   9.556  0.1483 -1.5086 -1.7669
  165SOPE   H7Y18589   0.309   0.297   9.720 -0.3924  1.1004 -1.0675
  165SOPE   C3818590   0.256   0.109   9.605  0.1212  0.4256 -0.4531
  165SOPE   H8X18591   0.152   0.147   9.603 -0.0512  0.3551  2.3895
  165SOPE   H8Y18592   0.248   0.027   9.680  0.3923 -0.4141 -1.3255
  165SOPE   C3918593   0.290   0.026   9.475 -0.2035 -0.3849  0.2217
  165SOPE   H9X18594   0.202  -0.041   9.471 -1.8177  1.4966  2.0197
  165SOPE   H9Y18595   0.377  -0.040   9.494 -0.2926 -0.5547  0.0497
  165SOPE  C31018596   0.305   0.108   9.344  0.2759 -0.1727 -0.0738
  165SOPE  H10X18597   0.396   0.169   9.365  0.2221 -0.2312  0.3284
  165SOPE  H10Y18598   0.218   0.173   9.320  0.8105  0.1832 -1.1170
  165SOPE  C31118599   0.301   0.017   9.224  0.0253 -0.1755  0.1935
  165SOPE  H11X18600   0.199  -0.019   9.200  0.0449  0.0893 -0.2935
  165SOPE  H11Y18601   0.371  -0.069   9.232 -0.8138 -0.8881  0.0031
  165SOPE  C31218602   0.356   0.096   9.099  0.1549 -0.0024 -0.6401
  165SOPE  H12X18603   0.443   0.160   9.123 -1.6073  1.2862  3.0028
  165SOPE  H12Y18604   0.268   0.160   9.072 -0.6128 -1.0539 -0.6761
  165SOPE  C31318605   0.386   0.007   8.983  0.4512 -0.0815  0.5070
  165SOPE  H13X18606   0.302  -0.062   8.959  0.5300  0.5229 -1.7116
  165SOPE  H13Y18607   0.466  -0.068   9.005  0.2425  0.1964  2.4218
  165SOPE  C31418608   0.438   0.091   8.864 -0.0674  0.2120  0.2248
  165SOPE  H14X18609   0.527   0.144   8.903 -0.7787  1.5006  0.1620
  165SOPE  H14Y18610   0.371   0.172   8.828 -0.5302 -1.5295 -3.2734
  165SOPE  C31518611   0.460  -0.005   8.742  0.3679 -0.3542  0.7246
  165SOPE  H15X18612   0.499  -0.105   8.770  0.3135 -0.3111  0.9536
  165SOPE  H15Y18613   0.537   0.036   8.672 -1.4478  0.6527 -0.7779
  165SOPE  C31618614   0.337  -0.032   8.656 -0.4000 -0.3531  0.6974
  165SOPE  H16X18615   0.318   0.051   8.585  5.4840  0.1770 -0.7559
  165SOPE  H16Y18616   0.249  -0.062   8.717 -0.6544 -3.4063 -0.9938
  165SOPE  C31718617   0.361  -0.158   8.569  0.7087 -0.6373  0.6057
  165SOPE  H17X18618   0.370  -0.245   8.638  0.8797  0.4057  1.9459
  165SOPE  H17Y18619   0.459  -0.151   8.517  0.6567 -2.6622  0.1402
  165SOPE  C31818620   0.250  -0.194   8.476  0.9245 -0.7988  1.0451
  165SOPE  H18X18621   0.227  -0.113   8.404 -0.3892  0.3894  2.7245
  165SOPE  H18Y18622   0.160  -0.216   8.538  0.1428 -0.9789 -0.1250
  165SOPE  H18Z18623   0.275  -0.286   8.419 -0.0650 -0.8259  0.6455
  166SOPE     N18624   5.077   6.681  10.538 -0.5053  0.1386  0.5555
  166SOPE   HN118625   5.162   6.630  10.506  0.3802  1.2066  1.1102
  166SOPE   HN218626   4.996   6.653  10.479  0.1894  1.2344 -0.9872
  166SOPE   HN318627   5.096   6.783  10.530  0.5801 -0.1383 -0.9510
  166SOPE   C1218628   5.044   6.639  10.681  0.5977  0.5572  1.0155
  166SOPE  H12A18629   5.027   6.529  10.678  0.7170  0.5247  1.5074
  166SOPE  H12B18630   4.948   6.688  10.708 -0.6300 -1.8665  1.3657
  166SOPE   C1118631   5.151   6.679  10.781 -0.0445  0.3166  0.4484
  166SOPE  H11A18632   5.123   6.620  10.871 -3.0209 -2.2758 -1.9302
  166SOPE  H11B18633   5.154   6.788  10.802  1.5601  0.0402  1.8753
  166SOPE     P18634   5.394   6.586  10.825 -0.1915 -0.0524  0.1439
  166SOPE   O1318635   5.365   6.443  10.863 -1.1101  0.1487 -0.0999
  166SOPE   O1418636   5.420   6.678  10.939 -0.0170  0.0619 -0.0856
  166SOPE   O1218637   5.277   6.642  10.732  0.3010  0.4417  0.2032
  166SOPE   O1118638   5.524   6.591  10.733  0.3138  0.4629 -0.1181
  166SOPE    C118639   5.546   6.707  10.654 -0.3046  0.7269 -0.5111
  166SOPE    HA18640   5.656   6.721  10.648  0.4703 -2.1364  3.1092
  166SOPE    HB18641   5.498   6.791  10.708 -1.3392  1.4003 -2.3841
  166SOPE    C218642   5.487   6.710  10.514  0.0482  0.3851  0.8024
  166SOPE    HS18643   5.385   6.753  10.512  0.5760  1.7787 -2.6370
  166SOPE   O2118644   5.483   6.567  10.478 -0.0690  0.3906 -0.2090
  166SOPE   C2118645   5.394   6.534  10.388 -0.2056 -0.1804  0.1404
  166SOPE   O2218646   5.293   6.600  10.360 -0.0330 -0.5491  0.2210
  166SOPE   C2218647   5.440   6.406  10.320  0.0720  0.6894 -0.4482
  166SOPE   H2R18648   5.477   6.336  10.398  2.2206  1.1479 -0.9761
  166SOPE   H2S18649   5.520   6.435  10.248  0.5272  0.7244  0.0571
  166SOPE    C318650   5.564   6.783  10.408  0.2687 -0.1368  0.1406
  166SOPE    HX18651   5.658   6.724  10.401  1.4928  1.5787  1.3266
  166SOPE    HY18652   5.604   6.880  10.446 -0.7643 -0.3308  1.8082
  166SOPE   O3118653   5.485   6.799  10.280 -0.2665 -0.0984 -0.0317
  166SOPE   C3118654   5.423   6.916  10.271 -0.3103  0.4779  0.7019
  166SOPE   O3218655   5.419   7.001  10.359 -0.1838 -0.3380  0.2827
  166SOPE   C3218656   5.355   6.932  10.138 -0.2347 -0.7241  0.1789
  166SOPE   H2X18657   5.431   6.911  10.060  2.3682  0.5536  2.2337
  166SOPE   H2Y18658   5.331   7.040  10.142 -2.0286 -1.1231  1.1397
  166SOPE   C2318659   5.318   6.349  10.236 -0.5966  0.8246  0.5425
  166SOPE   H3R18660   5.276   6.428  10.170 -0.7852 -0.8577 -1.4913
  166SOPE   H3S18661   5.231   6.324  10.300 -1.7783  0.2783 -1.2106
  166SOPE   C2418662   5.367   6.227  10.148  0.9231  0.1126 -0.5449
  166SOPE   H4R18663   5.455   6.254  10.087  2.6797 -3.5605  0.1213
  166SOPE   H4S18664   5.396   6.135  10.203  0.1191 -0.7239 -1.4803
  166SOPE   C2518665   5.252   6.191  10.051  0.2497 -0.0840 -0.0068
  166SOPE   H5R18666   5.154   6.198  10.102  0.2534 -1.7569  0.2698
  166SOPE   H5S18667   5.254   6.277   9.980  0.5663  0.7644  0.9857
  166SOPE   C2618668   5.271   6.061   9.978  0.2215  0.0812 -0.3857
  166SOPE   H6R18669   5.377   6.049   9.947  0.4327 -0.1095  0.3825
  166SOPE   H6S18670   5.245   5.980  10.049 -0.9346  0.1092 -0.7596
  166SOPE   C2718671   5.164   6.030   9.867 -1.2372  0.2846  0.4880
  166SOPE   H7R18672   5.198   5.932   9.826  1.5930  1.3793 -0.0310
  166SOPE   H7S18673   5.063   6.022   9.912 -0.3443 -1.3997  2.3900
  166SOPE   C2818674   5.152   6.130   9.750 -0.1098 -0.4875  0.0706
  166SOPE   H8R18675   5.061   6.113   9.688 -0.9061  1.2652  0.6863
  166SOPE   H8S18676   5.135   6.228   9.798 -0.5709 -0.2263 -0.6166
  166SOPE   C2918677   5.269   6.138   9.658 -0.2633 -0.4815 -0.3968
  166SOPE   H9118678   5.363   6.141   9.715 -0.5209  0.3069  0.0115
  166SOPE  C21018679   5.276   6.134   9.523 -0.3494  0.5143 -0.3424
  166SOPE  H10118680   5.370   6.145   9.467 -1.4063  0.0930 -2.3187
  166SOPE  C21118681   5.160   6.120   9.426 -0.0835  0.2631 -0.2372
  166SOPE  H11R18682   5.065   6.133   9.482 -0.8509  3.0844 -1.9709
  166SOPE  H11S18683   5.168   6.013   9.397 -0.9344  0.1991 -0.2592
  166SOPE  C21218684   5.167   6.214   9.310 -0.0057 -1.0885  0.1150
  166SOPE  H12R18685   5.205   6.310   9.352 -0.8256 -1.5485  2.0629
  166SOPE  H12S18686   5.066   6.232   9.266  0.9423  2.3058 -0.9871
  166SOPE  C21318687   5.258   6.153   9.207  0.0763  0.5761  0.0572
  166SOPE  H13R18688   5.212   6.057   9.174  0.0960  1.2622 -2.1769
  166SOPE  H13S18689   5.363   6.136   9.241  2.1060  1.9596 -4.6018
  166SOPE  C21418690   5.263   6.241   9.080 -0.9140 -0.1528 -1.1016
  166SOPE  H14R18691   5.335   6.323   9.099  0.0773 -0.9270 -1.4043
  166SOPE  H14S18692   5.160   6.279   9.067 -0.9117  0.7068  0.9669
  166SOPE  C21518693   5.295   6.166   8.954 -0.1951 -0.4812 -0.1533
  166SOPE  H15R18694   5.261   6.240   8.878  0.9785 -0.0601 -0.2832
  166SOPE  H15S18695   5.240   6.070   8.947 -1.6947 -0.0336  3.5282
  166SOPE  C21618696   5.445   6.156   8.921  0.2217 -0.5102  0.1364
  166SOPE  H16R18697   5.483   6.075   8.985 -1.0600 -0.5907  0.8286
  166SOPE  H16S18698   5.506   6.246   8.944  0.2191 -1.0563  2.4303
  166SOPE  C21718699   5.463   6.129   8.769  0.0127  0.7808  0.0790
  166SOPE  H17R18700   5.400   6.195   8.706  0.7115  1.2098 -0.1912
  166SOPE  H17S18701   5.443   6.021   8.755  0.5204  0.8331 -1.2293
  166SOPE  C21818702   5.610   6.158   8.704  0.0810 -0.4981  0.0764
  166SOPE  H18R18703   5.690   6.092   8.743  1.9905  0.4228 -2.0744
  166SOPE  H18S18704   5.630   6.264   8.730 -0.7865 -0.0912 -0.8561
  166SOPE  H18T18705   5.594   6.146   8.594  0.7847 -0.0795 -0.0782
  166SOPE   C3318706   5.230   6.842  10.121 -0.2510  0.8131 -0.1931
  166SOPE   H3X18707   5.151   6.859  10.196 -1.4199 -2.1359 -0.6053
  166SOPE   H3Y18708   5.253   6.737  10.149 -1.8566  0.4223 -0.2486
  166SOPE   C3418709   5.160   6.842   9.975  0.3821  0.6874 -0.2090
  166SOPE   H4X18710   5.053   6.831  10.004  0.4205  2.6585  0.9126
  166SOPE   H4Y18711   5.198   6.754   9.919 -0.9712 -0.8347  1.1742
  166SOPE   C3518712   5.174   6.967   9.881 -0.3261  0.1370 -0.4985
  166SOPE   H5X18713   5.279   6.965   9.843  0.2751 -1.0456  1.1377
  166SOPE   H5Y18714   5.146   7.063   9.929  0.4109  0.1049  0.0073
  166SOPE   C3618715   5.077   6.945   9.762 -0.4705  0.5259  0.3798
  166SOPE   H6X18716   4.974   6.935   9.802 -0.6361  3.3956  0.9177
  166SOPE   H6Y18717   5.098   6.855   9.701  2.9172  0.4838  1.4296
  166SOPE   C3718718   5.083   7.068   9.672 -0.5579  0.0308  0.1631
  166SOPE   H7X18719   5.188   7.089   9.645 -1.3008  1.4770 -1.8580
  166SOPE   H7Y18720   5.049   7.155   9.732  0.3154 -1.0502  2.3292
  166SOPE   C3818721   5.001   7.046   9.543 -0.6310  0.1136  0.2540
  166SOPE   H8X18722   4.894   7.027   9.569 -0.9250 -0.2106 -1.1348
  166SOPE   H8Y18723   5.053   6.962   9.492  0.8534  1.8216 -1.1838
  166SOPE   C3918724   5.011   7.161   9.445 -0.1967  0.2937 -0.0700
  166SOPE   H9X18725   5.113   7.172   9.402 -0.8367 -1.3600 -2.1979
  166SOPE   H9Y18726   4.996   7.253   9.505 -0.5826  1.6439 -2.1333
  166SOPE  C31018727   4.908   7.152   9.331  0.2602  0.6406  0.2263
  166SOPE  H10X18728   4.873   7.253   9.301  0.5949  0.5521 -0.4983
  166SOPE  H10Y18729   4.825   7.093   9.376  0.7778 -0.9913 -0.8458
  166SOPE  C31118730   4.982   7.083   9.211  0.5811  0.1341  0.2081
  166SOPE  H11X18731   4.894   7.044   9.156  0.4889 -0.1034  0.5199
  166SOPE  H11Y18732   5.029   6.995   9.260 -1.4269 -1.1280 -0.0616
  166SOPE  C31218733   5.073   7.173   9.133  0.2174 -0.0828  0.1741
  166SOPE  H12X18734   5.156   7.220   9.191  1.5012 -0.2377 -1.4668
  166SOPE  H12Y18735   5.017   7.260   9.093  0.9945  0.4453  0.2041
  166SOPE  C31318736   5.136   7.105   9.011  0.6863 -0.3834  0.4569
  166SOPE  H13X18737   5.044   7.059   8.969 -0.3316  3.4214 -2.1123
  166SOPE  H13Y18738   5.207   7.028   9.047  0.3806  0.3749  2.8253
  166SOPE  C31418739   5.207   7.199   8.908  0.2129  0.0612 -0.1178
  166SOPE  H14X18740   5.303   7.214   8.962  0.1374 -1.8745  0.6144
  166SOPE  H14Y18741   5.153   7.296   8.911 -0.4268 -0.3144  1.1210
  166SOPE  C31518742   5.238   7.156   8.772 -0.0146  1.0566  0.3655
  166SOPE  H15X18743   5.249   7.243   8.704  3.6032  0.6641  0.2915
  166SOPE  H15Y18744   5.150   7.095   8.742 -0.0061  0.9535  0.5453
  166SOPE  C31618745   5.365   7.066   8.757 -0.6596  0.5302 -0.0865
  166SOPE  H16X18746   5.370   6.984   8.832  3.8098  0.7603  0.1297
  166SOPE  H16Y18747   5.463   7.118   8.768  0.5336 -0.5208 -4.0684
  166SOPE  C31718748   5.372   6.985   8.627 -0.2848 -0.8595 -0.0289
  166SOPE  H17X18749   5.367   7.056   8.542  0.0880 -2.1486 -1.1668
  166SOPE  H17Y18750   5.288   6.913   8.611 -0.6775 -0.0154 -2.0922
  166SOPE  C31818751   5.497   6.899   8.616 -0.1446 -0.2191  0.6711
  166SOPE  H18X18752   5.523   6.850   8.712  2.0454 -1.1939 -0.3532
  166SOPE  H18Y18753   5.585   6.954   8.575  1.9774 -2.3638  2.0881
  166SOPE  H18Z18754   5.481   6.818   8.543  2.0196 -0.1297  0.0286
  167SOPE     N18755   4.801   4.955   6.043  0.0717  0.2214 -0.7900
  167SOPE   HN118756   4.807   4.942   6.146 -0.7474 -0.4927 -0.8185
  167SOPE   HN218757   4.730   5.031   6.040  0.6018  0.9847  2.1966
  167SOPE   HN318758   4.768   4.867   5.998  1.1255 -0.0093 -1.1487
  167SOPE   C1218759   4.938   4.995   5.980 -0.1620  0.1749 -0.5251
  167SOPE  H12A18760   4.960   5.098   6.015  1.1075  0.5842 -2.4171
  167SOPE  H12B18761   4.927   4.985   5.870  1.2477 -1.0173 -0.5917
  167SOPE   C1118762   5.052   4.920   6.036  0.5494 -0.2836 -0.0314
  167SOPE  H11A18763   5.074   4.924   6.145 -0.5024  0.0595  0.1772
  167SOPE  H11B18764   5.146   4.964   5.996  0.6488 -0.3183  0.1577
  167SOPE     P18765   5.134   4.659   6.000 -0.1419  0.2225  0.2115
  167SOPE   O1318766   5.252   4.679   5.910 -0.3108  0.4706  0.2096
  167SOPE   O1418767   5.054   4.531   5.993 -0.0364  0.3272  0.3874
  167SOPE   O1218768   5.040   4.784   5.991 -0.0450 -0.6040  0.1344
  167SOPE   O1118769   5.184   4.686   6.151  0.0121 -0.4825 -0.5115
  167SOPE    C118770   5.112   4.622   6.253 -0.3012 -0.1927 -0.3007
  167SOPE    HA18771   5.116   4.511   6.254  3.0411 -0.1511  0.4614
  167SOPE    HB18772   5.007   4.652   6.232  0.2153  0.8758 -1.4868
  167SOPE    C218773   5.157   4.669   6.387  0.0310 -0.0880 -0.5755
  167SOPE    HS18774   5.150   4.779   6.391  0.2897 -0.0997  0.4047
  167SOPE   O2118775   5.293   4.623   6.413  0.1430  0.7713 -0.8075
  167SOPE   C2118776   5.370   4.714   6.464  0.2114 -0.2241  0.1509
  167SOPE   O2218777   5.334   4.824   6.511 -0.5334  0.3252  0.2129
  167SOPE   C2218778   5.513   4.659   6.478  0.2476 -0.0362  0.1599
  167SOPE   H2R18779   5.566   4.669   6.381  0.7132  1.0882  0.5137
  167SOPE   H2S18780   5.509   4.550   6.499  2.2290 -0.8861 -3.1192
  167SOPE    C318781   5.060   4.621   6.502 -0.3378 -0.9879 -0.1532
  167SOPE    HX18782   5.082   4.512   6.508  0.1693 -0.8820 -0.0576
  167SOPE    HY18783   4.951   4.612   6.481 -0.5034 -1.9174  0.9893
  167SOPE   O3118784   5.083   4.688   6.628  0.9225 -0.0010  0.5973
  167SOPE   C3118785   5.068   4.625   6.740 -0.6519  1.1416 -0.2773
  167SOPE   O3218786   5.026   4.505   6.744  0.6324 -0.3178 -0.1247
  167SOPE   C3218787   5.098   4.704   6.868 -0.6017  0.0085 -0.3259
  167SOPE   H2X18788   5.013   4.773   6.885 -0.7523 -0.6554  1.8744
  167SOPE   H2Y18789   5.188   4.761   6.834 -0.3821 -0.5716 -0.7404
  167SOPE   C2318790   5.586   4.744   6.582  0.3255 -0.1314  0.3903
  167SOPE   H3R18791   5.580   4.853   6.563  0.7134  0.1123  1.5961
  167SOPE   H3S18792   5.693   4.716   6.566  0.5840  1.0083  0.0740
  167SOPE   C2418793   5.564   4.726   6.727  0.2653  0.0493  0.7873
  167SOPE   H4R18794   5.455   4.730   6.748  0.0548  0.2573 -0.2873
  167SOPE   H4S18795   5.586   4.619   6.750 -2.0642 -0.3753  1.2836
  167SOPE   C2518796   5.641   4.819   6.811 -0.1780 -0.2481 -0.3957
  167SOPE   H5R18797   5.748   4.798   6.792 -0.0538  1.3317 -1.6112
  167SOPE   H5S18798   5.620   4.924   6.782  0.1448 -0.4138 -1.2674
  167SOPE   C2618799   5.594   4.818   6.957 -0.2731  0.6255  0.4209
  167SOPE   H6R18800   5.487   4.845   6.970 -0.7195 -1.1283  0.6743
  167SOPE   H6S18801   5.599   4.712   6.988  0.9219  0.8997  1.1989
  167SOPE   C2718802   5.681   4.886   7.061  0.5131  0.7190 -0.6580
  167SOPE   H7R18803   5.789   4.864   7.049  0.4198  0.0182 -0.2410
  167SOPE   H7S18804   5.672   4.995   7.039 -0.9781  0.7692  0.0444
  167SOPE   C2818805   5.621   4.867   7.200  0.1493 -0.0114 -0.5936
  167SOPE   H8R18806   5.676   4.914   7.284 -3.5837  1.0811  1.4802
  167SOPE   H8S18807   5.522   4.918   7.208 -1.2299 -2.6932  0.9218
  167SOPE   C2918808   5.614   4.724   7.240 -0.3683  0.2676  1.0834
  167SOPE   H9118809   5.680   4.646   7.199 -0.7859 -0.3825  1.6219
  167SOPE  C21018810   5.543   4.677   7.341  0.2806  0.4388 -0.6093
  167SOPE  H10118811   5.538   4.571   7.372 -1.3100  0.3416 -1.1319
  167SOPE  C21118812   5.459   4.762   7.432  0.7837  0.5258 -0.2608
  167SOPE  H11R18813   5.359   4.718   7.415  1.8265 -1.7324 -0.8376
  167SOPE  H11S18814   5.466   4.867   7.394  2.4022  1.1813  1.6710
  167SOPE  C21218815   5.497   4.748   7.586 -0.2288 -0.3594  0.3116
  167SOPE  H12R18816   5.425   4.809   7.645  1.4891  1.2629  0.8185
  167SOPE  H12S18817   5.594   4.802   7.593 -1.1170  1.3200  0.3472
  167SOPE  C21318818   5.511   4.615   7.653  0.5775  0.5507  0.0699
  167SOPE  H13R18819   5.598   4.564   7.605  0.1755 -0.4924  0.4114
  167SOPE  H13S18820   5.418   4.556   7.640 -0.2209  1.3431  1.8831
  167SOPE  C21418821   5.538   4.633   7.807  0.4283  0.5872  0.5370
  167SOPE  H14R18822   5.466   4.704   7.853 -0.4742  0.7965 -1.1252
  167SOPE  H14S18823   5.645   4.662   7.822  0.8048 -0.8295  0.7300
  167SOPE  C21518824   5.509   4.499   7.881  0.5095 -0.7208  0.3217
  167SOPE  H15R18825   5.570   4.425   7.824  1.7385 -0.3857  1.1579
  167SOPE  H15S18826   5.402   4.475   7.866  0.5734  0.0938 -1.8587
  167SOPE  C21618827   5.545   4.505   8.029 -0.6226  1.1717 -0.5336
  167SOPE  H16R18828   5.493   4.593   8.073 -1.4800  1.1040 -1.3639
  167SOPE  H16S18829   5.652   4.517   8.054 -0.2937 -0.3650 -1.1012
  167SOPE  C21718830   5.502   4.383   8.122  0.1084  0.9053 -0.5138
  167SOPE  H17R18831   5.543   4.290   8.076  2.9090  1.0135  1.5485
  167SOPE  H17S18832   5.391   4.381   8.115 -0.0318 -2.4062  0.7876
  167SOPE  C21818833   5.573   4.387   8.255 -0.0964  0.6218  0.0033
  167SOPE  H18R18834   5.677   4.422   8.239 -0.0243 -0.4606 -2.2417
  167SOPE  H18S18835   5.579   4.288   8.306  2.2752 -0.6584 -2.4852
  167SOPE  H18T18836   5.523   4.456   8.326 -0.3308  1.1811 -0.6913
  167SOPE   C3318837   5.120   4.604   6.983 -0.1668 -0.3762  0.5009
  167SOPE   H3X18838   5.185   4.517   6.960 -2.9846 -2.3898 -0.4292
  167SOPE   H3Y18839   5.019   4.564   7.007  0.4663 -1.4787  1.4499
  167SOPE   C3418840   5.158   4.688   7.105  0.2741  0.0426 -0.2415
  167SOPE   H4X18841   5.254   4.739   7.083  0.1395  0.1988 -0.4711
  167SOPE   H4Y18842   5.175   4.622   7.192  2.0489  0.7709  0.0017
  167SOPE   C3518843   5.046   4.797   7.146 -0.2815 -0.6744 -0.0926
  167SOPE   H5X18844   4.944   4.762   7.118 -0.4839  1.4040 -2.2522
  167SOPE   H5Y18845   5.053   4.888   7.083  0.3406 -0.8250 -0.2531
  167SOPE   C3618846   5.034   4.842   7.300 -0.1111  0.2543  0.6347
  167SOPE   H6X18847   4.961   4.925   7.307 -0.5107 -0.2163  2.7366
  167SOPE   H6Y18848   5.130   4.896   7.314  0.2874  0.3219 -1.9630
  167SOPE   C3718849   5.029   4.739   7.409 -0.1616  0.6481 -0.1474
  167SOPE   H7X18850   5.120   4.675   7.409 -2.4480 -2.9109 -0.3988
  167SOPE   H7Y18851   4.942   4.669   7.406  0.4995 -0.3135  1.7446
  167SOPE   C3818852   4.991   4.787   7.555 -0.1439 -0.0220 -0.2326
  167SOPE   H8X18853   4.991   4.702   7.626  0.8192  2.0098  2.3528
  167SOPE   H8Y18854   4.893   4.838   7.549  0.4255  1.0288 -0.9376
  167SOPE   C3918855   5.100   4.871   7.618  0.4595 -0.7251  0.8135
  167SOPE   H9X18856   5.198   4.849   7.571  0.0038  2.2219 -1.8499
  167SOPE   H9Y18857   5.108   4.842   7.725 -1.4512  0.4354  1.3305
  167SOPE  C31018858   5.075   5.017   7.612 -0.2047 -0.1932  0.3086
  167SOPE  H10X18859   4.971   5.032   7.647 -0.6240 -0.8343 -0.6199
  167SOPE  H10Y18860   5.084   5.053   7.507  1.6803  0.5563  0.6899
  167SOPE  C31118861   5.159   5.120   7.698 -0.6232 -0.7519 -0.3902
  167SOPE  H11X18862   5.265   5.126   7.667 -0.7183 -0.5106 -0.6813
  167SOPE  H11Y18863   5.157   5.071   7.797 -1.1005  0.4378  0.2160
  167SOPE  C31218864   5.105   5.266   7.724 -0.2625  0.5128 -0.9510
  167SOPE  H12X18865   5.005   5.270   7.774 -0.9722 -0.4248 -2.2521
  167SOPE  H12Y18866   5.109   5.319   7.627 -0.6999  0.8593 -0.7869
  167SOPE  C31318867   5.199   5.346   7.828  0.3579  0.2153  0.8078
  167SOPE  H13X18868   5.160   5.450   7.820 -0.9925 -0.4476 -4.0435
  167SOPE  H13Y18869   5.307   5.350   7.803 -0.4122  0.9080 -2.9681
  167SOPE  C31418870   5.182   5.296   7.969 -0.3129  0.2908 -0.9311
  167SOPE  H14X18871   5.245   5.207   7.989 -2.0203 -0.4923  1.3169
  167SOPE  H14Y18872   5.079   5.257   7.984  0.7941 -2.4100  0.2784
  167SOPE  C31518873   5.198   5.410   8.066 -0.0486  0.7848  0.0385
  167SOPE  H15X18874   5.123   5.483   8.029 -1.1906  0.3198  1.3322
  167SOPE  H15Y18875   5.298   5.451   8.043  0.0080 -0.4345 -2.1336
  167SOPE  C31618876   5.197   5.390   8.217  0.4794 -0.2805 -0.7005
  167SOPE  H16X18877   5.239   5.479   8.267 -0.6296 -0.3082  0.3073
  167SOPE  H16Y18878   5.255   5.297   8.237 -1.6476 -1.5119  0.1246
  167SOPE  C31718879   5.050   5.378   8.287 -0.6856  0.0181 -0.3587
  167SOPE  H17X18880   5.008   5.288   8.237 -1.6215  1.0674 -1.5179
  167SOPE  H17Y18881   4.986   5.463   8.257 -1.1487 -0.5794 -1.1236
  167SOPE  C31818882   5.060   5.361   8.445  0.4300 -0.3738  0.0744
  167SOPE  H18X18883   4.968   5.328   8.498  2.3131 -2.5678  2.2377
  167SOPE  H18Y18884   5.092   5.464   8.473  2.4195 -0.6034 -1.1752
  167SOPE  H18Z18885   5.144   5.296   8.476 -0.3140 -1.0714  0.6768
  168SOPE     N18886   4.940   0.434   6.653  0.1647  0.2136  0.4559
  168SOPE   HN118887   5.012   0.364   6.680  1.1224  0.0161 -2.2832
  168SOPE   HN218888   4.972   0.517   6.707 -0.5076  1.8847 -1.5767
  168SOPE   HN318889   4.845   0.411   6.690  0.4657 -1.0939  0.4785
  168SOPE   C1218890   4.951   0.464   6.508  0.0256  0.2907  0.6224
  168SOPE  H12A18891   4.953   0.368   6.453  0.2245 -0.1255  1.3429
  168SOPE  H12B18892   5.052   0.511   6.498 -0.2998  1.1375  1.2245
  168SOPE   C1118893   4.837   0.558   6.473 -0.0961 -0.3202  0.1161
  168SOPE  H11A18894   4.860   0.609   6.377 -0.6215 -1.1497 -0.4690
  168SOPE  H11B18895   4.827   0.637   6.551  0.0062  0.3844 -0.5715
  168SOPE     P18896   4.580   0.536   6.402  0.4113 -0.1400  0.0245
  168SOPE   O1318897   4.571   0.504   6.262 -0.1564  0.4385  0.3177
  168SOPE   O1418898   4.574   0.684   6.425 -0.0677 -0.1404 -0.0435
  168SOPE   O1218899   4.716   0.479   6.457 -0.0924 -0.3396  0.0769
  168SOPE   O1118900   4.473   0.462   6.494 -0.2573  0.2013  0.0152
  168SOPE    C118901   4.510   0.352   6.587 -0.6975  0.6901 -0.3333
  168SOPE    HA18902   4.597   0.291   6.554 -2.2917 -2.2917  0.5313
  168SOPE    HB18903   4.426   0.280   6.600 -1.7435  1.6269 -1.6813
  168SOPE    C218904   4.521   0.406   6.738  0.4483  1.3337  0.4581
  168SOPE    HS18905   4.605   0.479   6.734  0.4060  1.5114  2.1916
  168SOPE   O2118906   4.531   0.297   6.839  0.0104  0.3738  0.4366
  168SOPE   C2118907   4.644   0.235   6.830 -0.1037 -0.6322 -0.3069
  168SOPE   O2218908   4.746   0.272   6.771 -1.1360  0.2211 -0.1506
  168SOPE   C2218909   4.645   0.106   6.915  0.1218 -0.1384 -0.1563
  168SOPE   H2R18910   4.698   0.029   6.855  0.7460 -0.2125  0.4849
  168SOPE   H2S18911   4.543   0.076   6.947  1.0732 -1.9197  1.4007
  168SOPE    C318912   4.396   0.502   6.767 -0.1086  0.2489 -0.0266
  168SOPE    HX18913   4.310   0.431   6.772  0.0956 -0.1010 -1.2603
  168SOPE    HY18914   4.365   0.573   6.688  1.1230  1.0015  0.1348
  168SOPE   O3118915   4.400   0.571   6.894 -0.0731 -0.0044  0.5857
  168SOPE   C3118916   4.453   0.692   6.880 -0.0309 -0.7999  0.7978
  168SOPE   O3218917   4.504   0.742   6.781 -0.4849  0.0636 -0.4593
  168SOPE   C3218918   4.429   0.759   7.012 -0.2327 -0.0417 -0.0685
  168SOPE   H2X18919   4.526   0.808   7.033 -1.1696  1.6353  0.4771
  168SOPE   H2Y18920   4.412   0.683   7.091  0.6312 -0.7775 -0.5697
  168SOPE   C2318921   4.734   0.140   7.042 -0.3071 -0.3247  0.3915
  168SOPE   H3R18922   4.840   0.159   7.014 -0.3571  3.4447  2.1791
  168SOPE   H3S18923   4.740   0.046   7.101  3.2200 -0.5157 -0.0298
  168SOPE   C2418924   4.669   0.237   7.140 -0.1676  0.6549  0.4188
  168SOPE   H4R18925   4.659   0.326   7.074 -0.1656  0.0612 -0.4020
  168SOPE   H4S18926   4.568   0.205   7.174 -0.4804 -0.4346 -1.4048
  168SOPE   C2518927   4.769   0.266   7.253  0.1233 -0.4274 -0.3082
  168SOPE   H5R18928   4.871   0.291   7.217  0.0496 -0.7244 -0.7279
  168SOPE   H5S18929   4.740   0.362   7.299  0.3727 -0.6270  0.2707
  168SOPE   C2618930   4.763   0.160   7.363 -0.4449  0.0967  0.6355
  168SOPE   H6R18931   4.658   0.168   7.400 -0.3152 -1.8558  1.5451
  168SOPE   H6S18932   4.781   0.059   7.319  1.2844  0.5713  0.2024
  168SOPE   C2718933   4.863   0.178   7.478 -0.0359 -1.1054  0.4523
  168SOPE   H7R18934   4.851   0.099   7.555 -1.0261 -0.4537  0.9837
  168SOPE   H7S18935   4.963   0.156   7.436  0.3588  0.4826  0.4741
  168SOPE   C2818936   4.867   0.321   7.540 -0.4991 -0.4278  0.0411
  168SOPE   H8R18937   4.959   0.326   7.602 -1.2815  0.2841  1.1663
  168SOPE   H8S18938   4.859   0.405   7.468 -1.0588 -0.3150  0.2291
  168SOPE   C2918939   4.746   0.319   7.622  0.5887 -0.1444  0.3202
  168SOPE   H9118940   4.650   0.287   7.580  0.1353  1.2436  0.2547
  168SOPE  C21018941   4.734   0.350   7.759 -0.4956  0.3126  0.9721
  168SOPE  H10118942   4.634   0.338   7.802 -1.1320  0.2086 -0.4869
  168SOPE  C21118943   4.846   0.405   7.848 -0.5433  0.4336  0.5956
  168SOPE  H11R18944   4.815   0.503   7.889  1.0052  0.9319  0.6662
  168SOPE  H11S18945   4.944   0.414   7.797 -1.3161  1.6171 -0.7349
  168SOPE  C21218946   4.893   0.322   7.967  0.3908  0.5743 -0.1082
  168SOPE  H12R18947   4.917   0.217   7.941 -1.3119  0.5880 -1.9186
  168SOPE  H12S18948   4.802   0.304   8.029  0.4456  1.2913  0.1988
  168SOPE  C21318949   5.006   0.385   8.053 -0.0702  0.6417  1.4308
  168SOPE  H13R18950   4.997   0.495   8.037  0.8627  0.4616 -0.5318
  168SOPE  H13S18951   5.104   0.355   8.011 -2.0243  0.0121 -3.2409
  168SOPE  C21418952   5.004   0.335   8.204  0.2562  0.3427 -0.6351
  168SOPE  H14R18953   5.006   0.223   8.204 -0.9507  0.2985  0.6134
  168SOPE  H14S18954   4.902   0.361   8.241  0.5775 -1.6209  1.9207
  168SOPE  C21518955   5.099   0.392   8.305 -0.9596 -0.3515  0.0338
  168SOPE  H15R18956   5.207   0.380   8.283 -1.3896 -1.3980 -1.7050
  168SOPE  H15S18957   5.082   0.325   8.392 -1.6859  0.6521  0.6969
  168SOPE  C21618958   5.078   0.543   8.342  0.6204 -0.2514  0.2522
  168SOPE  H16R18959   5.082   0.598   8.246  1.9360 -0.2093  0.3174
  168SOPE  H16S18960   5.163   0.582   8.402  0.5033  1.1374 -0.4508
  168SOPE  C21718961   4.936   0.549   8.406 -0.4893  0.3128  0.3616
  168SOPE  H17R18962   4.927   0.467   8.481  1.1632 -0.0079  0.2509
  168SOPE  H17S18963   4.856   0.529   8.332  2.4268 -1.2222 -2.6426
  168SOPE  C21818964   4.912   0.680   8.483  0.0273 -0.0509  0.4555
  168SOPE  H18R18965   4.968   0.681   8.579 -1.2895  1.8389  1.2736
  168SOPE  H18S18966   4.805   0.703   8.506  0.3670  1.1515  0.9374
  168SOPE  H18T18967   4.965   0.765   8.435 -1.9460  0.5595 -0.7848
  168SOPE   C3318968   4.320   0.863   7.003  0.0947  0.2145  0.2274
  168SOPE   H3X18969   4.353   0.935   6.926  0.8716  1.5569  1.7735
  168SOPE   H3Y18970   4.327   0.921   7.097 -1.7200 -0.7113  0.9733
  168SOPE   C3418971   4.170   0.819   6.992 -1.1565 -1.5838  0.1140
  168SOPE   H4X18972   4.161   0.740   6.915  2.6388 -1.4468 -0.6740
  168SOPE   H4Y18973   4.109   0.907   6.961 -1.4756 -1.9681 -0.3642
  168SOPE   C3518974   4.119   0.757   7.119 -0.6552  0.4994 -0.5243
  168SOPE   H5X18975   4.159   0.813   7.206 -1.9067 -1.2694  1.3054
  168SOPE   H5Y18976   4.149   0.650   7.124 -0.7292  0.5305  2.4999
  168SOPE   C3618977   3.965   0.750   7.124  0.0284 -0.1481 -0.1307
  168SOPE   H6X18978   3.924   0.701   7.033 -1.2032 -2.6109  1.6441
  168SOPE   H6Y18979   3.931   0.856   7.130  0.5236 -0.0672  1.8465
  168SOPE   C3718980   3.911   0.664   7.235 -0.2733  0.5001 -0.0060
  168SOPE   H7X18981   3.912   0.556   7.208 -3.2156  0.7207 -1.3770
  168SOPE   H7Y18982   3.804   0.686   7.254 -0.5854 -0.7363 -0.1926
  168SOPE   C3818983   3.970   0.701   7.379 -0.0338 -0.1203  0.4839
  168SOPE   H8X18984   3.973   0.811   7.371 -0.2773 -0.2200 -1.7506
  168SOPE   H8Y18985   4.070   0.660   7.401 -0.4138 -0.5469  1.4585
  168SOPE   C3918986   3.878   0.653   7.493  0.7563 -0.4754 -0.2958
  168SOPE   H9X18987   3.873   0.542   7.496  0.7974 -0.4694  0.0947
  168SOPE   H9Y18988   3.779   0.694   7.465  1.0308 -1.8210 -3.6529
  168SOPE  C31018989   3.925   0.699   7.635  0.0576  0.3436  0.2597
  168SOPE  H10X18990   3.925   0.810   7.637 -0.2345  0.4291 -2.2587
  168SOPE  H10Y18991   4.029   0.665   7.656 -0.2109  0.7292  2.5310
  168SOPE  C31118992   3.821   0.663   7.752  0.4116 -0.7535 -0.0856
  168SOPE  H11X18993   3.728   0.719   7.728  0.6885 -1.8575 -4.5717
  168SOPE  H11Y18994   3.862   0.714   7.842  2.7270  0.1980 -1.5872
  168SOPE  C31218995   3.808   0.516   7.770  0.0687 -0.5078 -0.3039
  168SOPE  H12X18996   3.895   0.482   7.830 -0.8148 -1.3932  0.5129
  168SOPE  H12Y18997   3.814   0.461   7.674 -0.4393 -1.6937  0.3183
  168SOPE  C31318998   3.685   0.467   7.846  0.3415 -0.7699 -0.2866
  168SOPE  H13X18999   3.695   0.361   7.877 -0.3957 -0.6890  0.2567
  168SOPE  H13Y19000   3.593   0.482   7.785  0.8973 -0.8866 -1.1722
  168SOPE  C31419001   3.645   0.548   7.969 -0.5491 -0.8488 -0.6286
  168SOPE  H14X19002   3.624   0.656   7.950 -0.1654 -0.1519  2.3799
  168SOPE  H14Y19003   3.728   0.552   8.044 -0.0470 -0.5199 -1.1865
  168SOPE  C31519004   3.531   0.474   8.049  0.1507  0.0785 -0.0300
  168SOPE  H15X19005   3.557   0.369   8.027  1.0763  0.7268 -2.2977
  168SOPE  H15Y19006   3.440   0.511   7.997 -0.5572  1.6054  2.1371
  168SOPE  C31619007   3.509   0.513   8.198  0.2495 -0.4234 -0.2636
  168SOPE  H16X19008   3.592   0.463   8.252  0.7957 -1.6802 -2.1746
  168SOPE  H16Y19009   3.413   0.480   8.243  2.6545 -0.6142  5.7132
  168SOPE  C31719010   3.507   0.669   8.230  0.3674  0.3320 -0.1624
  168SOPE  H17X19011   3.458   0.712   8.140  3.0396 -1.0729 -2.4471
  168SOPE  H17Y19012   3.610   0.708   8.216  0.3696 -0.1374 -1.6805
  168SOPE  C31819013   3.443   0.708   8.360 -0.3123 -0.0197 -0.2819
  168SOPE  H18X19014   3.443   0.819   8.365  3.0290  0.0557  0.4159
  168SOPE  H18Y19015   3.502   0.661   8.442  0.3007 -0.1087 -0.7767
  168SOPE  H18Z19016   3.339   0.668   8.354 -0.6198  0.9558 -1.9872
  169SOPE     N19017   0.049   3.651   6.261  0.4374 -0.3630 -0.2556
  169SOPE   HN119018   0.009   3.557   6.240  0.7661 -0.5311 -0.1385
  169SOPE   HN219019   0.097   3.691   6.178 -1.4227  2.0950 -0.2641
  169SOPE   HN319020   0.121   3.642   6.336  0.3815  1.5168  0.0752
  169SOPE   C1219021  -0.056   3.751   6.315 -0.5335 -0.1548  0.5864
  169SOPE  H12A19022  -0.037   3.843   6.255 -1.4939 -1.6806 -2.2318
  169SOPE  H12B19023  -0.034   3.780   6.420  1.7941  1.8906 -0.3779
  169SOPE   C1119024  -0.203   3.715   6.287 -0.0563  0.1007 -0.7075
  169SOPE  H11A19025  -0.230   3.641   6.364  0.4251 -0.2731 -0.8939
  169SOPE  H11B19026  -0.212   3.666   6.187 -1.2707 -0.9321 -0.1155
  169SOPE     P19027  -0.365   3.869   6.431 -0.4131  0.5893  0.2518
  169SOPE   O1319028  -0.414   3.747   6.505 -0.3828  0.5317 -0.1821
  169SOPE   O1419029  -0.466   3.969   6.389 -0.3472  0.2735 -0.1300
  169SOPE   O1219030  -0.287   3.830   6.299 -0.0060  0.4940  0.5652
  169SOPE   O1119031  -0.244   3.935   6.509 -0.0592 -0.0516  0.0126
  169SOPE    C119032  -0.248   3.998   6.633 -0.2894  0.8582  0.9608
  169SOPE    HA19033  -0.353   4.026   6.660 -0.4892  2.6148 -1.3436
  169SOPE    HB19034  -0.193   4.092   6.614  0.7727 -0.2705 -2.2487
  169SOPE    C219035  -0.176   3.914   6.748 -0.1737  0.5148  0.2823
  169SOPE    HS19036  -0.254   3.850   6.794 -2.0693  0.6220 -2.5412
  169SOPE   O2119037  -0.117   4.002   6.844  0.3184  0.2951  0.2662
  169SOPE   C2119038  -0.114   3.951   6.967  0.4349  0.4211 -0.3985
  169SOPE   O2219039  -0.167   3.842   6.999  0.0855  0.3068  0.6103
  169SOPE   C2219040  -0.020   4.031   7.058 -0.2365 -0.0954  0.2525
  169SOPE   H2R19041  -0.002   4.130   7.011  0.2882  0.3660  1.3714
  169SOPE   H2S19042   0.072   3.969   7.052  0.4231  0.8492  0.2907
  169SOPE    C319043  -0.057   3.834   6.682  0.9531 -0.3179 -0.3294
  169SOPE    HX19044   0.007   3.912   6.635 -0.5305  2.1142  1.4137
  169SOPE    HY19045  -0.097   3.759   6.610 -0.3078  0.1477 -0.1534
  169SOPE   O3119046   0.013   3.758   6.778 -0.0572  0.9911  0.3466
  169SOPE   C3119047   0.135   3.718   6.748 -0.0900  0.0815  0.0558
  169SOPE   O3219048   0.198   3.763   6.656 -0.4966  0.0554  0.0941
  169SOPE   C3219049   0.184   3.607   6.836  0.3585  0.0563 -0.1430
  169SOPE   H2X19050   0.274   3.555   6.797  0.1233  0.6471 -1.5347
  169SOPE   H2Y19051   0.104   3.529   6.835 -0.3108  0.7310 -0.1693
  169SOPE   C2319052  -0.081   4.068   7.200  0.4063  0.6596 -0.4002
  169SOPE   H3R19053  -0.119   3.974   7.244  2.8688 -0.2075  0.0236
  169SOPE   H3S19054  -0.169   4.134   7.181 -0.2727 -0.9143 -3.1246
  169SOPE   C2419055   0.018   4.139   7.290  0.1708 -0.2017  0.6086
  169SOPE   H4R19056   0.112   4.082   7.302  1.1053  1.0303 -0.4994
  169SOPE   H4S19057   0.037   4.238   7.243 -0.9477 -1.1349 -1.9602
  169SOPE   C2519058  -0.026   4.162   7.443 -0.2629 -0.7233 -0.1793
  169SOPE   H5R19059  -0.119   4.223   7.446  1.6143  2.3710  0.4726
  169SOPE   H5S19060  -0.038   4.067   7.499 -1.6131 -0.2181  0.4272
  169SOPE   C2619061   0.084   4.245   7.522 -0.1306  0.4480 -0.0347
  169SOPE   H6R19062   0.189   4.210   7.504  0.3418  0.9777  1.5337
  169SOPE   H6S19063   0.074   4.345   7.475  1.8733 -0.4784 -2.7327
  169SOPE   C2719064   0.045   4.245   7.673 -0.3854 -0.3647 -0.2435
  169SOPE   H7R19065  -0.065   4.241   7.688 -0.5225 -0.1735 -1.1686
  169SOPE   H7S19066   0.088   4.155   7.723  0.0451 -0.1348 -0.1926
  169SOPE   C2819067   0.114   4.361   7.747 -0.1828  0.0198  0.3220
  169SOPE   H8R19068   0.221   4.346   7.719 -0.8074 -0.4226 -2.0916
  169SOPE   H8S19069   0.073   4.460   7.716  0.8336  0.9483  1.7998
  169SOPE   C2919070   0.082   4.356   7.892  1.2462 -0.4269  0.3823
  169SOPE   H9119071   0.068   4.258   7.941  2.6712 -0.7910  0.0970
  169SOPE  C21019072   0.039   4.458   7.970 -0.2406  0.1665 -0.0114
  169SOPE  H10119073   0.023   4.434   8.076 -2.1775  0.2559 -0.2474
  169SOPE  C21119074   0.029   4.607   7.948 -0.6095  0.0614  0.4296
  169SOPE  H11R19075   0.070   4.629   7.848  0.1718 -0.3834  0.6395
  169SOPE  H11S19076   0.094   4.659   8.022  1.9140 -2.3919  0.0930
  169SOPE  C21219077  -0.113   4.670   7.960 -0.6704  0.9977 -0.2674
  169SOPE  H12R19078  -0.187   4.639   7.884 -1.0954 -0.8313  0.8113
  169SOPE  H12S19079  -0.108   4.780   7.946 -0.8286  1.3518  2.0164
  169SOPE  C21319080  -0.169   4.665   8.104  0.1097 -0.6032  0.1457
  169SOPE  H13R19081  -0.093   4.704   8.175  0.2251  1.6690 -1.1642
  169SOPE  H13S19082  -0.194   4.562   8.140  0.8980  0.0313  2.7279
  169SOPE  C21419083  -0.308   4.729   8.117 -0.0369 -0.4444 -0.0878
  169SOPE  H14R19084  -0.376   4.674   8.185  0.2872  0.2542  0.8229
  169SOPE  H14S19085  -0.354   4.738   8.016  2.4716 -0.8688 -1.3648
  169SOPE  C21519086  -0.293   4.872   8.161 -0.1760 -0.5971 -0.5233
  169SOPE  H15R19087  -0.202   4.930   8.133  1.0071 -0.6987  2.7010
  169SOPE  H15S19088  -0.277   4.884   8.270  0.2833 -0.4608 -0.6007
  169SOPE  C21619089  -0.403   4.972   8.106 -0.3715  0.2645  0.4327
  169SOPE  H16R19090  -0.393   4.964   7.996  0.6338 -0.3856  0.5567
  169SOPE  H16S19091  -0.369   5.074   8.136  2.8433 -0.0638 -1.6317
  169SOPE  C21719092  -0.543   4.945   8.162  0.7232  0.1154  0.4354
  169SOPE  H17R19093  -0.533   4.933   8.272  1.5126 -1.7436  0.1921
  169SOPE  H17S19094  -0.583   4.849   8.124  0.4694 -0.1501  1.3508
  169SOPE  C21819095  -0.633   5.059   8.126  0.7327 -0.5930 -0.4065
  169SOPE  H18R19096  -0.736   5.027   8.100  0.4957 -1.1851  1.1046
  169SOPE  H18S19097  -0.603   5.117   8.036 -1.7889  1.4075 -0.0758
  169SOPE  H18T19098  -0.643   5.130   8.211 -2.5133 -2.7972  1.2759
  169SOPE   C3319099   0.215   3.657   6.983 -0.8163 -0.3736 -0.2027
  169SOPE   H3X19100   0.123   3.701   7.026  0.8028  2.6400  0.4186
  169SOPE   H3Y19101   0.287   3.739   6.962 -0.1394 -1.0983 -0.7962
  169SOPE   C3419102   0.273   3.556   7.075 -0.0471  0.0525 -0.2536
  169SOPE   H4X19103   0.367   3.516   7.031 -0.0800  0.5948 -0.8137
  169SOPE   H4Y19104   0.209   3.469   7.103  0.4587 -0.6413 -1.2114
  169SOPE   C3519105   0.313   3.613   7.215 -0.1168  0.0242  0.3043
  169SOPE   H5X19106   0.370   3.707   7.201 -0.5162  0.7318  2.8243
  169SOPE   H5Y19107   0.381   3.542   7.267  1.3244  2.0429  1.3272
  169SOPE   C3619108   0.198   3.638   7.306 -0.4977  0.2075 -0.3229
  169SOPE   H6X19109   0.174   3.542   7.356  2.2833 -0.2299  0.3517
  169SOPE   H6Y19110   0.110   3.675   7.249 -0.1899  1.6326  0.0878
  169SOPE   C3719111   0.230   3.748   7.414 -0.5172  0.1883 -0.0929
  169SOPE   H7X19112   0.243   3.838   7.350  0.6345  0.9212  1.1093
  169SOPE   H7Y19113   0.328   3.730   7.463 -1.0545 -3.1149  0.0317
  169SOPE   C3819114   0.117   3.759   7.513  0.6856 -0.1913 -0.7693
  169SOPE   H8X19115   0.019   3.787   7.470 -0.1077  1.0934  1.6808
  169SOPE   H8Y19116   0.103   3.661   7.562  1.6290 -0.0230 -0.1324
  169SOPE   C3919117   0.159   3.858   7.622  0.2125 -0.3075  0.1166
  169SOPE   H9X19118   0.098   3.951   7.614 -0.9204 -1.0233  0.3251
  169SOPE   H9Y19119   0.268   3.879   7.613  0.3247 -1.3858 -1.3306
  169SOPE  C31019120   0.151   3.794   7.762 -0.2628 -0.4375  0.4138
  169SOPE  H10X19121   0.231   3.717   7.760  0.5756  0.4053  0.1939
  169SOPE  H10Y19122   0.051   3.748   7.770 -0.1065 -1.0128 -0.6680
  169SOPE  C31119123   0.186   3.889   7.884 -0.0078 -0.0584  0.2733
  169SOPE  H11X19124   0.118   3.976   7.879  0.6329  0.5432  1.5605
  169SOPE  H11Y19125   0.291   3.924   7.885 -1.2319  4.0407  0.0016
  169SOPE  C31219126   0.181   3.807   8.019  0.0308 -0.3213 -0.1183
  169SOPE  H12X19127   0.268   3.739   8.033  2.9263  2.9724 -0.7003
  169SOPE  H12Y19128   0.086   3.754   8.042 -0.1591  0.0015 -0.1567
  169SOPE  C31319129   0.208   3.907   8.137 -0.4275  0.5295 -0.2677
  169SOPE  H13X19130   0.137   3.991   8.122 -0.3578  0.7331  0.5020
  169SOPE  H13Y19131   0.311   3.944   8.115 -0.5403  0.1770 -1.4943
  169SOPE  C31419132   0.189   3.836   8.265 -0.0026 -1.0042 -0.5178
  169SOPE  H14X19133   0.236   3.737   8.282 -0.9631 -1.2595  0.8046
  169SOPE  H14Y19134   0.082   3.820   8.287  0.4837 -0.6713  2.5529
  169SOPE  C31519135   0.230   3.923   8.392  0.1815  0.1350  0.0724
  169SOPE  H15X19136   0.200   4.022   8.351 -2.8883 -1.0415 -0.8749
  169SOPE  H15Y19137   0.340   3.916   8.396  0.1159 -1.2616  0.1008
  169SOPE  C31619138   0.163   3.880   8.518  0.5451  0.1971  0.2416
  169SOPE  H16X19139   0.151   3.770   8.526 -0.2024  0.2660  0.1899
  169SOPE  H16Y19140   0.057   3.912   8.519  0.7397  0.9095 -0.4234
  169SOPE  C31719141   0.228   3.913   8.651 -0.5657 -0.1265  0.0614
  169SOPE  H17X19142   0.229   4.022   8.670 -3.5410  0.0525 -0.3068
  169SOPE  H17Y19143   0.331   3.871   8.649  1.0185  3.3983 -1.7363
  169SOPE  C31819144   0.156   3.856   8.769  1.1916  0.2641 -1.0142
  169SOPE  H18X19145   0.052   3.891   8.781  0.9650 -0.4487 -0.8336
  169SOPE  H18Y19146   0.216   3.867   8.863  0.0917  0.0957 -0.2730
  169SOPE  H18Z19147   0.146   3.746   8.757  0.6717  0.4128 -2.0110
  170SOPE     N19148   0.209   1.115   6.406 -0.8280  0.4956  0.2397
  170SOPE   HN119149   0.203   1.013   6.425  0.1056  0.6616  1.5454
  170SOPE   HN219150   0.150   1.153   6.482 -1.2567  0.3586 -0.0206
  170SOPE   HN319151   0.172   1.135   6.311  0.3078 -1.0956 -0.5814
  170SOPE   C1219152   0.356   1.142   6.405  1.2151 -0.3907 -0.0484
  170SOPE  H12A19153   0.394   1.076   6.486  0.7282  1.5857  1.9165
  170SOPE  H12B19154   0.381   1.239   6.454  0.9720 -0.6702  0.6580
  170SOPE   C1119155   0.416   1.100   6.274 -0.2903 -0.4192 -0.0118
  170SOPE  H11A19156   0.399   1.175   6.193  0.0927  1.3531  1.4772
  170SOPE  H11B19157   0.369   1.006   6.240 -0.0003 -0.3249 -0.7035
  170SOPE     P19158   0.658   1.212   6.308  0.0785  0.4580 -0.0986
  170SOPE   O1319159   0.625   1.325   6.219  0.4522 -0.7533 -0.1162
  170SOPE   O1419160   0.798   1.162   6.302  0.2469  0.3661  0.0731
  170SOPE   O1219161   0.561   1.089   6.297 -0.2337 -0.1177  0.0522
  170SOPE   O1119162   0.628   1.261   6.454  0.6851 -0.0999 -0.1438
  170SOPE    C119163   0.699   1.374   6.510  0.1086 -0.6168  0.4108
  170SOPE    HA19164   0.762   1.426   6.434  0.1390  1.3043  1.6827
  170SOPE    HB19165   0.767   1.325   6.583 -1.1384 -1.8339  0.8038
  170SOPE    C219166   0.606   1.479   6.572  0.3480 -0.1783 -0.3906
  170SOPE    HS19167   0.675   1.549   6.625 -1.0092  1.1717 -0.3557
  170SOPE   O2119168   0.511   1.414   6.655  0.0453 -0.3779  0.3173
  170SOPE   C2119169   0.575   1.349   6.755  0.6350  0.0108 -0.0101
  170SOPE   O2219170   0.681   1.388   6.798 -1.0768 -0.5917 -0.3882
  170SOPE   C2219171   0.501   1.219   6.784 -0.0642  0.0075  0.0124
  170SOPE   H2R19172   0.518   1.162   6.690 -2.5763  0.0935 -0.5605
  170SOPE   H2S19173   0.393   1.239   6.799  0.1537  2.2308 -1.0643
  170SOPE    C319174   0.534   1.565   6.465 -0.4283 -0.1024 -0.1724
  170SOPE    HX19175   0.479   1.487   6.409 -1.1917 -0.3098  0.8389
  170SOPE    HY19176   0.614   1.615   6.407 -0.9596 -0.2876 -1.0737
  170SOPE   O3119177   0.440   1.648   6.523 -0.2242 -0.5230  0.0245
  170SOPE   C3119178   0.486   1.748   6.606 -0.1718 -0.0711 -0.5952
  170SOPE   O3219179   0.597   1.797   6.608  0.2943  0.6117 -0.7412
  170SOPE   C3219180   0.370   1.784   6.704 -0.3802 -0.2575 -0.2972
  170SOPE   H2X19181   0.288   1.709   6.704  0.6280 -1.5524  2.8326
  170SOPE   H2Y19182   0.330   1.878   6.662  1.3055  0.6702  0.1065
  170SOPE   C2319183   0.560   1.139   6.900  0.1463 -0.6227  0.8156
  170SOPE   H3R19184   0.669   1.119   6.886 -0.1360 -0.9783 -1.1531
  170SOPE   H3S19185   0.498   1.047   6.905 -0.4680 -0.2467  0.1899
  170SOPE   C2419186   0.531   1.206   7.039  0.0456  1.0141 -0.4128
  170SOPE   H4R19187   0.562   1.312   7.026  0.3986  0.7261 -2.1210
  170SOPE   H4S19188   0.421   1.191   7.037  0.1752  0.0729 -0.7182
  170SOPE   C2519189   0.584   1.144   7.167 -0.4210 -0.6556  0.0921
  170SOPE   H5R19190   0.544   1.040   7.162 -1.1462 -0.3694 -0.1855
  170SOPE   H5S19191   0.694   1.134   7.166 -0.3491 -0.0485  0.9448
  170SOPE   C2619192   0.534   1.204   7.308 -0.1673  0.2444 -0.1587
  170SOPE   H6R19193   0.563   1.311   7.314  0.4800  0.2136 -1.9004
  170SOPE   H6S19194   0.424   1.204   7.297 -0.1523  2.7545 -1.1554
  170SOPE   C2719195   0.588   1.132   7.435 -0.5556 -0.6756  0.2709
  170SOPE   H7R19196   0.577   1.025   7.410  1.9461 -0.9584  0.0566
  170SOPE   H7S19197   0.694   1.165   7.440 -0.8560  0.7490 -1.5286
  170SOPE   C2819198   0.517   1.161   7.575  0.0073 -0.8182 -0.3651
  170SOPE   H8R19199   0.548   1.264   7.605 -1.6492 -0.6613  0.9872
  170SOPE   H8S19200   0.407   1.170   7.563 -0.1117 -2.2976 -0.5409
  170SOPE   C2919201   0.557   1.058   7.678 -1.2973 -0.5985  0.4503
  170SOPE   H9119202   0.500   0.964   7.679  2.0438 -2.8046  0.2042
  170SOPE  C21019203   0.678   1.063   7.735  0.8542 -0.3838 -0.1768
  170SOPE  H10119204   0.699   0.978   7.801 -0.7621 -0.5619  0.1687
  170SOPE  C21119205   0.775   1.173   7.710 -0.2317 -0.7785 -0.6761
  170SOPE  H11R19206   0.723   1.270   7.725  0.8992 -0.2623  0.0392
  170SOPE  H11S19207   0.805   1.165   7.603  1.7965 -1.0263 -0.1254
  170SOPE  C21219208   0.899   1.166   7.803  0.0833 -0.1050 -0.1930
  170SOPE  H12R19209   0.961   1.256   7.782 -3.2395  2.9424  1.9706
  170SOPE  H12S19210   0.950   1.071   7.777 -0.7587 -1.2641  2.1078
  170SOPE  C21319211   0.856   1.179   7.948  0.0584  0.5018  0.4557
  170SOPE  H13R19212   0.814   1.083   7.986 -0.0894  0.9414  1.4564
  170SOPE  H13S19213   0.780   1.260   7.948  0.6168  1.0984 -2.1428
  170SOPE  C21419214   0.976   1.211   8.036 -0.5528 -0.7425  0.0295
  170SOPE  H14R19215   1.023   1.306   8.003 -2.7357 -0.5447 -2.8985
  170SOPE  H14S19216   1.050   1.128   8.029 -1.7888 -1.8788  0.0909
  170SOPE  C21519217   0.957   1.221   8.191 -0.0872 -0.3505 -0.6372
  170SOPE  H15R19218   0.850   1.250   8.201  0.1258  0.6922 -1.2345
  170SOPE  H15S19219   1.010   1.311   8.229 -0.1085  0.0488 -1.5183
  170SOPE  C21619220   0.988   1.089   8.258  0.1134 -0.1860 -0.1704
  170SOPE  H16R19221   0.950   1.015   8.184  1.9854  0.7466 -2.1638
  170SOPE  H16S19222   0.944   1.077   8.360 -0.7989  1.0186 -0.3984
  170SOPE  C21719223   1.143   1.067   8.265 -0.1682 -0.1521 -0.0746
  170SOPE  H17R19224   1.183   1.141   8.337 -0.5103 -0.9757  1.0031
  170SOPE  H17S19225   1.190   1.088   8.167  0.0368  1.3932  0.3299
  170SOPE  C21819226   1.181   0.928   8.307  0.6434  0.0723  0.5839
  170SOPE  H18R19227   1.211   0.865   8.220  1.6199  0.3388  0.7184
  170SOPE  H18S19228   1.102   0.880   8.369  0.0091  0.6177  0.2192
  170SOPE  H18T19229   1.274   0.926   8.367  1.1735 -1.2741 -0.2286
  170SOPE   C3319230   0.420   1.804   6.845  0.5962  0.6167 -0.4185
  170SOPE   H3X19231   0.352   1.874   6.897 -0.4249 -1.2876  0.9689
  170SOPE   H3Y19232   0.521   1.848   6.856  0.8197 -0.3772  2.2853
  170SOPE   C3419233   0.419   1.674   6.926 -0.1554 -0.0856 -0.4219
  170SOPE   H4X19234   0.490   1.600   6.882  1.9733  1.4756  0.2375
  170SOPE   H4Y19235   0.320   1.623   6.914  0.7678 -2.1469  0.2464
  170SOPE   C3519236   0.457   1.690   7.073 -0.6965  0.1742  0.6632
  170SOPE   H5X19237   0.426   1.790   7.110 -1.3766  0.6823 -1.1395
  170SOPE   H5Y19238   0.567   1.680   7.082 -0.1739  2.8693 -1.4430
  170SOPE   C3619239   0.399   1.601   7.183 -0.2003  0.0478  0.9747
  170SOPE   H6X19240   0.417   1.493   7.162 -2.3669 -0.1634 -0.0646
  170SOPE   H6Y19241   0.291   1.622   7.196 -0.6141 -0.6790 -0.8824
  170SOPE   C3719242   0.473   1.614   7.316  0.1395  0.0322 -0.7118
  170SOPE   H7X19243   0.483   1.722   7.340 -0.5340  0.2012 -1.1673
  170SOPE   H7Y19244   0.577   1.578   7.303  0.3375  0.4242 -0.2583
  170SOPE   C3819245   0.394   1.563   7.441 -0.2906  0.1776  0.3734
  170SOPE   H8X19246   0.354   1.466   7.404 -0.3239  1.0222 -1.9211
  170SOPE   H8Y19247   0.298   1.619   7.450 -0.5032  0.0673 -1.0504
  170SOPE   C3919248   0.474   1.549   7.569 -0.2762  0.1366 -0.0735
  170SOPE   H9X19249   0.510   1.652   7.591  0.8233 -0.2835  0.1650
  170SOPE   H9Y19250   0.566   1.492   7.543 -0.7945 -0.9265  0.3619
  170SOPE  C31019251   0.395   1.493   7.682 -0.2597  0.5487 -0.0187
  170SOPE  H10X19252   0.381   1.388   7.649  0.0525  0.2868  0.6700
  170SOPE  H10Y19253   0.291   1.534   7.682 -1.4094 -2.1581  0.4785
  170SOPE  C31119254   0.480   1.498   7.812 -0.7482 -0.0716  0.0143
  170SOPE  H11X19255   0.510   1.601   7.839  0.0094  0.0682 -1.3034
  170SOPE  H11Y19256   0.571   1.435   7.802 -1.8442 -1.5876 -0.7706
  170SOPE  C31219257   0.398   1.451   7.926 -0.0734  0.3251 -0.1763
  170SOPE  H12X19258   0.404   1.340   7.923 -2.8579  0.1394 -1.5986
  170SOPE  H12Y19259   0.289   1.467   7.915 -0.7647 -1.3048  2.9961
  170SOPE  C31319260   0.425   1.516   8.055  0.2916 -0.1555 -0.4289
  170SOPE  H13X19261   0.414   1.627   8.057  1.3741  0.0678 -2.8765
  170SOPE  H13Y19262   0.528   1.488   8.088  0.1767 -0.0566  0.0121
  170SOPE  C31419263   0.352   1.451   8.171  0.0697 -1.1444  0.4865
  170SOPE  H14X19264   0.350   1.342   8.149 -0.2723 -0.5727 -2.7826
  170SOPE  H14Y19265   0.248   1.490   8.178  0.3317 -0.1366 -0.8388
  170SOPE  C31519266   0.423   1.483   8.304 -0.2749  0.3205  0.0605
  170SOPE  H15X19267   0.454   1.588   8.319 -0.7922  0.2917  1.5354
  170SOPE  H15Y19268   0.511   1.420   8.330 -1.7534 -2.1202 -0.5180
  170SOPE  C31619269   0.341   1.461   8.430  0.2940 -0.2437  0.9777
  170SOPE  H16X19270   0.261   1.538   8.427  0.7873  0.2670  0.7756
  170SOPE  H16Y19271   0.401   1.499   8.515  0.8178  0.9894  0.0863
  170SOPE  C31719272   0.281   1.323   8.459 -0.1071  0.3882  0.1411
  170SOPE  H17X19273   0.266   1.279   8.359  2.1466  0.3881 -0.2649
  170SOPE  H17Y19274   0.185   1.329   8.513  0.5773 -1.1421  1.6357
  170SOPE  C31819275   0.376   1.223   8.522 -0.4248 -0.1012 -0.1405
  170SOPE  H18X19276   0.344   1.117   8.508  0.2435 -0.1337 -1.5877
  170SOPE  H18Y19277   0.394   1.248   8.629 -1.1888 -1.0304  0.2192
  170SOPE  H18Z19278   0.477   1.224   8.475 -1.3061  2.3228 -2.1942
  171SOPE     N19279   1.059   4.223   6.393 -0.5330 -0.2897  0.0500
  171SOPE   HN119280   1.007   4.203   6.305  1.0466 -1.5757 -0.6512
  171SOPE   HN219281   1.015   4.168   6.468 -1.4534 -1.5532 -1.3628
  171SOPE   HN319282   1.036   4.324   6.402  0.4846  0.0427 -0.8414
  171SOPE   C1219283   1.209   4.213   6.391 -0.1176  0.2910 -0.2362
  171SOPE  H12A19284   1.240   4.109   6.364 -1.9303 -0.1629 -0.7032
  171SOPE  H12B19285   1.238   4.226   6.497  3.1380  0.3418 -1.0292
  171SOPE   C1119286   1.280   4.326   6.302 -0.6803 -0.1572  0.0965
  171SOPE  H11A19287   1.256   4.301   6.196 -0.0564 -2.7255  0.4857
  171SOPE  H11B19288   1.390   4.318   6.313 -0.2943  4.1350  1.0638
  171SOPE     P19289   1.302   4.535   6.443 -0.4443 -0.1052  0.1540
  171SOPE   O1319290   1.269   4.677   6.426  0.0619  0.5780  0.2335
  171SOPE   O1419291   1.446   4.498   6.448 -0.0244  0.1521 -0.0687
  171SOPE   O1219292   1.233   4.458   6.324 -0.2484 -0.2740 -0.3379
  171SOPE   O1119293   1.232   4.469   6.561  0.1901  0.5065 -0.3010
  171SOPE    C119294   1.102   4.506   6.611 -0.0814  0.1193 -0.3605
  171SOPE    HA19295   1.061   4.418   6.665 -0.3621  0.4852  0.0223
  171SOPE    HB19296   1.041   4.516   6.519  1.1676 -0.6222 -1.3220
  171SOPE    C219297   1.093   4.630   6.707 -0.4081 -0.6057 -0.3098
  171SOPE    HS19298   1.114   4.711   6.633 -0.3465 -2.0723 -1.9724
  171SOPE   O2119299   1.188   4.615   6.812  0.1669 -0.0130 -0.1075
  171SOPE   C2119300   1.280   4.706   6.807  0.4420 -0.2077 -0.6501
  171SOPE   O2219301   1.306   4.793   6.727  0.4177 -0.5895  0.3063
  171SOPE   C2219302   1.353   4.682   6.934  1.1398  0.2799 -0.1120
  171SOPE   H2R19303   1.451   4.733   6.927  1.3075  0.2861  1.8487
  171SOPE   H2S19304   1.374   4.574   6.953 -0.7346 -0.8127 -3.3794
  171SOPE    C319305   0.956   4.648   6.764 -0.2269 -0.1037 -0.1484
  171SOPE    HX19306   0.954   4.580   6.852  1.8983 -2.1390 -1.5833
  171SOPE    HY19307   0.878   4.611   6.694  1.0722 -0.9534 -1.1713
  171SOPE   O3119308   0.936   4.784   6.816  0.2844 -0.3914 -0.0060
  171SOPE   C3119309   0.890   4.873   6.736  0.0420 -0.3652  0.7476
  171SOPE   O3219310   0.845   4.857   6.624  0.8180  0.1926 -0.2138
  171SOPE   C3219311   0.882   5.007   6.816 -0.9230  0.0634  0.1473
  171SOPE   H2X19312   0.949   4.988   6.903  0.0473 -2.0865 -0.9756
  171SOPE   H2Y19313   0.774   5.020   6.841 -0.9561 -1.3592  0.8762
  171SOPE   C2319314   1.279   4.744   7.056  1.2349  0.8547 -0.1772
  171SOPE   H3R19315   1.176   4.709   7.076  0.9366  1.3480 -0.7898
  171SOPE   H3S19316   1.278   4.853   7.035  0.8096  0.7583 -0.6810
  171SOPE   C2419317   1.353   4.711   7.185  0.8368 -0.1131  0.3800
  171SOPE   H4R19318   1.350   4.600   7.195 -0.0321 -0.4918 -2.8349
  171SOPE   H4S19319   1.462   4.730   7.177  1.2554 -2.3944 -0.0605
  171SOPE   C2519320   1.282   4.768   7.307  0.7456 -0.3186 -0.3729
  171SOPE   H5R19321   1.261   4.877   7.313  0.0584 -0.4532 -0.1847
  171SOPE   H5S19322   1.184   4.716   7.318  0.3598  0.4410 -0.0618
  171SOPE   C2619323   1.348   4.744   7.439  0.2445 -0.5186 -0.2729
  171SOPE   H6R19324   1.357   4.639   7.474 -1.7718  0.5216  4.1220
  171SOPE   H6S19325   1.456   4.771   7.434  0.7764 -2.3151  0.5781
  171SOPE   C2719326   1.298   4.827   7.561 -0.3475 -0.2885  1.0233
  171SOPE   H7R19327   1.299   4.933   7.528  0.4357  0.3478  2.9520
  171SOPE   H7S19328   1.197   4.787   7.585 -0.3324  0.0732  1.6926
  171SOPE   C2819329   1.380   4.797   7.689 -0.5863 -0.0615  0.2827
  171SOPE   H8R19330   1.383   4.692   7.722  0.2220 -0.0890  0.1507
  171SOPE   H8S19331   1.486   4.812   7.657 -0.1833 -1.4404  0.8857
  171SOPE   C2919332   1.329   4.888   7.801  0.1625 -0.3944  0.6663
  171SOPE   H9119333   1.275   4.977   7.764  1.1341  1.2725  3.0369
  171SOPE  C21019334   1.320   4.863   7.932  0.3769 -0.5249 -0.0502
  171SOPE  H10119335   1.277   4.940   7.998 -0.3435 -0.0501 -1.0543
  171SOPE  C21119336   1.372   4.742   8.010 -0.7035 -0.1221  0.6870
  171SOPE  H11R19337   1.465   4.728   7.950 -1.7021  0.0173 -0.9669
  171SOPE  H11S19338   1.308   4.652   7.996  0.2571 -0.8429  0.8182
  171SOPE  C21219339   1.400   4.772   8.160  0.8204 -0.2663  0.4019
  171SOPE  H12R19340   1.304   4.790   8.214  0.8133 -2.8305  1.3983
  171SOPE  H12S19341   1.466   4.859   8.180  0.1247  0.2700  0.3957
  171SOPE  C21319342   1.480   4.668   8.230  0.3793  0.0769  0.2880
  171SOPE  H13R19343   1.504   4.718   8.326  0.1858  2.3199 -0.7546
  171SOPE  H13S19344   1.564   4.630   8.167 -0.6975  0.7578 -1.6547
  171SOPE  C21419345   1.397   4.550   8.281 -0.2603 -0.2478 -0.0778
  171SOPE  H14R19346   1.328   4.505   8.206  0.2105 -0.9660 -0.0911
  171SOPE  H14S19347   1.330   4.586   8.362 -0.1066 -2.7928  1.2866
  171SOPE  C21519348   1.486   4.438   8.348  0.7214  0.2020  0.0445
  171SOPE  H15R19349   1.557   4.395   8.274  2.5171  1.4828  0.9406
  171SOPE  H15S19350   1.406   4.369   8.381  0.9920  0.1570  0.6265
  171SOPE  C21619351   1.572   4.475   8.469  0.2060  0.0568 -0.6549
  171SOPE  H16R19352   1.517   4.537   8.543  1.0630  1.1671 -0.9133
  171SOPE  H16S19353   1.660   4.541   8.451 -1.0913  2.2339  0.5265
  171SOPE  C21719354   1.636   4.358   8.548  0.1051 -0.4896  0.5556
  171SOPE  H17R19355   1.725   4.320   8.493  0.7134  2.1017 -0.3808
  171SOPE  H17S19356   1.560   4.277   8.550  0.0021 -0.4983 -1.4821
  171SOPE  C21819357   1.673   4.393   8.694 -0.2271  0.6745  0.1429
  171SOPE  H18R19358   1.709   4.498   8.700  0.7274  0.3143  0.9777
  171SOPE  H18S19359   1.754   4.329   8.735 -0.9398 -1.3690 -1.4554
  171SOPE  H18T19360   1.583   4.376   8.758 -0.0690  1.2836  0.5345
  171SOPE   C3319361   0.938   5.131   6.732  0.1321  0.1344 -0.3341
  171SOPE   H3X19362   0.860   5.159   6.658 -0.3543 -0.3558 -0.0134
  171SOPE   H3Y19363   1.032   5.100   6.681 -0.2087 -2.3631  0.4163
  171SOPE   C3419364   0.964   5.249   6.828  0.0972 -0.2999 -0.0023
  171SOPE   H4X19365   0.884   5.251   6.905  1.2066 -1.1735  1.2195
  171SOPE   H4Y19366   0.970   5.346   6.773  1.1463 -1.2042 -1.5496
  171SOPE   C3519367   1.084   5.231   6.928 -0.6479  0.3798  0.3656
  171SOPE   H5X19368   1.174   5.198   6.871  0.0012  1.5339  0.6933
  171SOPE   H5Y19369   1.060   5.158   7.008  2.4161  0.8939  1.8738
  171SOPE   C3619370   1.116   5.351   7.021  0.5034 -0.2192  0.8324
  171SOPE   H6X19371   1.031   5.391   7.080 -0.2991 -2.2765  1.1587
  171SOPE   H6Y19372   1.147   5.431   6.950 -2.8474  1.6849  1.3045
  171SOPE   C3719373   1.227   5.327   7.114 -0.8671  0.0218  0.8198
  171SOPE   H7X19374   1.268   5.425   7.145 -1.8784  1.9810 -3.3485
  171SOPE   H7Y19375   1.305   5.264   7.066 -1.3407 -2.3236  2.8896
  171SOPE   C3819376   1.197   5.248   7.245 -0.1374 -0.5458  0.2725
  171SOPE   H8X19377   1.271   5.169   7.267  0.3296 -0.5355 -1.1703
  171SOPE   H8Y19378   1.097   5.199   7.245 -0.3838 -0.0538 -0.3735
  171SOPE   C3919379   1.202   5.337   7.373 -0.1074  0.3808  0.2308
  171SOPE   H9X19380   1.130   5.421   7.363 -2.9037 -1.9039  0.0821
  171SOPE   H9Y19381   1.308   5.368   7.391  0.4666 -1.5810  0.4845
  171SOPE  C31019382   1.161   5.262   7.504 -0.3516 -0.1043  0.3624
  171SOPE  H10X19383   1.216   5.166   7.519  1.0883  0.3605 -1.5368
  171SOPE  H10Y19384   1.051   5.251   7.509 -0.6340  2.4494  0.7786
  171SOPE  C31119385   1.204   5.338   7.631  0.4236 -0.1225  0.1966
  171SOPE  H11X19386   1.167   5.443   7.630  3.3924  1.0442  1.4358
  171SOPE  H11Y19387   1.314   5.351   7.628  0.4083 -0.0035  0.1488
  171SOPE  C31219388   1.177   5.262   7.761 -0.2378  0.6008 -0.1881
  171SOPE  H12X19389   1.254   5.183   7.774  1.3144  2.3111  1.7808
  171SOPE  H12Y19390   1.078   5.213   7.763  0.6449 -1.2481 -0.2817
  171SOPE  C31319391   1.190   5.342   7.893 -0.0232 -0.1242 -0.3089
  171SOPE  H13X19392   1.113   5.422   7.890  0.2520  0.1349 -0.5827
  171SOPE  H13Y19393   1.290   5.392   7.892  1.0576 -2.0975  1.1559
  171SOPE  C31419394   1.177   5.263   8.023  0.1212 -0.0793  0.6715
  171SOPE  H14X19395   1.229   5.166   8.035  0.1212 -0.0639  0.7967
  171SOPE  H14Y19396   1.073   5.225   8.011  0.6310 -1.1063 -0.8121
  171SOPE  C31519397   1.194   5.346   8.152  1.0099  0.0744 -0.4506
  171SOPE  H15X19398   1.132   5.438   8.152 -0.0576 -0.6098 -1.3877
  171SOPE  H15Y19399   1.299   5.376   8.172  0.8032 -1.0456  2.9410
  171SOPE  C31619400   1.155   5.274   8.277 -0.1968 -0.1753  0.2190
  171SOPE  H16X19401   1.222   5.185   8.283 -0.2513 -0.3355 -1.1245
  171SOPE  H16Y19402   1.048   5.245   8.277 -0.5689  1.0914 -1.3148
  171SOPE  C31719403   1.148   5.368   8.396 -0.0194 -0.1075  0.2757
  171SOPE  H17X19404   1.048   5.415   8.402  1.0611  2.1955  1.5438
  171SOPE  H17Y19405   1.225   5.446   8.381 -0.4257  0.5397  1.4505
  171SOPE  C31819406   1.177   5.303   8.525  0.6156  0.1802  0.2474
  171SOPE  H18X19407   1.162   5.388   8.595  0.4373 -0.1755  0.6431
  171SOPE  H18Y19408   1.279   5.261   8.530  0.6647 -0.1258 -2.1385
  171SOPE  H18Z19409   1.104   5.224   8.554  0.1626 -0.0326 -1.3658
  172SOPE     N19410   1.810   1.102   6.075 -0.5304  0.1917  0.3201
  172SOPE   HN119411   1.709   1.126   6.076 -0.6323  0.4288 -3.2154
  172SOPE   HN219412   1.866   1.163   6.138 -0.3325 -0.3469  0.6701
  172SOPE   HN319413   1.841   1.115   5.977 -0.9004 -2.0454 -0.1355
  172SOPE   C1219414   1.822   0.963   6.113  0.7176  0.3584 -0.1235
  172SOPE  H12A19415   1.928   0.946   6.143  0.2872  0.2947  1.3950
  172SOPE  H12B19416   1.799   0.894   6.028 -0.1109  0.3608  0.0997
  172SOPE   C1119417   1.738   0.933   6.238  0.5394  0.6616 -0.1662
  172SOPE  H11A19418   1.733   0.822   6.246  0.1466  0.7337  0.8165
  172SOPE  H11B19419   1.632   0.967   6.230  0.1865 -0.6252 -1.4341
  172SOPE     P19420   1.897   0.890   6.436  0.2705 -0.7878  0.0627
  172SOPE   O1319421   1.960   0.966   6.544  0.3806  0.3436 -0.0248
  172SOPE   O1419422   1.984   0.821   6.340  0.0010  0.1898  0.5583
  172SOPE   O1219423   1.802   0.990   6.350 -0.2141 -0.6471 -0.1673
  172SOPE   O1119424   1.792   0.785   6.497  0.2256  0.6619 -0.8974
  172SOPE    C119425   1.664   0.827   6.547 -0.3150 -0.0514  0.3772
  172SOPE    HA19426   1.589   0.746   6.533  0.9642 -1.3445  0.7951
  172SOPE    HB19427   1.625   0.920   6.500  3.4108  0.4560 -2.0542
  172SOPE    C219428   1.671   0.857   6.700  0.5507  0.5943  0.4526
  172SOPE    HS19429   1.740   0.944   6.706  3.3881 -1.4842  0.7338
  172SOPE   O2119430   1.727   0.749   6.769  0.6184  0.0039 -0.0449
  172SOPE   C2119431   1.818   0.775   6.866 -0.3836  0.3744  0.2664
  172SOPE   O2219432   1.863   0.888   6.878  0.3786  0.4712  0.0110
  172SOPE   C2219433   1.826   0.653   6.952 -0.0178  1.1218  0.0792
  172SOPE   H2R19434   1.840   0.565   6.886  0.4641  0.2106  1.3596
  172SOPE   H2S19435   1.731   0.637   7.008  0.1884 -2.1861 -0.3029
  172SOPE    C319436   1.537   0.895   6.763 -0.5811 -0.0877  0.5449
  172SOPE    HX19437   1.476   0.802   6.761 -0.4613 -0.1934  1.4161
  172SOPE    HY19438   1.486   0.970   6.700  0.1014  0.5873  0.7811
  172SOPE   O3119439   1.556   0.943   6.900  0.5116 -0.0849 -0.3680
  172SOPE   C3119440   1.446   1.012   6.947 -0.0515 -0.9993 -0.0585
  172SOPE   O3219441   1.343   1.026   6.888 -0.0771  0.2539  0.7867
  172SOPE   C3219442   1.481   1.049   7.093  0.2404  0.1382 -0.0119
  172SOPE   H2X19443   1.423   0.976   7.153 -0.2238  1.5697  1.3338
  172SOPE   H2Y19444   1.455   1.155   7.116  0.3292  0.1379  0.0896
  172SOPE   C2319445   1.947   0.659   7.044 -0.7325 -0.0725  0.3741
  172SOPE   H3R19446   1.927   0.736   7.122 -1.2923  0.0211  0.1428
  172SOPE   H3S19447   2.040   0.676   6.986 -1.7646 -0.9212 -1.6508
  172SOPE   C2419448   1.969   0.525   7.119 -0.2443  0.0149 -0.1798
  172SOPE   H4R19449   1.897   0.521   7.204  0.2934  2.7415  0.5089
  172SOPE   H4S19450   1.961   0.433   7.057  1.0449 -0.3520  0.1483
  172SOPE   C2519451   2.109   0.524   7.189  0.9463  0.8205  0.1245
  172SOPE   H5R19452   2.177   0.507   7.103  0.5192 -1.1148  0.1295
  172SOPE   H5S19453   2.127   0.623   7.236  1.9510  1.9852 -2.5109
  172SOPE   C2619454   2.120   0.406   7.294 -0.1523 -0.1794 -0.0444
  172SOPE   H6R19455   2.093   0.310   7.246  2.6911 -1.1420  0.0938
  172SOPE   H6S19456   2.226   0.411   7.326 -0.2043 -0.0029  0.1054
  172SOPE   C2719457   2.041   0.416   7.417 -0.3398 -0.3519 -0.3402
  172SOPE   H7R19458   2.051   0.518   7.459 -0.0941 -0.1478 -0.8854
  172SOPE   H7S19459   1.937   0.400   7.381 -0.2875  1.7880 -1.6443
  172SOPE   C2819460   2.055   0.308   7.528  0.0153 -0.0822  0.6172
  172SOPE   H8R19461   2.158   0.320   7.568  0.7371 -0.9216 -0.9196
  172SOPE   H8S19462   1.982   0.348   7.602 -0.7103  1.3782 -0.8299
  172SOPE   C2919463   2.047   0.157   7.514 -0.1060  0.0176  0.2113
  172SOPE   H9119464   2.090   0.123   7.418 -1.2020  0.7436 -0.5550
  172SOPE  C21019465   1.998   0.065   7.598 -0.3589 -0.5957 -0.2543
  172SOPE  H10119466   2.034  -0.036   7.573  0.9209 -0.3118  0.3363
  172SOPE  C21119467   1.950   0.092   7.742  0.6658  0.0211  0.3004
  172SOPE  H11R19468   1.866   0.025   7.771 -0.1166  0.4891 -0.8203
  172SOPE  H11S19469   1.901   0.192   7.744 -1.0143 -0.7027 -1.4028
  172SOPE  C21219470   2.051   0.092   7.856  0.1101  0.4819  0.6980
  172SOPE  H12R19471   2.117   0.181   7.850  1.5545 -0.5849  0.2268
  172SOPE  H12S19472   2.133   0.018   7.844 -0.1437  0.6467 -3.5703
  172SOPE  C21319473   1.995   0.103   7.999 -0.2151  0.2502 -0.6294
  172SOPE  H13R19474   1.895   0.151   7.999 -0.2434  0.2053  0.3427
  172SOPE  H13S19475   2.058   0.168   8.064  0.8624 -0.1787 -1.2229
  172SOPE  C21419476   1.971  -0.038   8.058  0.4400 -0.7817  0.1194
  172SOPE  H14R19477   2.067  -0.086   8.087  0.1201 -1.5249 -0.0266
  172SOPE  H14S19478   1.919  -0.103   7.985  0.9880 -1.2783  0.1614
  172SOPE  C21519479   1.886  -0.045   8.184  0.0828  0.0736 -0.4241
  172SOPE  H15R19480   1.938  -0.003   8.272 -0.3847 -0.4688  0.1307
  172SOPE  H15S19481   1.868  -0.155   8.193  2.0730 -0.3486 -1.0556
  172SOPE  C21619482   1.750   0.026   8.180  0.0752 -1.2556 -0.5607
  172SOPE  H16R19483   1.713  -0.005   8.080  0.3299 -1.0029 -0.7334
  172SOPE  H16S19484   1.759   0.135   8.161  0.2143 -1.2710 -0.5844
  172SOPE  C21719485   1.653  -0.002   8.299  0.0456 -0.0973  0.2129
  172SOPE  H17R19486   1.707   0.039   8.387  2.2819  2.6946 -2.2335
  172SOPE  H17S19487   1.632  -0.110   8.312 -1.6921  0.3419  1.5851
  172SOPE  C21819488   1.517   0.065   8.287  0.3237 -0.3168 -0.0472
  172SOPE  H18R19489   1.458   0.011   8.209  0.3294 -0.0764 -0.2202
  172SOPE  H18S19490   1.522   0.170   8.252 -0.3569 -0.6547 -1.2039
  172SOPE  H18T19491   1.460   0.053   8.382 -1.9463 -2.0067 -1.5007
  172SOPE   C3319492   1.629   1.031   7.137 -0.6756 -0.3497 -0.3002
  172SOPE   H3X19493   1.687   1.103   7.076 -0.0793  0.1958  0.9029
  172SOPE   H3Y19494   1.672   0.931   7.112 -1.6821 -0.2715 -2.5991
  172SOPE   C3419495   1.674   1.069   7.279  0.2544  0.4337  0.8095
  172SOPE   H4X19496   1.642   0.988   7.347 -0.2838 -0.5466 -0.5562
  172SOPE   H4Y19497   1.638   1.173   7.293 -0.1701  0.2405  1.1363
  172SOPE   C3519498   1.823   1.072   7.301 -0.1855 -0.0184 -0.2375
  172SOPE   H5X19499   1.840   1.131   7.394  1.0832  0.6589 -0.8801
  172SOPE   H5Y19500   1.873   1.132   7.222 -0.4608  1.5396  0.7295
  172SOPE   C3619501   1.898   0.941   7.294  0.6225 -0.1696 -0.7032
  172SOPE   H6X19502   2.000   0.961   7.333 -0.4305  1.4168  1.4622
  172SOPE   H6Y19503   1.909   0.913   7.187 -0.7620  1.2601 -1.2630
  172SOPE   C3719504   1.832   0.821   7.364 -0.7694 -0.0013 -0.0524
  172SOPE   H7X19505   1.904   0.736   7.357  0.1560  0.7822 -0.2412
  172SOPE   H7Y19506   1.740   0.792   7.309 -0.3445  1.1579 -1.3997
  172SOPE   C3819507   1.809   0.855   7.511  0.8287 -0.2050  0.3495
  172SOPE   H8X19508   1.738   0.783   7.558 -1.5796  0.8824 -1.3861
  172SOPE   H8Y19509   1.754   0.952   7.508 -1.1815 -1.2227  1.7906
  172SOPE   C3919510   1.936   0.868   7.596  0.2374  0.1337  0.0664
  172SOPE   H9X19511   2.012   0.927   7.539  0.2315  0.7898  0.7317
  172SOPE   H9Y19512   1.983   0.767   7.599 -0.5989 -0.3138 -1.0683
  172SOPE  C31019513   1.922   0.939   7.730  0.1160 -1.0419  0.0157
  172SOPE  H10X19514   1.881   1.042   7.714 -3.3699 -2.4541 -1.1205
  172SOPE  H10Y19515   2.017   0.955   7.785  0.0930  0.0966 -0.2452
  172SOPE  C31119516   1.817   0.871   7.819 -0.1552 -0.2298  0.1189
  172SOPE  H11X19517   1.832   0.761   7.812 -0.3713 -0.2673  0.2560
  172SOPE  H11Y19518   1.722   0.897   7.769  0.4240 -0.4367 -1.1374
  172SOPE  C31219519   1.833   0.900   7.969 -0.2117  0.2678  0.4279
  172SOPE  H12X19520   1.800   1.005   7.982  0.9348  0.8702 -1.1694
  172SOPE  H12Y19521   1.942   0.884   7.982 -0.2268 -1.3874 -1.0727
  172SOPE  C31319522   1.756   0.802   8.067  0.4866  0.2478  0.0313
  172SOPE  H13X19523   1.789   0.696   8.054 -1.3682 -0.8029  2.9559
  172SOPE  H13Y19524   1.650   0.813   8.036  1.0848  0.3915 -2.1331
  172SOPE  C31419525   1.781   0.840   8.211 -0.0239  0.0112 -0.0412
  172SOPE  H14X19526   1.771   0.950   8.223  2.9034  0.2412  0.8930
  172SOPE  H14Y19527   1.882   0.805   8.237 -0.0759  0.2703  0.5227
  172SOPE  C31519528   1.687   0.765   8.314  0.4528 -0.1915 -0.3666
  172SOPE  H15X19529   1.702   0.655   8.307 -0.6295 -0.3304 -0.7248
  172SOPE  H15Y19530   1.578   0.780   8.297  0.1075 -1.6432  0.3568
  172SOPE  C31619531   1.718   0.828   8.450 -0.3157  0.2714  0.4672
  172SOPE  H16X19532   1.678   0.931   8.446  1.2858  0.9569  1.2107
  172SOPE  H16Y19533   1.828   0.831   8.464 -0.0706 -1.1225 -0.9267
  172SOPE  C31719534   1.649   0.760   8.570 -0.3955 -0.6347 -0.6278
  172SOPE  H17X19535   1.659   0.650   8.564 -0.8698 -1.0063  3.0598
  172SOPE  H17Y19536   1.542   0.786   8.562  0.4042  3.3363 -0.9168
  172SOPE  C31819537   1.705   0.806   8.703 -1.1539  0.3293  0.3352
  172SOPE  H18X19538   1.710   0.916   8.717 -0.4401  0.3067  0.3079
  172SOPE  H18Y19539   1.808   0.771   8.726  0.3431  3.8290 -0.3764
  172SOPE  H18Z19540   1.642   0.767   8.786  0.3396 -2.2765  0.3527
  173SAPI   C1219541   3.737   5.509  10.918 -0.4201 -0.0721  0.7639
  173SAPI    H219542   3.698   5.578  10.840  0.3716 -1.3961 -0.8639
  173SAPI    O219543   3.864   5.449  10.872  0.4056 -0.2510  1.1325
  173SAPI   HO219544   3.876   5.458  10.777 -0.0872  1.2573  1.1804
  173SAPI   C1319545   3.755   5.606  11.036  0.5388  0.5012 -0.2403
  173SAPI    H319546   3.655   5.649  11.056 -0.5075 -2.5964  1.8933
  173SAPI    O319547   3.841   5.709  11.019 -0.1970 -0.1640 -0.3255
  173SAPI   HO319548   3.818   5.767  11.091 -0.4014  0.0412 -0.5535
  173SAPI   C1419549   3.786   5.522  11.157 -0.8158 -0.4924 -0.6479
  173SAPI    H419550   3.884   5.474  11.135 -1.0244 -1.3555  0.2153
  173SAPI    O419551   3.797   5.605  11.270 -0.2581 -0.3764  0.4277
  173SAPI   HO419552   3.876   5.576  11.317  1.2630 -0.0184 -1.7560
  173SAPI   C1519553   3.686   5.417  11.181  0.3386 -0.2356  0.3170
  173SAPI    H519554   3.591   5.474  11.191  0.8025  0.6634 -0.2325
  173SAPI    O519555   3.703   5.349  11.304 -0.1740  0.2766  0.3030
  173SAPI   HO519556   3.787   5.303  11.303 -0.8087 -1.1561  3.0809
  173SAPI   C1619557   3.655   5.322  11.063  0.1128 -1.2817 -0.4206
  173SAPI    H619558   3.750   5.266  11.048  1.3827  0.7769 -0.3771
  173SAPI    O619559   3.553   5.221  11.085  0.2886 -0.0597 -0.1664
  173SAPI   HO619560   3.468   5.245  11.047 -1.6386 -3.7002  1.3814
  173SAPI   C1119561   3.626   5.410  10.951  0.3757  0.4489  0.7869
  173SAPI    H119562   3.539   5.473  10.981 -0.8506 -0.4005 -0.7989
  173SAPI     P19563   3.454   5.314  10.771  0.1360 -0.1747  0.2120
  173SAPI   O1319564   3.374   5.248  10.875  0.1039 -0.0059 -0.2659
  173SAPI   O1419565   3.463   5.245  10.639 -0.0368  0.1073  0.0358
  173SAPI   O1219566   3.604   5.331  10.835  0.1770  0.5192  0.6722
  173SAPI   O1119567   3.404   5.461  10.755  0.0469 -0.4667  0.1703
  173SAPI    C119568   3.455   5.559  10.664 -0.4491 -0.8274 -0.2704
  173SAPI    HA19569   3.406   5.653  10.697  1.0341  0.2215 -0.9414
  173SAPI    HB19570   3.565   5.572  10.674 -0.6550 -0.5209  1.9637
  173SAPI    C219571   3.429   5.528  10.512 -0.7287  0.3892 -0.4867
  173SAPI    HS19572   3.492   5.441  10.486  1.6401  1.8278  0.1156
  173SAPI   O2119573   3.456   5.640  10.429  0.2840 -0.4225  0.1387
  173SAPI   C2119574   3.491   5.614  10.303 -0.5510 -0.4285  0.0979
  173SAPI   O2219575   3.517   5.507  10.259  0.3801  0.5256 -0.4223
  173SAPI   C2219576   3.504   5.751  10.226 -0.0958  0.7770  0.3248
  173SAPI   H2R19577   3.404   5.799  10.214 -0.1310  0.9227  1.1545
  173SAPI   H2S19578   3.559   5.820  10.294  2.6565 -0.6629 -0.2812
  173SAPI    C319579   3.283   5.485  10.488  0.3886  0.1119  0.4241
  173SAPI    HX19580   3.214   5.560  10.530  1.9396  1.5383  0.5196
  173SAPI    HY19581   3.265   5.393  10.548  0.4423  0.5001  1.0327
  173SAPI   O3119582   3.249   5.461  10.347 -0.3352  0.1416  0.1065
  173SAPI   C3119583   3.227   5.345  10.293 -0.6064 -0.5696  0.2204
  173SAPI   O3219584   3.262   5.240  10.345 -0.0513  0.4284  0.1074
  173SAPI   C3219585   3.159   5.361  10.152  0.0102 -0.0947 -0.4227
  173SAPI   H2X19586   3.097   5.453  10.158  1.2986  0.7948 -0.1107
  173SAPI   H2Y19587   3.089   5.275  10.145  0.0061 -0.2553  1.2056
  173SAPI   C2319588   3.586   5.757  10.089  0.1357 -0.0233 -1.2685
  173SAPI   H3R19589   3.680   5.700  10.105 -1.7709 -2.6161  1.9052
  173SAPI   H3S19590   3.610   5.863  10.068  0.9895 -0.1153 -0.8024
  173SAPI   C2419591   3.501   5.694   9.971  0.6029  0.3711 -0.1668
  173SAPI   H4R19592   3.463   5.597  10.010 -1.0064  0.8995 -0.3678
  173SAPI   H4S19593   3.572   5.658   9.893  0.5339 -1.6429  0.6333
  173SAPI   C2519594   3.400   5.779   9.905 -0.0357  0.4130  0.3418
  173SAPI   H5R19595   3.360   5.865   9.961  3.7211  1.4657  1.7749
  173SAPI   C2619596   3.367   5.769   9.777 -0.0852 -0.5130 -0.1848
  173SAPI   H6R19597   3.302   5.846   9.734  0.1685 -0.3184 -0.2226
  173SAPI   C2719598   3.418   5.677   9.672  0.1432  0.6688 -0.2014
  173SAPI   H7R19599   3.330   5.652   9.607  1.2712  2.1828 -2.4445
  173SAPI   H7S19600   3.458   5.585   9.720  0.2344  2.1145  2.6602
  173SAPI   C2819601   3.523   5.725   9.570 -0.6240 -0.5472  0.2269
  173SAPI   H8R19602   3.625   5.719   9.611 -1.0153 -1.1858  1.1414
  173SAPI   C2919603   3.506   5.783   9.454 -0.1107 -0.2337  0.9100
  173SAPI   H9R19604   3.597   5.822   9.407 -0.4662 -1.6700 -1.0702
  173SAPI  C21019605   3.373   5.808   9.391 -0.1147  0.5878  0.1041
  173SAPI  H10R19606   3.331   5.878   9.466 -3.4311 -1.1491  0.0576
  173SAPI  H10S19607   3.301   5.724   9.378 -0.0968  0.5114  0.4846
  173SAPI  C21119608   3.394   5.887   9.260 -0.2627  0.1621  0.4654
  173SAPI  H11R19609   3.425   5.990   9.278  1.3967  0.0598 -1.3930
  173SAPI  C21219610   3.362   5.841   9.144  0.5750  0.3754  0.4223
  173SAPI  H12R19611   3.378   5.905   9.056 -1.9084 -0.0770 -0.4298
  173SAPI  C21319612   3.304   5.706   9.111  0.6352 -0.5678  0.0968
  173SAPI  H13R19613   3.196   5.722   9.090  0.8080 -2.1511 -2.4640
  173SAPI  H13S19614   3.307   5.632   9.194 -0.8658 -0.0631  0.6315
  173SAPI  C21419615   3.373   5.644   8.987 -0.5300 -0.0723 -0.0608
  173SAPI  H14R19616   3.465   5.588   9.007  0.6923  1.5622 -0.8764
  173SAPI  C21519617   3.333   5.668   8.862  0.0562 -0.0052  0.6726
  173SAPI  H15R19618   3.376   5.625   8.770 -3.2441 -0.1838 -0.9259
  173SAPI  C21619619   3.214   5.765   8.835 -0.6471 -0.2751 -0.1346
  173SAPI  H16R19620   3.194   5.834   8.920  2.8933  0.9910 -0.1666
  173SAPI  H16S19621   3.117   5.714   8.822 -1.4662  1.3118 -0.4887
  173SAPI  C21719622   3.228   5.868   8.718  0.3114  0.5550  0.0230
  173SAPI  H17R19623   3.242   5.804   8.629 -0.2351 -0.7228  0.8295
  173SAPI  H17S19624   3.324   5.924   8.726  0.6041  0.2005 -0.8526
  173SAPI  C21819625   3.111   5.962   8.701  0.1921 -0.1050 -0.4492
  173SAPI  H18R19626   3.088   6.020   8.793  1.3440 -0.4351  0.0592
  173SAPI  H18S19627   3.015   5.910   8.680 -0.2977  0.8034 -0.4988
  173SAPI  C21919628   3.126   6.067   8.589  0.9661 -0.3121  0.2248
  173SAPI  H19R19629   3.153   6.015   8.494  0.9588 -3.0511  1.6209
  173SAPI  H19S19630   3.215   6.131   8.605  0.8378  0.1016 -0.6356
  173SAPI  C22019631   3.010   6.158   8.565 -0.0760 -0.4803 -0.5479
  173SAPI  H20R19632   2.988   6.210   8.661  0.6603 -2.1125  0.5559
  173SAPI  H20S19633   2.915   6.109   8.534 -0.9825 -0.4836  2.0195
  173SAPI  H20T19634   3.033   6.241   8.494  0.4752 -0.5603 -0.4679
  173SAPI   C3319635   3.254   5.365  10.034  0.8804 -0.5923  0.3576
  173SAPI   H3X19636   3.320   5.454  10.028 -0.9740  0.7514 -2.1023
  173SAPI   H3Y19637   3.183   5.374   9.949  1.9509 -3.1410 -0.9325
  173SAPI   C3419638   3.338   5.235  10.010 -0.9872  0.7170 -0.2146
  173SAPI   H4X19639   3.273   5.145  10.017  2.0618 -1.8146 -1.8131
  173SAPI   H4Y19640   3.412   5.210  10.089 -0.1220 -0.8177 -1.4590
  173SAPI   C3519641   3.412   5.226   9.874  0.3078 -0.2889  0.2669
  173SAPI   H5X19642   3.505   5.165   9.875  0.9671  0.6894  1.5200
  173SAPI   H5Y19643   3.447   5.329   9.849 -1.2035  0.5124  1.2765
  173SAPI   C3619644   3.313   5.157   9.777  0.6394  0.0940 -0.7762
  173SAPI   H6X19645   3.209   5.187   9.802  0.7921 -0.6594  0.8393
  173SAPI   H6Y19646   3.321   5.047   9.789 -1.2055 -0.0448 -0.5281
  173SAPI   C3719647   3.331   5.210   9.635 -0.4671  0.2504  0.6312
  173SAPI   H7X19648   3.280   5.138   9.568  1.9995  0.5708 -1.8034
  173SAPI   H7Y19649   3.441   5.199   9.623 -0.4364 -1.5248  2.0764
  173SAPI   C3819650   3.282   5.351   9.613 -0.4772 -0.3178  0.9173
  173SAPI   H8X19651   3.323   5.426   9.684  2.1868 -0.1515 -0.6363
  173SAPI   H8Y19652   3.173   5.359   9.633 -0.3023  0.5096  1.5868
  173SAPI   C3919653   3.323   5.408   9.478  0.5526  1.2322  0.4923
  173SAPI   H9X19654   3.431   5.436   9.476  1.4520 -1.8155  0.7911
  173SAPI   H9Y19655   3.264   5.499   9.454  1.1717  1.5483  0.1206
  173SAPI  C31019656   3.285   5.308   9.363  0.2691  0.0162  0.4476
  173SAPI  H10X19657   3.180   5.276   9.377  0.3059 -0.8274 -0.9743
  173SAPI  H10Y19658   3.348   5.217   9.363 -1.5661 -1.4964 -3.4903
  173SAPI  C31119659   3.293   5.372   9.225  0.4491  0.5141  0.4626
  173SAPI  H11X19660   3.395   5.414   9.211  0.1397  1.5816  1.2752
  173SAPI  H11Y19661   3.220   5.456   9.225  1.2800  1.2992 -1.6284
  173SAPI  C31219662   3.265   5.274   9.115  1.0681 -0.5432 -1.2008
  173SAPI  H12X19663   3.155   5.260   9.115  0.9722  0.0331 -2.6821
  173SAPI  H12Y19664   3.312   5.179   9.148 -1.3770 -1.9152 -1.4814
  173SAPI  C31319665   3.318   5.302   8.978 -0.6222 -0.0436  0.4438
  173SAPI  H13X19666   3.425   5.331   8.988 -0.8510  0.9210  0.2424
  173SAPI  H13Y19667   3.257   5.384   8.934  1.0536  1.0636  0.0923
  173SAPI  C31419668   3.293   5.177   8.893  0.3183 -0.3616  0.7406
  173SAPI  H14X19669   3.195   5.138   8.928  0.2518 -0.4277  0.4816
  173SAPI  H14Y19670   3.365   5.095   8.916 -0.0261 -0.6714  0.7257
  173SAPI  C31519671   3.282   5.200   8.742 -0.8518  0.5536  0.7311
  173SAPI  H15X19672   3.235   5.295   8.708  0.3699  0.5431 -1.2101
  173SAPI  H15Y19673   3.209   5.125   8.707  0.7134 -1.8876  2.4156
  173SAPI  C31619674   3.424   5.198   8.684 -0.2252  0.4203  0.6820
  173SAPI  H16X19675   3.470   5.099   8.707  1.2929  0.3203 -2.3131
  173SAPI  H16Y19676   3.474   5.280   8.740  0.2693 -0.6646  1.8981
  173SAPI  C31719677   3.421   5.223   8.526 -0.2481 -0.0786  0.2771
  173SAPI  H17X19678   3.335   5.166   8.485 -0.9762 -0.5143  2.2695
  173SAPI  H17Y19679   3.523   5.194   8.493 -0.3464 -0.3881  0.2359
  173SAPI  C31819680   3.410   5.373   8.487  0.2111 -0.4732  0.6989
  173SAPI  H18X19681   3.480   5.425   8.556  1.1487 -2.1968  1.0868
  173SAPI  H18Y19682   3.304   5.408   8.490  0.1863 -0.1399 -1.8865
  173SAPI  H18Z19683   3.441   5.379   8.381  0.5915  1.4823  0.8839
  174SAPI   C1219684   0.432   5.852  10.958  0.3776 -0.2669 -0.3239
  174SAPI    H219685   0.509   5.928  10.985  0.0122 -0.2622  0.7549
  174SAPI    O219686   0.440   5.823  10.819  0.0482 -0.1818  0.2932
  174SAPI   HO219687   0.456   5.914  10.791  0.6521 -0.2099  0.5270
  174SAPI   C1319688   0.462   5.732  11.037 -0.1299 -0.5725 -0.2983
  174SAPI    H319689   0.454   5.755  11.146 -1.5966  0.9075 -0.6793
  174SAPI    O319690   0.590   5.695  11.017 -0.0289  0.2583  0.3621
  174SAPI   HO319691   0.654   5.765  11.029  2.1976 -1.7131  0.7618
  174SAPI   C1419692   0.361   5.622  11.010  0.5891  0.2818 -0.5026
  174SAPI    H419693   0.373   5.606  10.901  0.6866  0.8828 -0.5806
  174SAPI    O419694   0.399   5.500  11.076 -0.1302 -0.6854 -0.3644
  174SAPI   HO419695   0.428   5.441  11.006 -2.4076 -1.6844 -0.5628
  174SAPI   C1519696   0.222   5.673  11.039  0.3720  0.3104  0.3215
  174SAPI    H519697   0.232   5.687  11.149  1.8088 -0.2400  0.2883
  174SAPI    O519698   0.118   5.577  11.014 -0.5433  0.4055 -0.2777
  174SAPI   HO519699   0.045   5.600  11.072 -1.7584 -0.3263 -1.4395
  174SAPI   C1619700   0.188   5.802  10.967 -0.1691 -0.8747  0.1645
  174SAPI    H619701   0.168   5.780  10.860 -1.1121 -2.0579  0.5679
  174SAPI    O619702   0.065   5.850  11.022 -0.6127 -0.1694 -0.0872
  174SAPI   HO619703  -0.004   5.835  10.957  1.0236 -2.0776 -1.5035
  174SAPI   C1119704   0.292   5.909  10.996 -0.3118  0.3880 -0.1815
  174SAPI    H119705   0.300   5.940  11.103 -1.9298  0.0774  0.0522
  174SAPI     P19706   0.348   6.171  10.960 -0.3007 -0.4249 -0.1934
  174SAPI   O1319707   0.348   6.188  11.106  0.4093 -0.2963 -0.3665
  174SAPI   O1419708   0.293   6.281  10.871 -0.3989  0.2962 -0.0156
  174SAPI   O1219709   0.268   6.034  10.924 -0.0602  0.2346  0.4494
  174SAPI   O1119710   0.492   6.133  10.909 -0.0550  0.6866  0.3941
  174SAPI    C119711   0.570   6.182  10.799 -0.1127 -0.4184 -0.1362
  174SAPI    HA19712   0.613   6.283  10.818 -0.8369 -0.0369 -0.4862
  174SAPI    HB19713   0.654   6.110  10.787  0.6429  0.3808  0.2470
  174SAPI    C219714   0.499   6.175  10.656  0.0128 -0.1693 -0.6819
  174SAPI    HS19715   0.399   6.223  10.664 -0.5865 -1.2620 -1.2948
  174SAPI   O2119716   0.482   6.031  10.624  0.5266 -0.0241  0.7145
  174SAPI   C2119717   0.373   6.004  10.562 -0.1691  0.1007 -0.1832
  174SAPI   O2219718   0.284   6.078  10.532  0.6515 -0.1765 -0.3893
  174SAPI   C2219719   0.379   5.862  10.508  0.0080  0.3179  1.2863
  174SAPI   H2R19720   0.480   5.817  10.516 -0.3117 -0.3836  1.5049
  174SAPI   H2S19721   0.318   5.796  10.574  1.6086 -1.1132  1.4261
  174SAPI    C319722   0.585   6.252  10.547  0.0297 -0.3116  0.1705
  174SAPI    HX19723   0.676   6.189  10.545  1.7192  1.9060 -3.2535
  174SAPI    HY19724   0.611   6.357  10.570 -0.4232 -0.0824 -0.3404
  174SAPI   O3119725   0.529   6.246  10.415  0.0681  0.0919 -0.1521
  174SAPI   C3119726   0.423   6.322  10.392 -0.2699  1.0691  0.0581
  174SAPI   O3219727   0.373   6.402  10.474  0.0393  0.4386  0.1178
  174SAPI   C3219728   0.393   6.317  10.241 -0.0432 -0.4011  0.1377
  174SAPI   H2X19729   0.283   6.331  10.242  0.0637  0.9074  2.2770
  174SAPI   H2Y19730   0.428   6.219  10.202  0.6851 -0.9309  1.9720
  174SAPI   C2319731   0.316   5.844  10.361  0.8954 -0.2681 -0.2095
  174SAPI   H3R19732   0.247   5.927  10.335 -0.5973 -2.2021 -2.9056
  174SAPI   H3S19733   0.253   5.752  10.360  0.6467 -0.1632  1.5940
  174SAPI   C2419734   0.418   5.825  10.259 -0.5979  0.2539 -0.3300
  174SAPI   H4R19735   0.364   5.821  10.162  0.9532  0.3427 -1.2222
  174SAPI   H4S19736   0.453   5.722  10.283 -0.8882  0.4553  1.0409
  174SAPI   C2519737   0.527   5.927  10.244 -0.5051  0.9007  0.2767
  174SAPI   H5R19738   0.582   5.959  10.334  0.4571 -0.3254  0.1576
  174SAPI   C2619739   0.568   5.970  10.121 -0.2580  0.1094  0.1340
  174SAPI   H6R19740   0.651   6.042  10.121  0.9724 -1.2530  0.3310
  174SAPI   C2719741   0.513   5.944   9.983  0.2140  0.0391  0.4924
  174SAPI   H7R19742   0.554   6.014   9.907  0.1677  0.5303  0.9170
  174SAPI   H7S19743   0.406   5.972   9.976 -0.0959 -1.5026 -2.2448
  174SAPI   C2819744   0.531   5.805   9.929  0.0143  0.6252  0.0547
  174SAPI   H8R19745   0.520   5.727  10.006  1.0591  1.6071  1.2616
  174SAPI   C2919746   0.551   5.773   9.800 -0.6146  0.0434 -0.0214
  174SAPI   H9R19747   0.576   5.670   9.768  2.0903  1.2694 -2.3300
  174SAPI  C21019748   0.569   5.862   9.685  0.8035 -0.2628  0.0395
  174SAPI  H10R19749   0.550   5.968   9.712 -2.1784 -0.3384 -1.3960
  174SAPI  H10S19750   0.495   5.841   9.605 -1.1173 -1.2113  1.9884
  174SAPI  C21119751   0.710   5.850   9.634 -0.3755  0.3404  0.7331
  174SAPI  H11R19752   0.777   5.773   9.674  0.3353  1.4790  1.8059
  174SAPI  C21219753   0.761   5.916   9.526 -0.0557 -0.0529 -0.7875
  174SAPI  H12R19754   0.868   5.902   9.506  0.6320 -0.2722  2.6130
  174SAPI  C21319755   0.690   6.013   9.437  0.3977 -0.5769 -0.7490
  174SAPI  H13R19756   0.767   6.087   9.406 -0.7809  1.4595  0.9187
  174SAPI  H13S19757   0.627   6.072   9.507  1.8733 -0.6370  0.7005
  174SAPI  C21419758   0.599   5.956   9.328  0.0600 -0.1362 -0.2960
  174SAPI  H14R19759   0.574   5.848   9.330 -1.2673  0.1534  0.6783
  174SAPI  C21519760   0.541   6.032   9.235  0.6733 -0.4557  0.0335
  174SAPI  H15R19761   0.465   5.987   9.169  1.0985 -0.2880 -0.5727
  174SAPI  C21619762   0.569   6.179   9.204 -0.0218 -0.5796 -0.4603
  174SAPI  H16R19763   0.642   6.230   9.271  0.9606 -1.1568 -1.0660
  174SAPI  H16S19764   0.483   6.246   9.224 -0.2215 -0.6371 -1.1252
  174SAPI  C21719765   0.616   6.193   9.056  0.1227 -0.3757 -0.5649
  174SAPI  H17R19766   0.693   6.113   9.046 -0.0119 -1.4087  4.3185
  174SAPI  H17S19767   0.667   6.290   9.041  0.6216 -0.6370 -0.5863
  174SAPI  C21819768   0.494   6.166   8.964  0.4464 -0.5414 -0.9388
  174SAPI  H18R19769   0.403   6.224   8.991 -0.8604 -2.6607 -0.5734
  174SAPI  H18S19770   0.486   6.055   8.966 -0.2532 -0.4907  0.4041
  174SAPI  C21919771   0.528   6.199   8.817 -0.2768 -0.3797 -0.0675
  174SAPI  H19R19772   0.622   6.164   8.769 -0.4778  1.2153 -1.7173
  174SAPI  H19S19773   0.515   6.308   8.800  0.9837 -0.3508 -0.9346
  174SAPI  C22019774   0.418   6.144   8.728  0.0631 -0.7265  0.4134
  174SAPI  H20R19775   0.453   6.055   8.672  0.0296 -0.5557  0.1189
  174SAPI  H20S19776   0.393   6.214   8.645  2.5219  0.5092  0.6272
  174SAPI  H20T19777   0.326   6.119   8.786  0.3828 -0.2644  1.1291
  174SAPI   C3319778   0.462   6.429  10.160  0.1325  0.2312  0.3765
  174SAPI   H3X19779   0.567   6.424  10.197 -0.0816  0.0168  0.9624
  174SAPI   H3Y19780   0.424   6.528  10.192 -0.9567  0.1226 -0.5157
  174SAPI   C3419781   0.449   6.412  10.013 -0.5644 -0.5542  1.3930
  174SAPI   H4X19782   0.466   6.508   9.959 -0.3941 -0.9643  0.6983
  174SAPI   H4Y19783   0.349   6.381   9.978 -0.2437  1.4092 -1.6813
  174SAPI   C3519784   0.539   6.308   9.947  0.0677  0.0860 -0.3687
  174SAPI   H5X19785   0.515   6.206   9.984  2.3641 -1.8888 -3.7337
  174SAPI   H5Y19786   0.641   6.341   9.976  0.0848 -0.8904  0.7274
  174SAPI   C3619787   0.526   6.297   9.793 -0.1006  0.1808 -0.5720
  174SAPI   H6X19788   0.423   6.262   9.772 -0.0683 -1.3186  1.4801
  174SAPI   H6Y19789   0.590   6.215   9.755 -2.0652  0.1686 -4.3861
  174SAPI   C3719790   0.557   6.429   9.720 -0.5400 -0.0795  0.1470
  174SAPI   H7X19791   0.651   6.468   9.763 -0.8117  2.3766 -1.2594
  174SAPI   H7Y19792   0.475   6.500   9.744  0.7505  0.8097  2.1611
  174SAPI   C3819793   0.579   6.414   9.572  1.1294  0.5310 -0.1922
  174SAPI   H8X19794   0.483   6.391   9.521  0.1071  1.3135  1.2965
  174SAPI   H8Y19795   0.644   6.325   9.556  0.8224  0.3153 -0.2605
  174SAPI   C3919796   0.637   6.538   9.515 -0.9008  0.7214  0.1141
  174SAPI   H9X19797   0.729   6.565   9.571 -0.5761  0.8339 -0.4654
  174SAPI   H9Y19798   0.569   6.626   9.520 -2.8628 -0.6395 -1.1276
  174SAPI  C31019799   0.664   6.523   9.368  0.3542 -0.0893 -0.3285
  174SAPI  H10X19800   0.573   6.470   9.332  1.0521 -2.3750  1.0719
  174SAPI  H10Y19801   0.751   6.459   9.341  0.8785  0.4716  0.0199
  174SAPI  C31119802   0.682   6.656   9.294  0.2400 -1.2463  0.2327
  174SAPI  H11X19803   0.778   6.699   9.328 -0.0008 -1.0934  0.7310
  174SAPI  H11Y19804   0.611   6.730   9.337  1.6117  0.7459 -0.7669
  174SAPI  C31219805   0.699   6.636   9.148 -0.2157 -0.2289  0.3008
  174SAPI  H12X19806   0.604   6.600   9.103  0.0919 -1.0508  0.2824
  174SAPI  H12Y19807   0.780   6.559   9.148  0.9639  0.9368 -1.8010
  174SAPI  C31319808   0.743   6.770   9.087  0.1168  0.2674 -0.2346
  174SAPI  H13X19809   0.831   6.814   9.140 -0.1280  0.9330 -0.3661
  174SAPI  H13Y19810   0.669   6.852   9.098  0.4171  0.6588 -1.0422
  174SAPI  C31419811   0.789   6.767   8.939 -0.1092  0.6252  0.0954
  174SAPI  H14X19812   0.697   6.746   8.880 -0.5742  2.0595  0.2762
  174SAPI  H14Y19813   0.860   6.681   8.928 -2.7125 -1.6454 -0.0363
  174SAPI  C31519814   0.861   6.892   8.897  0.4037 -0.2827 -0.5954
  174SAPI  H15X19815   0.805   6.983   8.928 -0.0539 -0.0953 -1.9091
  174SAPI  H15Y19816   0.872   6.887   8.786  0.3214 -2.1802 -0.5483
  174SAPI  C31619817   1.005   6.908   8.946  0.3560  0.3075  0.4003
  174SAPI  H16X19818   1.050   6.808   8.924 -1.8559 -1.0923  1.8196
  174SAPI  H16Y19819   1.012   6.919   9.056 -1.0902  0.4451  0.4858
  174SAPI  C31719820   1.082   7.024   8.880  0.0935  0.7771 -0.5837
  174SAPI  H17X19821   1.112   6.992   8.777  0.1590 -1.1418 -0.0171
  174SAPI  H17Y19822   1.175   7.040   8.939  0.1145 -1.3952  0.0548
  174SAPI  C31819823   1.018   7.161   8.903 -0.1519  0.2866  0.2852
  174SAPI  H18X19824   0.974   7.180   9.004 -0.7319  1.0948 -0.1089
  174SAPI  H18Y19825   0.928   7.186   8.842  0.3479  2.3490  0.3091
  174SAPI  H18Z19826   1.096   7.234   8.873 -0.1964 -0.2158 -1.1059
  175SAPI   C1219827   3.148   4.658   6.411  0.2226  0.3029  0.4441
  175SAPI    H219828   3.241   4.656   6.473  0.9428  0.8075 -0.5865
  175SAPI    O219829   3.067   4.552   6.454  0.2658 -0.4661  0.0468
  175SAPI   HO219830   3.125   4.476   6.441  1.5961  0.8382 -2.5219
  175SAPI   C1319831   3.068   4.786   6.426 -0.3599  0.4067  0.4166
  175SAPI    H319832   3.128   4.872   6.388 -0.5043  1.2866  2.0499
  175SAPI    O319833   3.041   4.817   6.563 -0.0874 -0.1832  0.1386
  175SAPI   HO319834   2.974   4.763   6.606  0.1728 -0.3289  0.3605
  175SAPI   C1419835   2.944   4.785   6.342 -0.1580 -0.5912 -1.0229
  175SAPI    H419836   2.876   4.711   6.389 -1.0320  1.7853  1.7634
  175SAPI    O419837   2.884   4.910   6.370 -0.3200 -0.2998 -0.4514
  175SAPI   HO419838   2.791   4.904   6.346 -0.8319 -0.3670  1.3627
  175SAPI   C1519839   2.973   4.770   6.200 -0.3768 -0.1028  0.0481
  175SAPI    H519840   3.035   4.855   6.165  0.9709 -1.8444 -1.9647
  175SAPI    O519841   2.858   4.756   6.121  0.1082 -0.3348  0.2510
  175SAPI   HO519842   2.786   4.813   6.150 -0.1861  0.4058 -1.7911
  175SAPI   C1619843   3.065   4.641   6.176 -0.4297  1.0980 -0.4489
  175SAPI    H619844   3.007   4.548   6.195  0.6895  0.3780 -0.4937
  175SAPI    O619845   3.116   4.625   6.045  0.3678  0.3983  0.6010
  175SAPI   HO619846   3.150   4.535   6.049 -0.6574 -0.0682 -0.3310
  175SAPI   C1119847   3.187   4.634   6.269  0.2231  0.0710 -0.1858
  175SAPI    H119848   3.237   4.728   6.237 -1.1423  1.5959  1.8627
  175SAPI     P19849   3.424   4.519   6.258 -0.1367 -0.2401  0.3491
  175SAPI   O1319850   3.458   4.657   6.216  0.3129  0.4867 -0.1610
  175SAPI   O1419851   3.480   4.406   6.182  0.3401  0.7075  0.4689
  175SAPI   O1219852   3.265   4.515   6.248  0.0675 -0.2882 -0.5827
  175SAPI   O1119853   3.436   4.499   6.411  0.2720  0.4815  0.0280
  175SAPI    C119854   3.566   4.535   6.473 -0.1472 -0.1292 -0.2702
  175SAPI    HA19855   3.643   4.499   6.402 -0.7948 -0.4769 -0.8080
  175SAPI    HB19856   3.580   4.644   6.490  3.0830 -0.6408  1.0396
  175SAPI    C219857   3.591   4.473   6.619 -0.1636 -1.1568  0.3042
  175SAPI    HS19858   3.701   4.483   6.633  0.0149 -0.3264 -1.4321
  175SAPI   O2119859   3.552   4.339   6.618 -0.0706  1.2754 -0.0185
  175SAPI   C2119860   3.624   4.256   6.696  0.1562  0.1672 -0.3656
  175SAPI   O2219861   3.711   4.288   6.774  0.1576 -0.0589 -0.3141
  175SAPI   C2219862   3.579   4.116   6.669  0.0617  0.2891 -0.5903
  175SAPI   H2R19863   3.468   4.118   6.667 -0.0421 -0.2213  1.6650
  175SAPI   H2S19864   3.609   4.086   6.566  1.8234 -3.0146  0.7194
  175SAPI    C319865   3.503   4.558   6.714  0.0935  0.0755  0.4987
  175SAPI    HX19866   3.395   4.536   6.698  0.5860 -0.6873 -2.3702
  175SAPI    HY19867   3.514   4.666   6.690 -1.9119 -0.5298 -4.3058
  175SAPI   O3119868   3.538   4.527   6.848  0.1740  0.1723 -0.1850
  175SAPI   C3119869   3.651   4.583   6.901  0.2735 -0.5968 -0.5903
  175SAPI   O3219870   3.731   4.645   6.838  0.3839  0.0009 -0.2103
  175SAPI   C3219871   3.665   4.544   7.056  0.3765  0.1555  0.0758
  175SAPI   H2X19872   3.671   4.433   7.052 -0.2290 -0.1377  3.7304
  175SAPI   H2Y19873   3.577   4.578   7.115  0.6510 -0.2100  0.6992
  175SAPI   C2319874   3.654   4.014   6.764 -0.0854  0.6651 -0.6411
  175SAPI   H3R19875   3.633   4.043   6.870  1.6204 -2.0074  0.5178
  175SAPI   H3S19876   3.763   4.031   6.758 -0.0057  2.0729  2.5689
  175SAPI   C2419877   3.625   3.873   6.731  0.3551 -0.3346 -0.1942
  175SAPI   H4R19878   3.701   3.809   6.780  1.7113  1.7808  0.6029
  175SAPI   H4S19879   3.647   3.845   6.626 -1.6311 -2.1073 -0.2109
  175SAPI   C2519880   3.480   3.847   6.766 -0.1954 -0.1306  0.0940
  175SAPI   H5R19881   3.411   3.843   6.680 -3.1521  1.0595  2.2312
  175SAPI   C2619882   3.443   3.808   6.892  0.2457 -0.6062 -0.5633
  175SAPI   H6R19883   3.339   3.781   6.917  0.2446  2.3166  3.5970
  175SAPI   C2719884   3.528   3.795   7.015  0.1083  0.0801  0.1011
  175SAPI   H7R19885   3.507   3.889   7.070 -2.5728 -0.2141 -0.2730
  175SAPI   H7S19886   3.635   3.787   6.985  0.1430 -1.0684  0.4606
  175SAPI   C2819887   3.494   3.673   7.108  0.9118 -0.0068  0.1739
  175SAPI   H8R19888   3.538   3.578   7.077 -1.9047 -1.8435  1.4045
  175SAPI   C2919889   3.405   3.681   7.206 -0.2540 -0.7656 -0.2602
  175SAPI   H9R19890   3.378   3.588   7.258 -2.4728 -1.0078 -1.7275
  175SAPI  C21019891   3.326   3.802   7.255 -0.0635  0.1721 -0.4484
  175SAPI  H10R19892   3.219   3.789   7.229  0.3200 -0.8486 -1.6515
  175SAPI  H10S19893   3.370   3.900   7.227 -0.9194  0.7113  0.0786
  175SAPI  C21119894   3.350   3.812   7.405  1.0661  0.9057  0.0966
  175SAPI  H11R19895   3.456   3.811   7.434  1.1322  1.9588 -0.0583
  175SAPI  C21219896   3.254   3.841   7.500 -0.3304  0.4861 -0.0819
  175SAPI  H12R19897   3.279   3.848   7.607 -0.3703  2.8057 -0.1738
  175SAPI  C21319898   3.110   3.862   7.482  0.0445 -0.4362  0.9132
  175SAPI  H13R19899   3.082   3.863   7.375  1.2298  1.2521  0.5823
  175SAPI  H13S19900   3.083   3.964   7.516 -2.4425 -0.6210 -0.3244
  175SAPI  C21419901   3.031   3.757   7.550 -0.1509  0.7501  0.0956
  175SAPI  H14R19902   2.991   3.677   7.485 -0.4114 -0.6113  1.8661
  175SAPI  C21519903   3.003   3.750   7.683  0.4312 -0.1158  0.7892
  175SAPI  H15R19904   2.932   3.678   7.725  0.0308 -1.4345 -1.9843
  175SAPI  C21619905   3.064   3.840   7.793  0.8136 -0.4034  0.4655
  175SAPI  H16R19906   2.985   3.878   7.861  0.6838 -1.6953  1.0674
  175SAPI  H16S19907   3.124   3.926   7.756  0.2365 -0.8067 -1.5879
  175SAPI  C21719908   3.154   3.770   7.882 -0.9271  0.5033 -0.2587
  175SAPI  H17R19909   3.229   3.712   7.823  0.3201 -2.0521  3.4778
  175SAPI  H17S19910   3.100   3.700   7.950 -2.2551  1.4487 -0.2998
  175SAPI  C21819911   3.228   3.879   7.965 -0.6916 -0.1545  0.1627
  175SAPI  H18R19912   3.263   3.947   7.884  0.0602 -1.4982 -0.6755
  175SAPI  H18S19913   3.326   3.844   8.003 -0.3515 -1.2210 -1.5767
  175SAPI  C21919914   3.157   3.961   8.071  0.6737 -0.2602  0.7252
  175SAPI  H19R19915   3.078   4.021   8.020  0.0961 -1.3170  0.3532
  175SAPI  H19S19916   3.225   4.027   8.129  0.5499  1.0361 -0.5473
  175SAPI  C22019917   3.096   3.858   8.170 -0.6747 -0.7158 -0.3583
  175SAPI  H20R19918   3.042   3.910   8.252 -0.3991  0.0233 -0.6392
  175SAPI  H20S19919   3.183   3.798   8.204  2.1963  2.0545 -2.1716
  175SAPI  H20T19920   3.021   3.797   8.116  0.4409 -1.6469 -0.9075
  175SAPI   C3319921   3.800   4.600   7.116  0.2289 -0.5025 -0.5281
  175SAPI   H3X19922   3.822   4.707   7.093 -1.8615 -0.4229 -2.5500
  175SAPI   H3Y19923   3.872   4.527   7.074 -1.0634 -1.2536 -1.5207
  175SAPI   C3419924   3.804   4.606   7.268  0.4144 -0.1580 -0.0368
  175SAPI   H4X19925   3.909   4.636   7.290  1.0240 -3.1322  1.5418
  175SAPI   H4Y19926   3.775   4.503   7.298 -0.5279 -0.4770 -1.9279
  175SAPI   C3519927   3.699   4.694   7.350  0.0603 -0.8298  0.2619
  175SAPI   H5X19928   3.596   4.666   7.319  0.5224 -2.3543  0.0321
  175SAPI   H5Y19929   3.714   4.804   7.338  0.6162 -0.7022  1.8343
  175SAPI   C3619930   3.711   4.670   7.495  1.1299  0.8341  0.9206
  175SAPI   H6X19931   3.692   4.562   7.511  2.1007  0.6748  1.0866
  175SAPI   H6Y19932   3.630   4.725   7.547 -1.6701 -1.5584 -0.6080
  175SAPI   C3719933   3.853   4.702   7.543  0.3045 -0.5825 -0.2981
  175SAPI   H7X19934   3.893   4.799   7.507 -3.0695  0.5316 -1.4524
  175SAPI   H7Y19935   3.920   4.624   7.502 -0.1119 -0.4627 -1.2358
  175SAPI   C3819936   3.862   4.698   7.699 -0.2579 -0.2959  0.0423
  175SAPI   H8X19937   3.838   4.598   7.740 -2.0702  0.7213  1.6168
  175SAPI   H8Y19938   3.785   4.764   7.743  0.6512  0.5122  0.4661
  175SAPI   C3919939   4.002   4.748   7.736  0.1163  0.1687 -0.1272
  175SAPI   H9X19940   4.016   4.846   7.686 -1.4647 -0.3414 -1.6866
  175SAPI   H9Y19941   4.074   4.676   7.692 -0.1773 -1.7932  2.3893
  175SAPI  C31019942   4.028   4.756   7.887 -0.5271 -0.2775  0.3189
  175SAPI  H10X19943   4.018   4.654   7.930 -2.0009 -0.5727 -0.6476
  175SAPI  H10Y19944   3.953   4.831   7.922 -1.8672  0.1932 -3.1329
  175SAPI  C31119945   4.173   4.793   7.917  0.6729  0.0038 -0.0714
  175SAPI  H11X19946   4.191   4.892   7.870 -1.4827  0.5509  0.1264
  175SAPI  H11Y19947   4.246   4.721   7.875  1.2749  1.6563 -2.0558
  175SAPI  C31219948   4.196   4.802   8.072 -0.2294 -0.2200  0.2588
  175SAPI  H12X19949   4.144   4.715   8.119 -0.4618 -1.0363 -1.4263
  175SAPI  H12Y19950   4.155   4.900   8.103 -1.1181  0.2252 -2.0573
  175SAPI  C31319951   4.342   4.777   8.113  0.1167 -0.7737 -0.5836
  175SAPI  H13X19952   4.409   4.846   8.056 -2.5557  0.6866 -2.1508
  175SAPI  H13Y19953   4.361   4.671   8.084  0.6353 -1.7992  2.9985
  175SAPI  C31419954   4.374   4.775   8.263 -0.0494 -0.1402 -0.5950
  175SAPI  H14X19955   4.482   4.752   8.277 -0.1930  0.1617  1.2324
  175SAPI  H14Y19956   4.303   4.707   8.313 -1.2413 -0.2354 -2.3218
  175SAPI  C31519957   4.355   4.914   8.326  0.4682  0.6782 -0.7477
  175SAPI  H15X19958   4.251   4.951   8.309  0.6084  0.9450 -1.0380
  175SAPI  H15Y19959   4.432   4.984   8.288  0.8195  0.5537 -0.2721
  175SAPI  C31619960   4.375   4.902   8.481  0.6985 -0.1364 -0.1842
  175SAPI  H16X19961   4.477   4.866   8.507  0.9082 -0.0801 -0.9150
  175SAPI  H16Y19962   4.311   4.825   8.530  0.1707  1.3260  1.5393
  175SAPI  C31719963   4.352   5.037   8.557 -1.0389  0.4852 -0.1867
  175SAPI  H17X19964   4.245   5.067   8.561 -1.3590 -0.5195 -0.7508
  175SAPI  H17Y19965   4.410   5.109   8.495  0.4769  1.5572  2.3136
  175SAPI  C31819966   4.422   5.026   8.695  0.9487  0.0846 -0.2005
  175SAPI  H18X19967   4.440   5.125   8.742  3.9298 -0.9200  1.0300
  175SAPI  H18Y19968   4.509   4.957   8.691  0.4160 -0.8552  2.2887
  175SAPI  H18Z19969   4.355   4.981   8.771  2.0722 -2.4790 -0.6297
  176SAPI   C1219970   2.024   2.902   6.572  0.0987 -0.0489 -0.8393
  176SAPI    H219971   1.922   2.883   6.612  0.7688 -3.4835 -0.5015
  176SAPI    O219972   2.110   2.902   6.687 -0.3896  0.0341  0.2266
  176SAPI   HO219973   2.190   2.853   6.664 -1.6338 -2.0439  0.0106
  176SAPI   C1319974   2.065   2.795   6.469 -0.5881  0.0477 -0.0081
  176SAPI    H319975   2.003   2.796   6.376  2.7153  1.8254 -2.4100
  176SAPI    O319976   2.067   2.662   6.523  0.3911  0.2995 -0.0055
  176SAPI   HO319977   2.032   2.597   6.462 -1.5550 -0.1781  1.5265
  176SAPI   C1419978   2.205   2.837   6.422 -0.0682 -0.5171  0.3523
  176SAPI    H419979   2.268   2.849   6.513 -2.7499 -0.9649  2.4124
  176SAPI    O419980   2.257   2.724   6.343 -0.0575 -0.1501 -0.0131
  176SAPI   HO419981   2.322   2.685   6.403  1.4585  0.8087 -0.9699
  176SAPI   C1519982   2.212   2.963   6.339 -0.4845  0.3995 -0.7235
  176SAPI    H519983   2.157   2.942   6.244  0.3050  0.9602 -1.3082
  176SAPI    O519984   2.347   2.993   6.302  0.0173  0.3738  0.5851
  176SAPI   HO519985   2.331   3.039   6.219 -2.6818  1.0419  1.3822
  176SAPI   C1619986   2.160   3.072   6.429 -0.3435 -1.2379  0.0386
  176SAPI    H619987   2.228   3.099   6.513 -1.3114 -0.2490  0.5329
  176SAPI    O619988   2.141   3.188   6.353 -0.2518  0.1067 -0.2206
  176SAPI   HO619989   2.135   3.250   6.426  3.6863  0.1791  0.2735
  176SAPI   C1119990   2.020   3.034   6.492  0.2835  0.1275  0.1359
  176SAPI    H119991   1.951   3.017   6.407  1.4361 -2.2827 -0.3858
  176SAPI     P19992   1.815   3.204   6.574 -0.1773  0.0331 -0.1297
  176SAPI   O1319993   1.735   3.137   6.466  0.6434  0.3971 -0.2965
  176SAPI   O1419994   1.813   3.348   6.575  0.5207 -0.7626  0.0795
  176SAPI   O1219995   1.974   3.148   6.576  0.6382  0.3523 -0.0432
  176SAPI   O1119996   1.767   3.161   6.718  0.4371 -0.3669  0.8746
  176SAPI    C119997   1.835   3.209   6.832  0.6052  0.2925  0.2380
  176SAPI    HA19998   1.915   3.283   6.811  0.6955 -0.0251 -0.5940
  176SAPI    HB19999   1.757   3.249   6.900 -0.0464  0.6724 -0.7247
  176SAPI    C220000   1.912   3.092   6.903  0.3086 -0.0576  0.8054
  176SAPI    HS20001   1.979   3.050   6.825 -1.4321 -1.2009 -0.1233
  176SAPI   O2120002   1.812   2.997   6.942  0.0607  0.4872  0.0110
  176SAPI   C2120003   1.868   2.881   6.985 -0.4769 -0.1091 -0.6806
  176SAPI   O2220004   1.982   2.840   6.966  0.1651  0.1511  0.8239
  176SAPI   C2220005   1.754   2.804   7.048  0.1734  0.2706  0.7300
  176SAPI   H2R20006   1.703   2.867   7.125 -1.6550  0.2666 -0.4165
  176SAPI   H2S20007   1.689   2.775   6.963  0.1124 -3.0094  1.7755
  176SAPI    C320008   1.988   3.146   7.029  0.6617  0.2553  0.6990
  176SAPI    HX20009   2.060   3.219   6.986  1.2968 -1.0442 -0.5259
  176SAPI    HY20010   2.051   3.070   7.081 -1.4479 -2.1485 -0.0124
  176SAPI   O3120011   1.894   3.220   7.110  0.1328 -0.3389 -0.3875
  176SAPI   C3120012   1.845   3.174   7.226  0.1931 -0.0235  0.1418
  176SAPI   O3220013   1.876   3.063   7.271  0.2720  0.2574 -0.6581
  176SAPI   C3220014   1.758   3.273   7.305 -0.1725  0.7755 -0.7255
  176SAPI   H2X20015   1.666   3.222   7.340 -0.7649  1.9764 -0.4918
  176SAPI   H2Y20016   1.720   3.346   7.231  0.3951  0.9554 -0.8513
  176SAPI   C2320017   1.799   2.675   7.116  0.8801  0.5047 -0.5540
  176SAPI   H3R20018   1.871   2.614   7.058  0.2767  0.3185 -1.1126
  176SAPI   H3S20019   1.712   2.609   7.131 -1.8861  4.3273  2.0925
  176SAPI   C2420020   1.861   2.704   7.254 -0.1594 -0.9853 -0.0741
  176SAPI   H4R20021   1.780   2.754   7.311  0.7937  0.5177  0.0246
  176SAPI   H4S20022   1.941   2.780   7.248 -1.7554  0.7174 -0.8209
  176SAPI   C2520023   1.905   2.582   7.323 -0.3513 -0.0603 -0.4328
  176SAPI   H5R20024   1.994   2.539   7.275  0.6027  1.6929 -0.3196
  176SAPI   C2620025   1.838   2.524   7.425 -0.4758  0.1900  0.3798
  176SAPI   H6R20026   1.877   2.429   7.465  0.5651  0.4271 -0.0365
  176SAPI   C2720027   1.711   2.572   7.491 -0.3220 -0.1917  0.6332
  176SAPI   H7R20028   1.655   2.480   7.517  0.2856 -0.4977  0.8790
  176SAPI   H7S20029   1.646   2.626   7.419  0.7478 -1.1299 -1.0933
  176SAPI   C2820030   1.730   2.654   7.617 -0.0118 -0.4891  0.8337
  176SAPI   H8R20031   1.706   2.761   7.609 -0.4944 -0.6590 -0.3330
  176SAPI   C2920032   1.760   2.609   7.742 -0.1305 -0.0460  0.5394
  176SAPI   H9R20033   1.775   2.682   7.822  1.5672 -0.8614  1.0086
  176SAPI  C21020034   1.794   2.470   7.773 -0.0110  0.5678 -0.0045
  176SAPI  H10R20035   1.868   2.435   7.698 -1.4179 -1.2260 -0.6507
  176SAPI  H10S20036   1.700   2.414   7.752  1.2762 -0.7117 -2.9424
  176SAPI  C21120037   1.849   2.453   7.913  0.3109 -0.0791 -0.1019
  176SAPI  H11R20038   1.958   2.469   7.910  0.1974  0.7392 -0.0498
  176SAPI  C21220039   1.780   2.433   8.030 -0.5131  0.3282  0.0396
  176SAPI  H12R20040   1.834   2.428   8.126 -1.7820  4.4829  1.1763
  176SAPI  C21320041   1.626   2.428   8.046  0.0234 -0.7102  0.0541
  176SAPI  H13R20042   1.577   2.500   7.977 -1.4413 -0.3799  1.3751
  176SAPI  H13S20043   1.613   2.464   8.150 -1.0555  0.9719 -0.6248
  176SAPI  C21420044   1.563   2.294   8.024 -0.2543 -0.7489 -0.5013
  176SAPI  H14R20045   1.605   2.244   7.936 -1.1168 -2.3588 -0.0436
  176SAPI  C21520046   1.453   2.247   8.088 -0.0670  0.8318  0.5336
  176SAPI  H15R20047   1.412   2.149   8.060  0.4173  0.6666  0.3816
  176SAPI  C21620048   1.369   2.320   8.186  0.1217 -0.1317  0.1745
  176SAPI  H16R20049   1.271   2.339   8.138 -0.1247 -1.3802  0.1463
  176SAPI  H16S20050   1.421   2.412   8.219  1.8571 -1.2512  0.7175
  176SAPI  C21720051   1.336   2.243   8.316 -0.3827  0.2004 -0.0319
  176SAPI  H17R20052   1.328   2.135   8.291  2.9874 -0.3953  1.0230
  176SAPI  H17S20053   1.242   2.281   8.363  0.2175 -0.7618  2.0675
  176SAPI  C21820054   1.456   2.244   8.407  1.3941 -0.3489 -0.3459
  176SAPI  H18R20055   1.546   2.199   8.359  1.3056 -0.6233 -0.2572
  176SAPI  H18S20056   1.441   2.174   8.492  0.3784 -0.6419 -0.7519
  176SAPI  C21920057   1.472   2.389   8.473 -0.7190  0.3917  0.2253
  176SAPI  H19R20058   1.488   2.464   8.393  1.2512 -0.8958 -0.6529
  176SAPI  H19S20059   1.564   2.380   8.535  0.3396  2.2001 -0.9893
  176SAPI  C22020060   1.359   2.440   8.562  0.3298 -0.3489 -0.6082
  176SAPI  H20R20061   1.369   2.550   8.577 -0.6852 -0.1123 -1.5626
  176SAPI  H20S20062   1.347   2.384   8.657  1.4682  3.5758  2.0867
  176SAPI  H20T20063   1.264   2.452   8.505  0.7862  1.2092 -1.1029
  176SAPI   C3320064   1.842   3.342   7.417  0.1432 -0.3384  0.6193
  176SAPI   H3X20065   1.936   3.378   7.372  0.2764 -0.1597  1.0382
  176SAPI   H3Y20066   1.863   3.263   7.493 -3.0143 -1.7612  0.1815
  176SAPI   C3420067   1.765   3.458   7.498 -0.2732  0.3821  0.1436
  176SAPI   H4X20068   1.677   3.412   7.549  0.6705  0.7938  2.2753
  176SAPI   H4Y20069   1.733   3.534   7.423 -0.2538 -0.4837 -0.7478
  176SAPI   C3520070   1.849   3.521   7.604 -0.0469 -0.1491  0.1804
  176SAPI   H5X20071   1.820   3.628   7.618  2.5558  0.9311 -1.9275
  176SAPI   H5Y20072   1.952   3.536   7.565  0.0137 -2.2774 -0.5894
  176SAPI   C3620073   1.865   3.447   7.741  0.0037  0.2547  0.1607
  176SAPI   H6X20074   1.912   3.349   7.716  0.0954 -0.1548  1.8613
  176SAPI   H6Y20075   1.767   3.421   7.786 -0.3557 -0.4680 -0.9923
  176SAPI   C3720076   1.953   3.526   7.835 -0.6231  0.1168  0.2645
  176SAPI   H7X20077   1.900   3.612   7.881  1.2252  1.3707  0.1947
  176SAPI   H7Y20078   2.035   3.569   7.773 -0.1930 -0.6906  0.2601
  176SAPI   C3820079   2.015   3.439   7.946 -0.0567 -0.4602  0.1246
  176SAPI   H8X20080   1.949   3.349   7.948 -1.1383  0.2879 -0.4396
  176SAPI   H8Y20081   1.995   3.482   8.046  2.4048 -3.0211  1.8435
  176SAPI   C3920082   2.152   3.392   7.916 -1.0529  0.0167 -0.2032
  176SAPI   H9X20083   2.221   3.475   7.890  0.5678 -1.2683 -0.2041
  176SAPI   H9Y20084   2.150   3.322   7.830 -0.1793  2.4732 -2.3498
  176SAPI  C31020085   2.218   3.299   8.017  0.3454  0.5028  0.8293
  176SAPI  H10X20086   2.300   3.237   7.973  0.5410  0.5164  1.1725
  176SAPI  H10Y20087   2.145   3.232   8.066  0.0949  0.2258  0.0876
  176SAPI  C31120088   2.293   3.382   8.124 -0.3243 -0.3212  0.1040
  176SAPI  H11X20089   2.224   3.458   8.167  0.1681 -1.0352  2.2573
  176SAPI  H11Y20090   2.371   3.440   8.070 -1.0230 -1.6547 -2.5207
  176SAPI  C31220091   2.349   3.283   8.235  0.2395  0.3134  0.4472
  176SAPI  H12X20092   2.406   3.206   8.179 -0.6976  0.5696 -0.8938
  176SAPI  H12Y20093   2.259   3.242   8.285 -0.0907 -1.1359 -1.2344
  176SAPI  C31320094   2.445   3.346   8.336  0.3197 -0.3587 -0.2202
  176SAPI  H13X20095   2.388   3.419   8.398 -1.0427 -1.0838 -0.5667
  176SAPI  H13Y20096   2.531   3.383   8.277  0.3987 -0.2088 -0.0093
  176SAPI  C31420097   2.491   3.238   8.440  0.0016  0.1536  0.4437
  176SAPI  H14X20098   2.549   3.160   8.386 -2.3111 -2.4297  1.4617
  176SAPI  H14Y20099   2.394   3.194   8.471  0.8038 -1.4702  0.7296
  176SAPI  C31520100   2.565   3.285   8.570  0.7528 -0.6466 -0.3499
  176SAPI  H15X20101   2.498   3.366   8.607 -0.1880 -1.4282 -0.3024
  176SAPI  H15Y20102   2.668   3.322   8.554  0.9399  0.3413  2.6143
  176SAPI  C31620103   2.557   3.174   8.679 -0.0622 -0.1680 -0.1859
  176SAPI  H16X20104   2.627   3.094   8.647 -0.7723 -1.2240  0.8565
  176SAPI  H16Y20105   2.453   3.136   8.673 -0.4501  0.9288 -0.7831
  176SAPI  C31720106   2.596   3.210   8.825 -0.0446  0.5744 -0.2490
  176SAPI  H17X20107   2.702   3.242   8.833 -0.0592  0.7891 -0.8587
  176SAPI  H17Y20108   2.589   3.109   8.870 -0.9795 -0.8906 -3.3810
  176SAPI  C31820109   2.503   3.304   8.897 -0.5808  0.0163  0.7593
  176SAPI  H18X20110   2.509   3.404   8.850 -1.6153 -1.1566 -2.0940
  176SAPI  H18Y20111   2.529   3.295   9.005  1.0281 -1.7030  0.2992
  176SAPI  H18Z20112   2.395   3.277   8.893 -0.5537 -0.0988  0.8008
  177SLPC     N20113   2.041   5.011  10.864 -0.4363 -0.1126 -0.1870
  177SLPC   C1320114   2.014   4.915  10.979 -0.1129  0.2511  0.1573
  177SLPC  H13A20115   1.932   4.848  10.961  2.7719 -3.6510  0.2885
  177SLPC  H13B20116   2.098   4.848  10.994 -1.4324 -1.4197  0.3258
  177SLPC  H13C20117   1.988   4.969  11.069  0.1326  1.0911 -0.2602
  177SLPC   C1420118   2.043   4.946  10.727  0.5033  0.3197  0.0764
  177SLPC  H14A20119   2.042   5.012  10.641  1.3070  0.4421  0.1567
  177SLPC  H14B20120   2.127   4.878  10.727 -0.3329 -0.7583  0.9898
  177SLPC  H14C20121   1.953   4.887  10.721  1.1653 -0.6360 -0.7639
  177SLPC   C1520122   2.172   5.080  10.886 -0.1986 -0.1963 -0.2404
  177SLPC  H15A20123   2.184   5.158  10.813  1.3826  2.0117  2.2243
  177SLPC  H15B20124   2.174   5.120  10.986  3.3056 -1.4605  0.3419
  177SLPC  H15C20125   2.259   5.016  10.879  0.5581  0.7609  0.1940
  177SLPC   C1220126   1.935   5.124  10.863 -0.9057 -0.7430 -0.5500
  177SLPC  H12A20127   1.947   5.188  10.950  0.6436  0.1949 -1.3982
  177SLPC  H12B20128   1.838   5.077  10.868 -1.4581  0.2310 -1.5378
  177SLPC   C1120129   1.928   5.224  10.747 -0.0351 -0.5732 -0.1815
  177SLPC  H11A20130   1.830   5.276  10.753  0.6442  0.7061  0.2873
  177SLPC  H11B20131   1.903   5.180  10.648 -1.8233 -4.2673  1.6970
  177SLPC     P20132   2.040   5.453  10.782  0.2707  0.4031 -0.1167
  177SLPC   O1320133   1.901   5.482  10.827 -0.0078  0.3282  0.5708
  177SLPC   O1420134   2.155   5.484  10.867  0.2466 -0.3189  0.8138
  177SLPC   O1220135   2.044   5.306  10.739  0.2232  0.4623  0.1751
  177SLPC   O1120136   2.056   5.526  10.647 -0.0592  0.2221 -0.1881
  177SLPC    C120137   2.063   5.673  10.631 -0.1906  0.3340 -0.6931
  177SLPC    HA20138   1.977   5.726  10.678 -0.6339  0.5192 -1.6920
  177SLPC    HB20139   2.158   5.709  10.675  0.0389 -0.1005 -0.8309
  177SLPC    C220140   2.080   5.718  10.478 -0.1500 -0.2788  0.0510
  177SLPC    HS20141   2.122   5.819  10.464  2.6767 -1.5135 -1.2635
  177SLPC   O2120142   1.958   5.697  10.409 -0.2916 -0.2124  0.2822
  177SLPC   C2120143   1.919   5.778  10.316 -0.8546 -0.6875 -0.0974
  177SLPC   O2220144   1.983   5.876  10.278  0.4681  0.0139  0.1635
  177SLPC   C2220145   1.784   5.743  10.258  0.1218  0.2652 -0.1976
  177SLPC   H2R20146   1.753   5.669  10.335  0.7973  0.9088  0.7281
  177SLPC   H2S20147   1.711   5.827  10.260  0.4387  0.5390  1.4147
  177SLPC    C320148   2.197   5.631  10.423 -0.2929 -0.0768 -0.4689
  177SLPC    HX20149   2.165   5.527  10.448 -1.4612  0.9169  2.7173
  177SLPC    HY20150   2.293   5.644  10.477 -0.3731  0.2397 -0.4038
  177SLPC   O3120151   2.226   5.671  10.289  0.6678 -0.3666  0.3025
  177SLPC   C3120152   2.191   5.598  10.180  0.4202  0.0091 -0.8317
  177SLPC   O3220153   2.141   5.490  10.184 -0.1525 -0.2189 -0.0774
  177SLPC   C3220154   2.256   5.655  10.059 -1.1364  0.0455 -0.2668
  177SLPC   H2X20155   2.345   5.598  10.025 -1.0942  1.0097 -1.8695
  177SLPC   H2Y20156   2.305   5.751  10.083  0.1181 -0.6097 -0.1329
  177SLPC   C2320157   1.797   5.667  10.122  0.1184 -0.5950  0.0391
  177SLPC   H3R20158   1.721   5.587  10.106  0.6813 -0.9935 -0.6728
  177SLPC   H3S20159   1.898   5.624  10.112  0.7757  0.6749  0.9871
  177SLPC   C2420160   1.779   5.767  10.004  0.0776  0.6744  0.0153
  177SLPC   H4R20161   1.847   5.853  10.025 -0.0229  1.4265 -2.3667
  177SLPC   H4S20162   1.675   5.803  10.017 -1.3585 -3.1399  0.4342
  177SLPC   C2520163   1.792   5.689   9.876  0.7483  0.2746  0.2378
  177SLPC   H5R20164   1.697   5.632   9.867  0.3908  1.0542 -1.0737
  177SLPC   H5S20165   1.885   5.631   9.859  0.6292 -0.2276  1.1995
  177SLPC   C2620166   1.780   5.776   9.747  0.1290 -0.1169  0.0079
  177SLPC   H6R20167   1.870   5.842   9.751  2.4279 -3.0885  2.0590
  177SLPC   H6S20168   1.687   5.836   9.750  0.3579  0.3034 -0.8604
  177SLPC   C2720169   1.795   5.685   9.623  1.0965 -0.8012  0.0727
  177SLPC   H7R20170   1.705   5.620   9.616  2.1199 -2.1982 -0.7554
  177SLPC   H7S20171   1.881   5.617   9.637  1.7049  0.1869  1.2822
  177SLPC   C2820172   1.795   5.759   9.480  0.3439  0.8124  0.2044
  177SLPC   H8R20173   1.893   5.813   9.479 -0.6474  2.7835 -2.2226
  177SLPC   H8S20174   1.721   5.841   9.468 -2.5924 -2.0838 -4.4798
  177SLPC   C2920175   1.776   5.661   9.367  0.5502  1.0242  0.5509
  177SLPC   H9R20176   1.720   5.570   9.393  2.0897 -0.8265 -2.1791
  177SLPC  C21020177   1.806   5.675   9.238 -0.2712  0.6001  0.4272
  177SLPC  H10R20178   1.786   5.592   9.169 -0.2615  0.6400  0.3771
  177SLPC  C21120179   1.872   5.794   9.171 -0.3450  0.3576 -0.0109
  177SLPC  H11R20180   1.908   5.854   9.257  1.0499 -0.2004 -0.1791
  177SLPC  H11S20181   1.960   5.749   9.120  0.1875 -1.4361  2.2866
  177SLPC  C21220182   1.787   5.886   9.089  0.0398  0.6506 -0.1686
  177SLPC  H12R20183   1.688   5.901   9.134 -0.0660 -2.5764  0.8615
  177SLPC  C21320184   1.833   5.944   8.977 -0.1843  0.6940  0.2196
  177SLPC  H13R20185   1.765   6.015   8.928 -1.2388 -0.0784  0.5235
  177SLPC  C21420186   1.965   5.923   8.907  0.6710 -0.3970 -0.6682
  177SLPC  H14R20187   2.039   5.934   8.989 -0.1633  0.3900  0.0006
  177SLPC  H14S20188   1.990   5.983   8.817 -0.6550 -0.9228 -1.4122
  177SLPC  C21520189   2.004   5.782   8.857 -0.7910 -0.2051  0.0294
  177SLPC  H15R20190   1.979   5.704   8.933  3.3529 -0.4985  1.3385
  177SLPC  H15S20191   2.113   5.774   8.842 -0.6577 -3.0858  1.6209
  177SLPC  C21620192   1.947   5.756   8.714 -0.1657 -1.1345 -0.0713
  177SLPC  H16R20193   1.977   5.840   8.647  0.8740 -0.2967  1.3781
  177SLPC  H16S20194   1.837   5.756   8.724 -0.0975  0.9547  1.4946
  177SLPC  C21720195   1.982   5.623   8.648 -0.3254  0.3106 -0.2360
  177SLPC  H17R20196   1.924   5.540   8.693 -0.7885 -0.9557 -2.9450
  177SLPC  H17S20197   2.089   5.602   8.668 -0.0409  0.4142 -1.5285
  177SLPC  C21820198   1.949   5.627   8.497  0.2231 -0.0723 -0.3540
  177SLPC  H18R20199   1.968   5.527   8.454 -0.4380 -0.9442  1.3023
  177SLPC  H18S20200   2.006   5.708   8.446 -0.6715 -0.5828 -2.2452
  177SLPC  H18T20201   1.845   5.664   8.485  0.4588  0.8724  0.3845
  177SLPC   C3320202   2.164   5.665   9.933 -0.8926 -0.2766 -0.5126
  177SLPC   H3X20203   2.099   5.754   9.941  1.2060  1.2191  1.1882
  177SLPC   H3Y20204   2.102   5.574   9.946  2.2276 -2.4480  0.2619
  177SLPC   C3420205   2.248   5.671   9.809 -0.1811  1.0323  0.8691
  177SLPC   H4X20206   2.331   5.597   9.806  0.8412  2.1558 -1.8993
  177SLPC   H4Y20207   2.310   5.763   9.796 -1.5015  2.0769  1.6794
  177SLPC   C3520208   2.168   5.642   9.684  0.4484  0.3628 -0.0454
  177SLPC   H5X20209   2.088   5.719   9.685 -1.3975 -1.4739 -0.9733
  177SLPC   H5Y20210   2.121   5.542   9.686  0.2417  0.4535 -0.3488
  177SLPC   C3620211   2.254   5.647   9.555  0.1320 -0.2379  0.3729
  177SLPC   H6X20212   2.318   5.556   9.547  1.0259  0.5649 -3.3341
  177SLPC   H6Y20213   2.322   5.734   9.560  0.8761 -0.8184  0.5792
  177SLPC   C3720214   2.168   5.652   9.431  0.4082  0.1009  0.6811
  177SLPC   H7X20215   2.093   5.734   9.444  0.0730  0.0178 -0.6108
  177SLPC   H7Y20216   2.113   5.557   9.416  0.4391  0.1819  0.0045
  177SLPC   C3820217   2.245   5.678   9.302 -0.2583 -0.5483  0.0331
  177SLPC   H8X20218   2.324   5.756   9.314 -0.5295  0.4871 -3.6432
  177SLPC   H8Y20219   2.179   5.717   9.222 -0.6490 -3.9588 -1.4673
  177SLPC   C3920220   2.314   5.559   9.238 -0.8438  0.4175 -0.4176
  177SLPC   H9X20221   2.237   5.493   9.194 -0.2352 -1.3518  1.0606
  177SLPC   H9Y20222   2.370   5.500   9.313  0.4437 -0.5708 -2.0968
  177SLPC  C31020223   2.408   5.607   9.128 -0.0902  0.3467  0.7993
  177SLPC  H10X20224   2.473   5.520   9.107 -0.9341 -0.0593 -0.2206
  177SLPC  H10Y20225   2.487   5.677   9.164 -0.6107  1.9531 -0.9931
  177SLPC  C31120226   2.343   5.659   9.001 -0.0969  0.4610 -0.3900
  177SLPC  H11X20227   2.288   5.754   9.022  0.7379  0.3458  2.8091
  177SLPC  H11Y20228   2.267   5.586   8.966  0.3498 -0.4673  0.5242
  177SLPC  C31220229   2.435   5.683   8.884 -0.2236  0.7123  0.1056
  177SLPC  H12X20230   2.513   5.604   8.891 -1.0202 -0.1340 -0.4179
  177SLPC  H12Y20231   2.487   5.781   8.887  1.1911  0.0002 -0.1825
  177SLPC  C31320232   2.367   5.670   8.751  0.1869 -0.4757 -0.2070
  177SLPC  H13X20233   2.307   5.763   8.750  1.0319  0.2220  2.8702
  177SLPC  H13Y20234   2.300   5.582   8.748  0.0108 -0.5650  2.8828
  177SLPC  C31420235   2.468   5.662   8.640 -0.0176  0.2106 -0.2889
  177SLPC  H14X20236   2.521   5.564   8.650 -0.1007  0.1413 -0.5260
  177SLPC  H14Y20237   2.555   5.732   8.649  0.2339 -0.0803 -0.4182
  177SLPC  C31520238   2.399   5.672   8.506 -0.1109  0.2679 -0.2126
  177SLPC  H15X20239   2.414   5.774   8.465  1.0023 -0.6463 -2.2010
  177SLPC  H15Y20240   2.293   5.655   8.537  0.2429 -1.0069  0.4036
  177SLPC  C31620241   2.454   5.568   8.408  0.2294 -0.4532  0.0465
  177SLPC  H16X20242   2.412   5.570   8.305 -1.7438 -0.4026  0.7995
  177SLPC  H16Y20243   2.427   5.467   8.443 -2.2761  0.0560 -0.2434
  177SLPC  C31720244   2.611   5.565   8.385  0.1590  0.3379 -0.2125
  177SLPC  H17X20245   2.661   5.546   8.482  0.9221 -2.0997 -1.0085
  177SLPC  H17Y20246   2.650   5.659   8.339  1.6062 -1.0421 -1.9666
  177SLPC  C31820247   2.661   5.449   8.297  1.0050  0.1709  0.3697
  177SLPC  H18X20248   2.772   5.453   8.291  1.0421  0.5125  1.1088
  177SLPC  H18Y20249   2.617   5.451   8.196  0.5302 -5.1764  0.1733
  177SLPC  H18Z20250   2.619   5.355   8.340 -0.3689  1.2005  1.3856
  178SLPC     N20251   3.405   1.749  11.186 -0.7616  0.5374  0.7112
  178SLPC   C1320252   3.468   1.654  11.292  0.5975 -0.1054  0.0755
  178SLPC  H13A20253   3.567   1.623  11.261  0.5718  0.1401 -0.2599
  178SLPC  H13B20254   3.472   1.707  11.386 -1.3757 -0.1941  0.2473
  178SLPC  H13C20255   3.407   1.567  11.309 -1.3523  0.5775 -2.8643
  178SLPC   C1420256   3.484   1.887  11.190  0.1192  0.0378 -0.5742
  178SLPC  H14A20257   3.588   1.861  11.190 -0.1737 -1.3570  1.5831
  178SLPC  H14B20258   3.456   1.941  11.101 -0.3136  1.8103  0.5807
  178SLPC  H14C20259   3.450   1.934  11.281  1.1903 -2.0956  1.0055
  178SLPC   C1520260   3.267   1.783  11.231  0.3977 -0.4031 -0.0193
  178SLPC  H15A20261   3.217   1.697  11.273 -0.1708 -0.4548 -0.7875
  178SLPC  H15B20262   3.261   1.858  11.308  0.4329  1.4373 -1.7420
  178SLPC  H15C20263   3.215   1.829  11.149  0.2767 -1.3479 -0.4877
  178SLPC   C1220264   3.414   1.697  11.046 -0.3576  1.0291  0.3683
  178SLPC  H12A20265   3.368   1.599  11.044  0.6658  0.5430  0.5088
  178SLPC  H12B20266   3.518   1.678  11.024 -0.8467 -0.4821 -0.9001
  178SLPC   C1120267   3.358   1.791  10.932 -0.3371 -0.4436 -0.0570
  178SLPC  H11A20268   3.388   1.748  10.834 -1.0856 -3.7096  1.0370
  178SLPC  H11B20269   3.423   1.881  10.936  0.9561 -1.3912  1.7728
  178SLPC     P20270   3.135   1.689  10.893 -0.3816  0.2210  0.1277
  178SLPC   O1320271   3.159   1.585  10.993  0.3429  1.0765 -0.0142
  178SLPC   O1420272   2.998   1.729  10.871  0.4959  0.1846  0.3363
  178SLPC   O1220273   3.213   1.824  10.929 -0.3950  0.7711  0.0077
  178SLPC   O1120274   3.198   1.636  10.753 -0.4709 -0.1714 -0.9012
  178SLPC    C120275   3.194   1.491  10.727 -0.4719 -1.0007 -0.8374
  178SLPC    HA20276   3.284   1.441  10.768  1.1661  2.6527  0.4748
  178SLPC    HB20277   3.111   1.442  10.782 -0.1508 -0.2378  0.3512
  178SLPC    C220278   3.173   1.467  10.576 -0.0764  0.3998  0.4308
  178SLPC    HS20279   3.270   1.494  10.529  0.7536  0.2632  2.0116
  178SLPC   O2120280   3.052   1.545  10.539 -0.2289 -0.3925  0.7523
  178SLPC   C2120281   3.072   1.637  10.449  0.0109  0.3984 -0.4165
  178SLPC   O2220282   3.178   1.659  10.394 -0.3443 -0.5027  0.0357
  178SLPC   C2220283   2.952   1.732  10.443  1.1782 -0.3848 -0.6902
  178SLPC   H2R20284   2.873   1.683  10.503  0.9715 -0.6511 -1.1739
  178SLPC   H2S20285   2.975   1.831  10.488  2.1317 -0.2984 -1.3148
  178SLPC    C320286   3.153   1.307  10.549 -0.2493 -0.5131 -0.8573
  178SLPC    HX20287   3.060   1.277  10.603  0.4361 -0.5530  0.3363
  178SLPC    HY20288   3.240   1.253  10.593 -0.7281  0.7825  1.8697
  178SLPC   O3120289   3.136   1.285  10.412  0.0416 -0.5397  0.4050
  178SLPC   C3120290   3.021   1.302  10.359 -0.1216 -0.0052  0.3668
  178SLPC   O3220291   2.920   1.331  10.419  0.2851 -0.2517  0.1884
  178SLPC   C3220292   3.024   1.246  10.213 -0.7712  0.7674 -0.3293
  178SLPC   H2X20293   3.099   1.307  10.158 -0.2879 -0.1619 -0.7295
  178SLPC   H2Y20294   2.924   1.257  10.166 -0.6995 -0.6324 -0.8605
  178SLPC   C2320295   2.901   1.750  10.297  0.6786 -0.4802 -0.4261
  178SLPC   H3R20296   2.793   1.775  10.298  0.7057  0.1555  3.6122
  178SLPC   H3S20297   2.907   1.647  10.255 -0.9163 -0.7966  0.0232
  178SLPC   C2420298   2.979   1.852  10.221 -0.4245 -0.6856 -0.1622
  178SLPC   H4R20299   2.954   1.851  10.113 -1.1237  1.1803 -0.0745
  178SLPC   H4S20300   3.087   1.835  10.239  0.6119  1.1230 -3.6438
  178SLPC   C2520301   2.938   1.997  10.265 -0.1990  0.2896 -0.1948
  178SLPC   H5R20302   2.963   2.022  10.370  1.1177  3.1164 -1.0789
  178SLPC   H5S20303   2.827   1.999  10.256 -0.2024  2.8107 -0.4082
  178SLPC   C2620304   3.002   2.106  10.172  0.6262  1.2093 -0.0312
  178SLPC   H6R20305   3.110   2.118  10.191  0.7776 -2.1166  1.9152
  178SLPC   H6S20306   2.946   2.198  10.199 -0.8354  0.1424  0.7053
  178SLPC   C2720307   2.977   2.071  10.026  1.0683  0.2439 -1.0248
  178SLPC   H7R20308   2.868   2.051  10.023  0.5815  2.6328 -1.1512
  178SLPC   H7S20309   3.040   1.984   9.999  0.5185 -0.4784 -0.0591
  178SLPC   C2820310   3.012   2.195   9.936 -0.0533  0.3447 -0.0490
  178SLPC   H8R20311   3.118   2.193   9.903  0.4496 -0.4861  1.5085
  178SLPC   H8S20312   3.002   2.271  10.016 -3.1081 -1.5289  1.5280
  178SLPC   C2920313   2.923   2.225   9.824 -0.1717 -0.7064 -0.8930
  178SLPC   H9R20314   2.848   2.148   9.798 -2.2989  0.9043  0.1801
  178SLPC  C21020315   2.914   2.347   9.767  1.0222  0.3785 -0.3124
  178SLPC  H10R20316   2.862   2.358   9.671  0.6777  4.5137  0.1387
  178SLPC  C21120317   2.991   2.476   9.793 -0.0386 -0.2841  0.7339
  178SLPC  H11R20318   3.063   2.460   9.876  0.0883 -2.5344  0.2632
  178SLPC  H11S20319   2.925   2.558   9.828 -1.9076  0.5946 -4.0572
  178SLPC  C21220320   3.068   2.525   9.672 -0.9965 -0.0082  0.8422
  178SLPC  H12R20321   3.174   2.497   9.664 -0.4028  2.4948 -1.7293
  178SLPC  C21320322   3.015   2.593   9.567  0.1878  0.3477  0.7524
  178SLPC  H13R20323   3.085   2.629   9.491  0.0520  0.0022  0.4565
  178SLPC  C21420324   2.874   2.623   9.551 -0.1202 -0.5243  0.4673
  178SLPC  H14R20325   2.822   2.657   9.644 -0.3216 -2.4778  1.1130
  178SLPC  H14S20326   2.808   2.536   9.531 -5.4967  2.4679  3.0927
  178SLPC  C21520327   2.849   2.730   9.441 -0.4936 -0.0129  0.7296
  178SLPC  H15R20328   2.897   2.688   9.350 -1.0691 -0.5918  0.6852
  178SLPC  H15S20329   2.906   2.822   9.468  1.8741 -1.4169  0.7272
  178SLPC  C21620330   2.703   2.763   9.419 -0.2706  0.1114  0.6558
  178SLPC  H16R20331   2.661   2.810   9.511  0.8032  1.2425  0.5996
  178SLPC  H16S20332   2.650   2.668   9.398 -0.7994  0.3018  1.0816
  178SLPC  C21720333   2.694   2.853   9.299 -0.6617 -0.3940  0.4399
  178SLPC  H17R20334   2.733   2.794   9.213  0.8872  0.6284  0.4055
  178SLPC  H17S20335   2.762   2.940   9.314 -0.1385 -0.8933  1.0413
  178SLPC  C21820336   2.553   2.916   9.285  0.6520  0.3627  0.0515
  178SLPC  H18R20337   2.523   2.975   9.374 -0.2174  0.3147 -0.1960
  178SLPC  H18S20338   2.492   2.823   9.279  0.3555  0.6218 -1.2947
  178SLPC  H18T20339   2.546   2.976   9.192 -1.9434 -1.8487 -1.3249
  178SLPC   C3320340   3.071   1.103  10.213  0.2552 -0.2652 -0.3612
  178SLPC   H3X20341   3.006   1.052  10.288 -0.8478 -1.9988 -2.4078
  178SLPC   H3Y20342   3.177   1.100  10.245  0.0635 -0.1678  0.3023
  178SLPC   C3420343   3.044   1.023  10.088  0.2611  0.9720  0.0146
  178SLPC   H4X20344   3.112   1.047  10.003  0.6592  1.3235  0.4283
  178SLPC   H4Y20345   2.941   1.059  10.067 -1.1981 -2.6526  0.2003
  178SLPC   C3520346   3.041   0.873  10.114  0.5460 -0.2120 -0.0975
  178SLPC   H5X20347   2.977   0.852  10.202  0.4591  4.4533  1.2320
  178SLPC   H5Y20348   3.142   0.833  10.136 -0.1756 -1.1327  1.6458
  178SLPC   C3620349   2.973   0.803   9.994  0.3867  0.4348 -0.5372
  178SLPC   H6X20350   2.872   0.850   9.991 -1.7684 -3.2974  3.2246
  178SLPC   H6Y20351   2.951   0.699  10.026  1.2131  0.6025  0.6554
  178SLPC   C3720352   3.037   0.818   9.853 -0.3811 -0.3295 -0.1912
  178SLPC   H7X20353   3.118   0.742   9.845 -0.3742 -0.2002 -1.6109
  178SLPC   H7Y20354   3.086   0.917   9.841 -0.7487 -0.3060 -1.6327
  178SLPC   C3820355   2.933   0.796   9.746  0.1537  0.7473 -0.4700
  178SLPC   H8X20356   2.837   0.848   9.769  0.6559  1.6015 -0.2727
  178SLPC   H8Y20357   2.890   0.694   9.756 -1.5052  1.3861 -0.6147
  178SLPC   C3920358   2.976   0.829   9.607  0.6256  0.0670  1.0647
  178SLPC   H9X20359   3.079   0.796   9.580  1.0277  2.0102  0.0408
  178SLPC   H9Y20360   2.975   0.940   9.602 -1.5998  0.0304 -1.1514
  178SLPC  C31020361   2.889   0.763   9.495  0.2503 -0.5167  0.1819
  178SLPC  H10X20362   2.779   0.772   9.505  0.3104  0.1186  0.3245
  178SLPC  H10Y20363   2.918   0.656   9.500  1.4582 -0.1520  2.1893
  178SLPC  C31120364   2.926   0.823   9.357 -0.1859  0.0046  0.7673
  178SLPC  H11X20365   3.028   0.787   9.331  0.5871  0.0403  3.3933
  178SLPC  H11Y20366   2.931   0.934   9.361  2.5116 -0.0449  0.8043
  178SLPC  C31220367   2.831   0.790   9.240 -0.0448  0.0172  0.0674
  178SLPC  H12X20368   2.725   0.780   9.272 -0.1387  0.0147 -0.2387
  178SLPC  H12Y20369   2.852   0.687   9.203  1.0837 -0.5213  2.0309
  178SLPC  C31320370   2.828   0.888   9.119 -0.0455  0.0091  0.2363
  178SLPC  H13X20371   2.832   0.996   9.143  0.3668  0.2416 -0.8325
  178SLPC  H13Y20372   2.733   0.872   9.064  0.5973  2.0127 -1.5879
  178SLPC  C31420373   2.949   0.856   9.035 -0.1822  0.4584  0.6335
  178SLPC  H14X20374   2.940   0.747   9.015  0.8633  0.6447 -1.0706
  178SLPC  H14Y20375   3.048   0.882   9.077  0.6264  0.5709 -1.2671
  178SLPC  C31520376   2.929   0.934   8.902  0.9754  0.1479 -0.7383
  178SLPC  H15X20377   2.841   0.894   8.847  1.2263 -0.2834 -0.8325
  178SLPC  H15Y20378   2.912   1.040   8.931  1.9455  0.4842 -1.3421
  178SLPC  C31620379   3.058   0.941   8.815  0.0588 -0.0932  0.2793
  178SLPC  H16X20380   3.140   0.981   8.877 -0.3254 -2.2763  2.3488
  178SLPC  H16Y20381   3.026   1.014   8.737 -1.0574 -1.3964 -0.5418
  178SLPC  C31720382   3.102   0.809   8.744 -0.3845 -0.2080 -0.4723
  178SLPC  H17X20383   3.023   0.771   8.677 -0.8639 -0.1699  0.0620
  178SLPC  H17Y20384   3.108   0.732   8.824  1.4781 -1.1353 -1.4395
  178SLPC  C31820385   3.241   0.818   8.668  0.1020 -0.3933  0.3314
  178SLPC  H18X20386   3.224   0.879   8.576  0.8679  0.1325  0.5286
  178SLPC  H18Y20387   3.277   0.714   8.650 -0.0540 -1.0129  3.2010
  178SLPC  H18Z20388   3.307   0.873   8.739  0.7123 -0.4284 -0.1958
  179SLPC     N20389   6.580   5.363  10.521  0.6121 -0.4751 -0.5276
  179SLPC   C1320390   6.556   5.437  10.651 -0.0748 -0.5854  0.3675
  179SLPC  H13A20391   6.642   5.469  10.709 -0.4414 -1.5315  1.4785
  179SLPC  H13B20392   6.489   5.522  10.643 -0.3779 -0.9410 -1.2490
  179SLPC  H13C20393   6.512   5.367  10.721 -2.3458  1.7621  1.4422
  179SLPC   C1420394   6.457   5.277  10.505 -0.2203  0.1833 -0.5049
  179SLPC  H14A20395   6.448   5.217  10.594 -1.3865  0.0628 -0.6895
  179SLPC  H14B20396   6.364   5.327  10.484  0.4968  2.4497  1.3240
  179SLPC  H14C20397   6.477   5.202  10.430 -0.4025  0.5839 -0.9578
  179SLPC   C1520398   6.696   5.277  10.527  0.2021  0.2191  0.0099
  179SLPC  H15A20399   6.707   5.238  10.427  0.4629  1.2902 -0.3926
  179SLPC  H15B20400   6.786   5.335  10.545 -0.4047  0.8210  1.2497
  179SLPC  H15C20401   6.678   5.196  10.596  0.0412  0.5017  0.3068
  179SLPC   C1220402   6.605   5.466  10.409  0.3817 -0.3395  0.8006
  179SLPC  H12A20403   6.629   5.410  10.320 -0.5675  1.3793 -0.5824
  179SLPC  H12B20404   6.693   5.519  10.445  2.5235 -2.9366 -0.2354
  179SLPC   C1120405   6.494   5.560  10.386 -0.2597  0.1559  0.5278
  179SLPC  H11A20406   6.399   5.505  10.371  0.9559 -2.5861  2.0330
  179SLPC  H11B20407   6.514   5.606  10.287  1.6402  0.1538  0.8738
  179SLPC     P20408   6.538   5.804  10.487  0.2399 -0.1397 -0.1693
  179SLPC   O1320409   6.507   5.874  10.615 -0.2191 -0.5832 -0.0148
  179SLPC   O1420410   6.676   5.805  10.428  0.4405  0.2308  0.0206
  179SLPC   O1220411   6.485   5.656  10.490 -0.7727 -0.4455 -0.1598
  179SLPC   O1120412   6.436   5.866  10.382  0.0490 -0.4857 -0.3050
  179SLPC    C120413   6.294   5.849  10.378 -0.7936 -0.0580 -0.2736
  179SLPC    HA20414   6.265   5.772  10.452 -2.0157  0.0002 -0.6732
  179SLPC    HB20415   6.245   5.941  10.415 -1.9916 -0.2120 -1.4033
  179SLPC    C220416   6.231   5.807  10.247  0.7706 -0.2626 -0.1725
  179SLPC    HS20417   6.264   5.702  10.230  3.5260  0.5777 -0.4826
  179SLPC   O2120418   6.267   5.910  10.152  0.3818  0.0278  0.1030
  179SLPC   C2120419   6.264   5.859  10.027  0.1384  0.5139  0.0569
  179SLPC   O2220420   6.231   5.746   9.995 -0.5041  0.1746 -0.7551
  179SLPC   C2220421   6.302   5.970   9.927  0.5526  0.5212 -0.1512
  179SLPC   H2R20422   6.226   6.050   9.917 -1.1819 -1.3743 -3.8411
  179SLPC   H2S20423   6.403   6.000   9.965  0.3702  0.5928  0.2775
  179SLPC    C320424   6.072   5.813  10.267  0.1916 -0.3442  0.1833
  179SLPC    HX20425   6.043   5.916  10.296 -0.6885 -0.8640  1.1926
  179SLPC    HY20426   6.066   5.755  10.361 -1.9504 -1.4826 -0.6097
  179SLPC   O3120427   5.994   5.752  10.160 -0.0630  0.0800 -0.2554
  179SLPC   C3120428   6.010   5.624  10.157 -0.1558 -0.2683 -0.3072
  179SLPC   O3220429   6.056   5.550  10.245 -0.4134  0.1757  0.2068
  179SLPC   C3220430   5.978   5.565  10.017 -0.1721 -0.1870  0.4880
  179SLPC   H2X20431   5.916   5.474  10.032 -1.0807  0.3264 -0.0998
  179SLPC   H2Y20432   6.078   5.547   9.974  0.1893  2.5661 -0.0482
  179SLPC   C2320433   6.308   5.902   9.786  0.0782 -0.9110  0.0601
  179SLPC   H3R20434   6.253   5.808   9.765  2.9817 -2.2963 -2.0435
  179SLPC   H3S20435   6.411   5.875   9.756 -1.0411 -1.5143 -3.7150
  179SLPC   C2420436   6.266   6.010   9.680  0.3810 -0.2626  0.0628
  179SLPC   H4R20437   6.317   6.108   9.691 -1.4304  0.6883  0.3682
  179SLPC   H4S20438   6.157   6.032   9.687  0.2372 -0.2238 -1.8099
  179SLPC   C2520439   6.283   5.947   9.534 -0.0417 -0.7381 -0.3712
  179SLPC   H5R20440   6.240   5.845   9.523  0.1775 -0.5745 -3.8949
  179SLPC   H5S20441   6.388   5.930   9.503 -0.1813  0.5951 -1.6790
  179SLPC   C2620442   6.221   6.041   9.428 -0.4544  0.3616 -0.3435
  179SLPC   H6R20443   6.284   6.131   9.414  1.6423 -1.1039 -0.7613
  179SLPC   H6S20444   6.123   6.061   9.475 -0.9832 -1.0764 -0.7701
  179SLPC   C2720445   6.201   5.967   9.297 -0.4340  0.5036  0.4327
  179SLPC   H7R20446   6.143   5.877   9.326  1.1039 -0.6726 -0.0102
  179SLPC   H7S20447   6.294   5.936   9.245 -2.9566 -0.5451 -4.0019
  179SLPC   C2820448   6.124   6.055   9.196  0.0956 -0.5836  0.7921
  179SLPC   H8R20449   6.186   6.136   9.152 -0.2555 -1.0703 -0.6644
  179SLPC   H8S20450   6.035   6.109   9.235  0.0029 -1.1466  1.3696
  179SLPC   C2920451   6.077   5.962   9.085 -0.2048  0.4997 -0.1164
  179SLPC   H9R20452   5.977   5.922   9.109 -0.2167  1.5323  1.6926
  179SLPC  C21020453   6.150   5.930   8.978  0.4329  0.4329  0.6207
  179SLPC  H10R20454   6.095   5.862   8.910  0.7433 -1.3224  2.0301
  179SLPC  C21120455   6.286   5.973   8.932 -0.5175  0.2725 -0.8458
  179SLPC  H11R20456   6.314   6.074   8.971  0.7385  0.0609 -1.1851
  179SLPC  H11S20457   6.266   5.999   8.826  1.2652  0.9234 -1.0557
  179SLPC  C21220458   6.391   5.866   8.948  0.0008 -0.6591 -0.3083
  179SLPC  H12R20459   6.416   5.825   9.047 -0.1768 -0.1479 -0.0424
  179SLPC  C21320460   6.452   5.804   8.844  0.6432 -0.1505  0.3535
  179SLPC  H13R20461   6.536   5.734   8.862  0.2616 -0.2071  2.1146
  179SLPC  C21420462   6.430   5.826   8.695 -0.3594  0.3970  0.3947
  179SLPC  H14R20463   6.507   5.890   8.647 -1.7877  1.9803  0.1504
  179SLPC  H14S20464   6.336   5.875   8.662 -1.3137 -1.0017  0.9303
  179SLPC  C21520465   6.409   5.688   8.632 -0.2277 -0.1596  0.1230
  179SLPC  H15R20466   6.376   5.706   8.527 -3.7471 -1.6558  0.7970
  179SLPC  H15S20467   6.324   5.634   8.679  0.7055 -2.0856 -0.3021
  179SLPC  C21620468   6.533   5.604   8.627 -0.0584 -0.6660 -0.0494
  179SLPC  H16R20469   6.571   5.571   8.725 -0.6682  0.2837  0.5239
  179SLPC  H16S20470   6.622   5.658   8.587  0.6878 -0.8120  1.3456
  179SLPC  C21720471   6.510   5.487   8.530 -0.3967  0.2328 -0.5817
  179SLPC  H17R20472   6.423   5.442   8.582 -1.0440  1.1484 -0.8522
  179SLPC  H17S20473   6.605   5.430   8.542 -1.3299 -1.0921  0.8956
  179SLPC  C21820474   6.486   5.507   8.386 -0.3173 -0.4679 -0.2961
  179SLPC  H18R20475   6.573   5.563   8.346 -0.8817  0.5189 -0.1787
  179SLPC  H18S20476   6.395   5.569   8.370 -1.2598 -1.2518  1.7807
  179SLPC  H18T20477   6.476   5.413   8.328  0.1831 -0.8273  0.1844
  179SLPC   C3320478   5.904   5.660   9.918 -0.1279 -0.7128  0.1126
  179SLPC   H3X20479   5.975   5.740   9.889 -0.8723  0.7191  1.9936
  179SLPC   H3Y20480   5.818   5.709   9.969 -0.3996 -0.8507 -0.2096
  179SLPC   C3420481   5.850   5.588   9.792 -0.0513  0.1273  0.3269
  179SLPC   H4X20482   5.780   5.650   9.731 -1.9915 -0.4177  1.9010
  179SLPC   H4Y20483   5.799   5.494   9.823 -0.1806 -0.1622 -0.6997
  179SLPC   C3520484   5.955   5.544   9.689 -0.7431  0.2045  0.6825
  179SLPC   H5X20485   5.996   5.447   9.725  2.0345  1.4778  1.1631
  179SLPC   H5Y20486   6.040   5.616   9.684  1.4690 -1.9915  3.3598
  179SLPC   C3620487   5.902   5.507   9.548 -0.2638  0.1143 -0.0968
  179SLPC   H6X20488   5.865   5.602   9.505 -1.5731 -1.0723 -1.7318
  179SLPC   H6Y20489   5.805   5.455   9.565  0.1360 -0.5207  0.3048
  179SLPC   C3720490   6.005   5.432   9.460  0.6001 -0.0735 -0.2346
  179SLPC   H7X20491   6.001   5.323   9.483  0.3988  0.3526  1.9448
  179SLPC   H7Y20492   6.102   5.478   9.486 -0.1322  2.3201 -1.4583
  179SLPC   C3820493   5.992   5.437   9.305 -0.1459  0.2085  0.5799
  179SLPC   H8X20494   5.885   5.459   9.284 -0.4262 -2.2007 -0.8429
  179SLPC   H8Y20495   6.018   5.349   9.244  1.1114  1.7151 -1.1648
  179SLPC   C3920496   6.075   5.543   9.229  0.3997 -1.3138  0.1706
  179SLPC   H9X20497   6.181   5.509   9.225  0.5886 -0.8438  0.9322
  179SLPC   H9Y20498   6.076   5.638   9.286 -1.2068 -0.0281 -1.8221
  179SLPC  C31020499   6.017   5.574   9.089  0.6632  0.1280  0.2752
  179SLPC  H10X20500   6.057   5.673   9.059  2.1438 -0.3374  0.6357
  179SLPC  H10Y20501   5.908   5.588   9.069  1.2322 -0.4987 -4.0698
  179SLPC  C31120502   6.083   5.491   8.974  0.0491 -0.1089 -0.5884
  179SLPC  H11X20503   6.040   5.390   8.991 -0.9844  0.4329  0.1623
  179SLPC  H11Y20504   6.192   5.482   8.991 -0.0175 -0.7538 -0.5002
  179SLPC  C31220505   6.049   5.539   8.836 -0.5223 -0.1522  0.5444
  179SLPC  H12X20506   6.111   5.625   8.805 -0.6134 -1.0611 -2.4067
  179SLPC  H12Y20507   5.947   5.575   8.812 -0.7490 -2.0523 -1.6794
  179SLPC  C31320508   6.067   5.430   8.733 -0.2305  0.1523 -0.1451
  179SLPC  H13X20509   5.998   5.343   8.744 -0.8613  0.6351 -0.1723
  179SLPC  H13Y20510   6.171   5.394   8.728 -0.2347  0.1043  0.1187
  179SLPC  C31420511   6.034   5.488   8.596  0.6714  0.3169  0.4035
  179SLPC  H14X20512   6.119   5.529   8.537  0.0100  0.3099 -0.5734
  179SLPC  H14Y20513   5.961   5.571   8.599  1.0197  0.6028  1.1172
  179SLPC  C31520514   5.960   5.383   8.504  1.1600  0.2009  0.6998
  179SLPC  H15X20515   5.875   5.327   8.549  0.7961 -0.1182 -0.3512
  179SLPC  H15Y20516   6.042   5.310   8.486  0.0223 -0.9269 -0.1988
  179SLPC  C31620517   5.924   5.450   8.377 -0.0546 -0.0045  0.8013
  179SLPC  H16X20518   6.011   5.509   8.340 -0.8996  0.7450 -0.0352
  179SLPC  H16Y20519   5.851   5.532   8.392  1.2359  1.3213  0.1036
  179SLPC  C31720520   5.872   5.350   8.275 -0.0244 -0.0028  0.5025
  179SLPC  H17X20521   5.792   5.287   8.319 -2.5095  0.3827 -3.1082
  179SLPC  H17Y20522   5.959   5.284   8.253  0.5581  0.7232  0.5843
  179SLPC  C31820523   5.810   5.401   8.144 -0.2407  0.6952 -0.0331
  179SLPC  H18X20524   5.896   5.416   8.075 -0.4429  0.9333 -0.2314
  179SLPC  H18Y20525   5.764   5.502   8.149  0.8446  1.2341 -0.5741
  179SLPC  H18Z20526   5.752   5.319   8.095  0.8423  0.0925 -0.3452
  180SLPC     N20527   0.257   2.895  11.144 -0.2410  0.8977  0.6299
  180SLPC   C1320528   0.158   2.802  11.214  0.3314 -0.3667 -0.3743
  180SLPC  H13A20529   0.149   2.703  11.172 -0.4496 -0.7117  0.5659
  180SLPC  H13B20530   0.187   2.788  11.317 -0.3312  1.6453  0.1185
  180SLPC  H13C20531   0.059   2.844  11.214 -0.0397 -1.2249  0.0174
  180SLPC   C1420532   0.394   2.832  11.150 -0.4148  0.6693 -0.4227
  180SLPC  H14A20533   0.415   2.799  11.251  2.5631 -0.6794 -1.3514
  180SLPC  H14B20534   0.399   2.744  11.087  0.0984 -0.4305  1.0758
  180SLPC  H14C20535   0.466   2.903  11.112 -1.2052  0.4706 -2.4282
  180SLPC   C1520536   0.260   3.024  11.221  0.4475 -0.7202  0.6043
  180SLPC  H15A20537   0.157   3.050  11.239  0.0534 -0.8218 -1.3014
  180SLPC  H15B20538   0.287   3.013  11.325 -2.0401  2.0301  1.7166
  180SLPC  H15C20539   0.312   3.108  11.178 -2.7819  0.0083 -2.3580
  180SLPC   C1220540   0.211   2.914  11.000  0.4531  0.0233 -0.1561
  180SLPC  H12A20541   0.103   2.905  10.993  0.5465 -1.6556  0.0487
  180SLPC  H12B20542   0.244   2.824  10.949 -0.7962  0.5569 -2.0237
  180SLPC   C1120543   0.271   3.040  10.935  0.3021 -0.5886  0.1012
  180SLPC  H11A20544   0.255   3.130  10.998  0.3106  0.0718 -0.8119
  180SLPC  H11B20545   0.226   3.058  10.835 -0.2980 -0.3267  0.4167
  180SLPC     P20546   0.486   2.949  10.825  0.1035 -0.2241  0.0034
  180SLPC   O1320547   0.605   3.023  10.771 -0.1271 -0.0132 -0.4669
  180SLPC   O1420548   0.530   2.816  10.877  0.4260 -0.5333  0.3599
  180SLPC   O1220549   0.417   3.035  10.932 -0.0773  0.5831  0.2321
  180SLPC   O1120550   0.375   2.934  10.717 -0.5296 -0.2488 -0.1079
  180SLPC    C120551   0.390   2.858  10.595  0.6693 -0.8305  1.3009
  180SLPC    HA20552   0.491   2.879  10.552  0.8774 -0.1720  2.0982
  180SLPC    HB20553   0.402   2.748  10.608  1.0100 -0.8026  1.2518
  180SLPC    C220554   0.258   2.880  10.512  0.0310 -0.6419  0.6389
  180SLPC    HS20555   0.254   2.826  10.415  0.8817 -0.0244  0.2397
  180SLPC   O2120556   0.246   3.024  10.493 -0.3500  0.2650  0.2404
  180SLPC   C2120557   0.307   3.069  10.382 -0.4377 -0.5285 -0.1763
  180SLPC   O2220558   0.351   2.993  10.294 -0.2904 -0.2561 -0.2829
  180SLPC   C2220559   0.315   3.221  10.372  0.3112  0.5339  0.1281
  180SLPC   H2R20560   0.215   3.256  10.407 -0.4427 -3.0281  1.9991
  180SLPC   H2S20561   0.396   3.248  10.442  0.6056 -2.6072  1.1613
  180SLPC    C320562   0.133   2.828  10.589  0.1656 -0.0073 -0.0891
  180SLPC    HX20563   0.123   2.898  10.675  1.0773 -1.1459  0.9696
  180SLPC    HY20564   0.152   2.734  10.644  0.3906 -0.4174 -0.8449
  180SLPC   O3120565   0.011   2.828  10.517 -0.1248  0.1845  0.4391
  180SLPC   C3120566  -0.002   2.725  10.435 -0.1683 -0.4893 -0.1220
  180SLPC   O3220567   0.085   2.644  10.417  0.0061  0.5731  0.1752
  180SLPC   C3220568  -0.128   2.741  10.357 -0.1453  0.2682  0.1273
  180SLPC   H2X20569  -0.147   2.850  10.352  0.2149  0.3239 -0.1290
  180SLPC   H2Y20570  -0.198   2.683  10.420  0.2787 -1.7566 -1.1525
  180SLPC   C2320571   0.341   3.281  10.230 -0.6375 -0.0502  0.1975
  180SLPC   H3R20572   0.314   3.388  10.248 -0.5205 -0.1682  1.1104
  180SLPC   H3S20573   0.263   3.241  10.163 -0.8494 -0.9004  0.9309
  180SLPC   C2420574   0.480   3.255  10.183 -0.0613  0.5357 -0.9992
  180SLPC   H4R20575   0.499   3.152  10.148 -1.7239  0.2693 -1.2321
  180SLPC   H4S20576   0.547   3.265  10.271 -0.9422  0.0361 -0.2491
  180SLPC   C2520577   0.520   3.359  10.072 -0.9131  0.0748 -0.3491
  180SLPC   H5R20578   0.626   3.338  10.044 -0.4920  2.5051 -0.8315
  180SLPC   H5S20579   0.514   3.463  10.112  0.7251 -0.2226  0.7669
  180SLPC   C2620580   0.441   3.342   9.943  0.4050 -0.3327  0.6055
  180SLPC   H6R20581   0.453   3.429   9.875 -0.9502 -0.3156  0.3470
  180SLPC   H6S20582   0.332   3.328   9.962 -0.5928  1.0787 -3.1779
  180SLPC   C2720583   0.480   3.221   9.857  0.5102  0.0290 -0.1349
  180SLPC   H7R20584   0.445   3.130   9.911  0.1842 -1.3730 -2.5500
  180SLPC   H7S20585   0.591   3.220   9.861  0.4692 -0.2236  1.3972
  180SLPC   C2820586   0.434   3.228   9.710  0.5688 -0.0722  0.7207
  180SLPC   H8R20587   0.469   3.327   9.672  3.3971  0.6517  4.5204
  180SLPC   H8S20588   0.323   3.228   9.708  0.5344 -1.9007  0.5608
  180SLPC   C2920589   0.491   3.111   9.628 -0.5340 -0.3802  0.6218
  180SLPC   H9R20590   0.491   3.014   9.680 -1.2464 -0.4096  0.5708
  180SLPC  C21020591   0.541   3.122   9.502  0.1115 -0.1815  0.2148
  180SLPC  H10R20592   0.572   3.031   9.448  1.4592  0.2234  0.2620
  180SLPC  C21120593   0.539   3.241   9.407  0.3587 -0.2258  0.5171
  180SLPC  H11R20594   0.435   3.279   9.419  0.7856  0.5824  1.8665
  180SLPC  H11S20595   0.552   3.208   9.302  1.3221 -0.7079  0.7738
  180SLPC  C21220596   0.628   3.352   9.442  0.0416 -0.1647 -0.3641
  180SLPC  H12R20597   0.733   3.324   9.461  0.3377 -0.2596 -1.9797
  180SLPC  C21320598   0.604   3.486   9.461  0.3770  0.2981  0.8160
  180SLPC  H13R20599   0.687   3.557   9.476  1.0502  0.3576 -2.3941
  180SLPC  C21420600   0.472   3.551   9.449  0.6268 -0.8304 -0.5131
  180SLPC  H14R20601   0.461   3.635   9.521  0.0383 -1.3070 -0.0329
  180SLPC  H14S20602   0.385   3.485   9.469  1.5695 -2.8651 -2.6174
  180SLPC  C21520603   0.433   3.619   9.314  0.1527 -0.0035  1.0765
  180SLPC  H15R20604   0.466   3.544   9.239 -1.0074 -1.5435  2.0473
  180SLPC  H15S20605   0.499   3.708   9.305  2.2836 -1.6861 -1.1853
  180SLPC  C21620606   0.282   3.653   9.302 -0.6274 -0.7809 -0.2173
  180SLPC  H16R20607   0.262   3.732   9.378 -1.2135 -1.3408  0.2271
  180SLPC  H16S20608   0.233   3.554   9.318 -2.3832 -0.1516 -1.3803
  180SLPC  C21720609   0.253   3.682   9.154 -0.4407 -0.0982  0.0646
  180SLPC  H17R20610   0.285   3.600   9.085 -1.3373 -0.2555 -0.1680
  180SLPC  H17S20611   0.311   3.775   9.133 -2.5142  1.5810  1.3856
  180SLPC  C21820612   0.112   3.741   9.133 -0.3877 -0.0833 -0.1732
  180SLPC  H18R20613   0.093   3.767   9.027 -0.1188  2.0711  0.2540
  180SLPC  H18S20614   0.089   3.831   9.194 -0.8087  0.5353 -1.2180
  180SLPC  H18T20615   0.030   3.672   9.162  0.9497 -1.1365  1.2269
  180SLPC   C3320616  -0.112   2.691  10.209  0.5849 -0.5640 -0.1391
  180SLPC   H3X20617  -0.212   2.673  10.163  1.2591 -0.7591 -1.5759
  180SLPC   H3Y20618  -0.072   2.587  10.206  1.3437 -0.4092  2.2806
  180SLPC   C3420619  -0.042   2.795  10.111  0.1670 -0.1688  0.0391
  180SLPC   H4X20620   0.050   2.816  10.169 -0.8685  0.6665  1.4167
  180SLPC   H4Y20621  -0.103   2.887  10.107  2.5212  1.4684 -0.2386
  180SLPC   C3520622  -0.007   2.742   9.976 -0.2774 -0.2925  0.1723
  180SLPC   H5X20623  -0.098   2.694   9.933 -0.7062  0.1894  0.5336
  180SLPC   H5Y20624   0.065   2.657   9.979 -0.5125 -0.4981  0.0421
  180SLPC   C3620625   0.043   2.842   9.871  0.3161 -0.1137 -0.7061
  180SLPC   H6X20626   0.130   2.901   9.907 -0.0260  1.3087 -2.0861
  180SLPC   H6Y20627  -0.043   2.910   9.850 -0.9083 -1.4976 -0.3658
  180SLPC   C3720628   0.088   2.774   9.744 -0.2962  0.2862  0.0117
  180SLPC   H7X20629   0.003   2.714   9.705  0.5219  0.3737 -2.0396
  180SLPC   H7Y20630   0.168   2.705   9.779  0.5016  1.6330  0.9462
  180SLPC   C3820631   0.138   2.880   9.641 -0.5244 -0.0243  0.0599
  180SLPC   H8X20632   0.226   2.935   9.679 -1.4346  0.6986  1.2160
  180SLPC   H8Y20633   0.060   2.956   9.620  0.5217  0.8617 -0.6656
  180SLPC   C3920634   0.181   2.816   9.502  0.4314 -1.1385 -0.3494
  180SLPC   H9X20635   0.109   2.743   9.461 -0.0121 -0.7526 -0.2734
  180SLPC   H9Y20636   0.275   2.757   9.508 -0.4878 -2.5413  0.6379
  180SLPC  C31020637   0.197   2.924   9.395  0.6837 -0.2669 -0.5205
  180SLPC  H10X20638   0.273   2.998   9.430 -1.4787  1.3281  1.0721
  180SLPC  H10Y20639   0.104   2.984   9.384  1.3907  1.6180  2.5722
  180SLPC  C31120640   0.255   2.863   9.267  0.1387 -0.0829  0.0359
  180SLPC  H11X20641   0.190   2.777   9.242  0.0597  0.6140 -2.4990
  180SLPC  H11Y20642   0.363   2.839   9.275  0.2283 -1.2247 -3.1960
  180SLPC  C31220643   0.244   2.956   9.144 -0.4122 -0.0786  0.2364
  180SLPC  H12X20644   0.341   3.009   9.134  0.3812 -1.2494  1.3874
  180SLPC  H12Y20645   0.154   3.018   9.163 -0.1629 -0.4303  2.8540
  180SLPC  C31320646   0.223   2.884   9.010  0.3668  0.4736  0.0321
  180SLPC  H13X20647   0.130   2.824   9.008  2.2778 -2.6892 -0.1604
  180SLPC  H13Y20648   0.301   2.806   9.008 -2.2977 -2.3562 -1.0669
  180SLPC  C31420649   0.231   2.987   8.894 -0.0289  0.1645  0.1800
  180SLPC  H14X20650   0.315   3.058   8.907 -0.5624  1.2382 -1.8644
  180SLPC  H14Y20651   0.143   3.052   8.911  1.8854  2.6935  1.0250
  180SLPC  C31520652   0.240   2.933   8.755 -1.1557 -0.3468 -0.1138
  180SLPC  H15X20653   0.339   2.893   8.725 -0.6613  0.4647  0.4152
  180SLPC  H15Y20654   0.216   3.011   8.680 -1.9693 -1.0601 -0.6139
  180SLPC  C31620655   0.155   2.809   8.724 -0.0987  0.0731  0.0897
  180SLPC  H16X20656   0.052   2.819   8.763 -0.4611 -1.1682 -0.5008
  180SLPC  H16Y20657   0.211   2.730   8.780  3.1212 -0.0627 -2.9497
  180SLPC  C31720658   0.150   2.767   8.573 -0.8387 -0.2578 -0.0491
  180SLPC  H17X20659   0.112   2.662   8.574 -1.3326 -0.1125 -1.3573
  180SLPC  H17Y20660   0.253   2.760   8.533 -1.3466  2.1723 -2.0180
  180SLPC  C31820661   0.066   2.860   8.482  0.0034  0.0786  0.3489
  180SLPC  H18X20662  -0.030   2.874   8.538 -0.0798  2.3941 -0.2667
  180SLPC  H18Y20663   0.049   2.804   8.388  0.9978  0.6237 -0.1675
  180SLPC  H18Z20664   0.118   2.957   8.468  0.6678 -0.6868 -3.2780
  181SLPC     N20665   4.671   0.048  11.021 -0.8529 -0.2710 -0.4547
  181SLPC   C1320666   4.599   0.177  10.986  0.8208  0.2885 -0.0142
  181SLPC  H13A20667   4.531   0.152  10.906  1.9069  0.0578 -0.8811
  181SLPC  H13B20668   4.543   0.208  11.073  0.2378  1.0788 -0.6538
  181SLPC  H13C20669   4.655   0.264  10.954 -0.9753  0.8216 -1.9220
  181SLPC   C1420670   4.777   0.080  11.126 -0.2187 -0.0743 -0.0826
  181SLPC  H14A20671   4.721   0.115  11.211 -0.6875 -1.1753  0.0775
  181SLPC  H14B20672   4.823  -0.013  11.156  1.0516  0.8695  1.0320
  181SLPC  H14C20673   4.852   0.152  11.093 -0.5212 -0.1651 -1.0067
  181SLPC   C1520674   4.732  -0.002  10.904  0.1169 -0.5342 -0.3386
  181SLPC  H15A20675   4.808   0.067  10.870 -0.2578 -0.7306 -1.6077
  181SLPC  H15B20676   4.792  -0.090  10.924 -0.3736 -0.5035  1.4556
  181SLPC  H15C20677   4.667  -0.037  10.825  1.1984  0.7422 -1.8576
  181SLPC   C1220678   4.585  -0.056  11.090  0.7342 -0.1495 -0.2734
  181SLPC  H12A20679   4.639  -0.139  11.131 -0.1732 -1.8635 -2.3431
  181SLPC  H12B20680   4.525  -0.105  11.014 -0.1622  1.3744 -0.5909
  181SLPC   C1120681   4.479  -0.012  11.204 -0.0431 -0.4366  0.5604
  181SLPC  H11A20682   4.533   0.038  11.288 -0.8157 -1.1313  1.4992
  181SLPC  H11B20683   4.436  -0.106  11.242  1.1279 -0.9062  0.7782
  181SLPC     P20684   4.272   0.018  11.044 -0.1205 -0.5024 -0.1041
  181SLPC   O1320685   4.293  -0.127  11.030 -0.2964  0.3767  0.3175
  181SLPC   O1420686   4.135   0.056  11.085 -0.6262 -0.1073  0.5473
  181SLPC   O1220687   4.383   0.075  11.145  0.7268 -0.3484 -0.3168
  181SLPC   O1120688   4.320   0.097  10.909  0.3039  0.4871  0.3117
  181SLPC    C120689   4.306   0.239  10.893 -0.1931 -0.4769 -0.3349
  181SLPC    HA20690   4.317   0.293  10.990 -1.3798  0.3516 -0.6318
  181SLPC    HB20691   4.381   0.271  10.818 -0.1179  0.2059  0.0211
  181SLPC    C220692   4.163   0.283  10.834 -0.3301 -0.3415  0.4306
  181SLPC    HS20693   4.086   0.231  10.896  1.2919 -1.1279  1.8748
  181SLPC   O2120694   4.152   0.233  10.695 -0.9193  0.2169 -0.1092
  181SLPC   C2120695   4.031   0.229  10.649  0.1829  0.2449  0.3316
  181SLPC   O2220696   3.927   0.252  10.716  0.3115  0.6499 -0.1093
  181SLPC   C2220697   4.032   0.234  10.488 -0.2442 -0.0095  0.0609
  181SLPC   H2R20698   4.094   0.148  10.453  1.6021  1.0764  0.4801
  181SLPC   H2S20699   3.928   0.216  10.454  0.2652  0.0644 -1.6451
  181SLPC    C320700   4.157   0.436  10.830  0.2806  0.0388 -0.0165
  181SLPC    HX20701   4.166   0.468  10.936 -0.6373 -0.3240  0.1782
  181SLPC    HY20702   4.053   0.468  10.806  0.9657  2.3921 -0.1181
  181SLPC   O3120703   4.250   0.501  10.740  0.6221 -0.4001  0.0504
  181SLPC   C3120704   4.318   0.605  10.790  0.6163 -0.5458  0.1868
  181SLPC   O3220705   4.306   0.654  10.901  0.0591 -0.3469  0.3150
  181SLPC   C3220706   4.410   0.670  10.685  0.1975 -0.0587 -0.3192
  181SLPC   H2X20707   4.485   0.593  10.657  0.0868 -0.1129 -0.4623
  181SLPC   H2Y20708   4.465   0.753  10.735  0.3388 -0.1528 -0.3163
  181SLPC   C2320709   4.078   0.376  10.443 -0.3407 -0.0163  0.5570
  181SLPC   H3R20710   4.182   0.398  10.475  0.0634 -0.7627 -0.1893
  181SLPC   H3S20711   4.012   0.456  10.482  0.6789  1.5319 -0.7704
  181SLPC   C2420712   4.067   0.386  10.289  0.4417 -0.0742 -0.6632
  181SLPC   H4R20713   3.965   0.360  10.255 -0.3379  0.2419  1.3128
  181SLPC   H4S20714   4.144   0.322  10.240  1.8742  0.7356  0.4527
  181SLPC   C2520715   4.100   0.528  10.246 -0.5798  0.3392 -0.2133
  181SLPC   H5R20716   4.202   0.554  10.281 -0.8684 -1.2386  1.9967
  181SLPC   H5S20717   4.034   0.602  10.294  0.8454  1.6749 -0.2431
  181SLPC   C2620718   4.099   0.547  10.091  0.4761 -0.4811 -0.0236
  181SLPC   H6R20719   4.159   0.467  10.042  0.9395 -0.7273  0.9367
  181SLPC   H6S20720   4.147   0.645  10.073  0.7618 -0.5736  0.2365
  181SLPC   C2720721   3.956   0.534  10.029 -0.3793  0.2714 -0.2506
  181SLPC   H7R20722   3.887   0.596  10.089  0.4809  0.7220  0.2854
  181SLPC   H7S20723   3.924   0.429  10.043  0.8357  0.2336  2.9486
  181SLPC   C2820724   3.942   0.558   9.880 -0.4866  0.2732  0.4341
  181SLPC   H8R20725   3.992   0.653   9.850  0.7155 -0.9538 -1.7306
  181SLPC   H8S20726   3.836   0.581   9.855  0.0249  1.7300 -0.5788
  181SLPC   C2920727   4.009   0.451   9.791  0.1366  0.0834 -0.1365
  181SLPC   H9R20728   4.104   0.406   9.824 -1.7958 -2.7159  2.1344
  181SLPC  C21020729   3.935   0.387   9.701 -0.2550 -0.0500 -0.4192
  181SLPC  H10R20730   3.982   0.301   9.651  2.1921  2.0101 -1.9509
  181SLPC  C21120731   3.788   0.412   9.668  0.2089  0.6512  0.1217
  181SLPC  H11R20732   3.772   0.516   9.630  0.1035  0.7184  0.3519
  181SLPC  H11S20733   3.723   0.399   9.757  0.3103 -2.3813 -0.1517
  181SLPC  C21220734   3.748   0.305   9.573 -0.4818  0.2163  0.0977
  181SLPC  H12R20735   3.722   0.207   9.614 -1.1174 -0.3529 -1.5993
  181SLPC  C21320736   3.747   0.315   9.440 -0.5872  0.1050 -0.0577
  181SLPC  H13R20737   3.709   0.222   9.394  1.2563 -0.3028 -0.8613
  181SLPC  C21420738   3.791   0.435   9.355  0.2844  0.1402 -0.3908
  181SLPC  H14R20739   3.839   0.515   9.414 -1.0013  0.3049  0.4752
  181SLPC  H14S20740   3.701   0.487   9.317  0.5584  1.7413  1.0760
  181SLPC  C21520741   3.890   0.401   9.238 -0.4560 -0.1418 -0.2199
  181SLPC  H15R20742   3.864   0.297   9.210 -2.2792  0.2954 -0.2472
  181SLPC  H15S20743   3.989   0.401   9.288  0.3005  1.2734 -1.6237
  181SLPC  C21620744   3.895   0.496   9.117  0.0331 -0.2304  0.2262
  181SLPC  H16R20745   3.983   0.463   9.058 -0.5091 -0.9115 -0.2112
  181SLPC  H16S20746   3.909   0.596   9.163  0.6619 -0.3339  0.2779
  181SLPC  C21720747   3.762   0.491   9.037 -0.4778 -0.0372  0.4822
  181SLPC  H17R20748   3.747   0.590   8.989 -1.4714 -0.0879  0.6535
  181SLPC  H17S20749   3.684   0.464   9.112 -1.6826 -2.7837 -1.5517
  181SLPC  C21820750   3.759   0.382   8.922  1.2138 -0.1796 -0.3990
  181SLPC  H18R20751   3.656   0.351   8.896  0.9215 -0.7672  1.3388
  181SLPC  H18S20752   3.814   0.290   8.950 -1.7276 -3.2603 -3.7894
  181SLPC  H18T20753   3.813   0.419   8.832  3.2367  1.0193  1.2211
  181SLPC   C3320754   4.328   0.720  10.561 -0.5660  0.6636  0.3757
  181SLPC   H3X20755   4.248   0.787  10.600 -0.9288  2.2581 -2.7815
  181SLPC   H3Y20756   4.267   0.639  10.514 -2.0124  0.5523  2.3445
  181SLPC   C3420757   4.404   0.787  10.444  0.0511 -0.6812 -0.0460
  181SLPC   H4X20758   4.476   0.717  10.395  2.9572  3.1783 -1.7923
  181SLPC   H4Y20759   4.465   0.874  10.474 -2.3235  1.8861 -2.0862
  181SLPC   C3520760   4.308   0.844  10.339  0.2409  0.1665 -0.2427
  181SLPC   H5X20761   4.234   0.910  10.388  0.3515  0.1193 -0.0107
  181SLPC   H5Y20762   4.248   0.758  10.303  1.3880 -0.8790  0.2484
  181SLPC   C3620763   4.375   0.899  10.218 -0.2226  0.0939  0.6722
  181SLPC   H6X20764   4.431   0.816  10.169 -0.1259  1.0764 -0.9585
  181SLPC   H6Y20765   4.454   0.972  10.245  0.1166 -0.5927  1.5900
  181SLPC   C3720766   4.287   0.977  10.118 -0.3985 -0.2295 -0.2807
  181SLPC   H7X20767   4.265   1.078  10.160 -2.6807 -0.9619  0.4092
  181SLPC   H7Y20768   4.188   0.927  10.115 -0.2577 -0.4832 -1.0079
  181SLPC   C3820769   4.345   0.988   9.984 -0.2641 -0.4547 -0.2156
  181SLPC   H8X20770   4.372   0.890   9.940 -1.8377 -1.1579  0.2900
  181SLPC   H8Y20771   4.441   1.043   9.987  1.6645 -3.6204 -0.2333
  181SLPC   C3920772   4.240   1.051   9.879  0.0627  1.0636 -0.4727
  181SLPC   H9X20773   4.301   1.083   9.792  1.8273 -0.4729  0.1288
  181SLPC   H9Y20774   4.182   1.134   9.925 -2.6290 -0.0841 -1.6280
  181SLPC  C31020775   4.145   0.950   9.813  0.5388  0.5700 -0.4112
  181SLPC  H10X20776   4.078   0.916   9.894 -0.6456  1.8812 -0.8025
  181SLPC  H10Y20777   4.200   0.868   9.763  0.5197  0.5502 -0.3999
  181SLPC  C31120778   4.059   1.013   9.698 -0.2294 -0.1573 -0.0971
  181SLPC  H11X20779   4.127   1.032   9.612 -0.9273 -1.1088 -0.8697
  181SLPC  H11Y20780   4.014   1.103   9.746 -1.2967 -1.4979  1.5308
  181SLPC  C31220781   3.942   0.928   9.649  0.3036  0.3866  0.0140
  181SLPC  H12X20782   3.879   0.980   9.574 -0.0213 -0.4029 -0.2691
  181SLPC  H12Y20783   3.886   0.910   9.744 -0.3996 -0.5763 -0.5695
  181SLPC  C31320784   3.988   0.791   9.595  0.1028  0.8154 -0.2080
  181SLPC  H13X20785   3.904   0.718   9.587  0.0626  1.0424 -2.4292
  181SLPC  H13Y20786   4.061   0.749   9.669 -0.2300 -0.0992 -0.3768
  181SLPC  C31420787   4.062   0.802   9.457 -0.3030  0.3547  0.6305
  181SLPC  H14X20788   4.053   0.706   9.401  1.4856  1.2351 -1.3205
  181SLPC  H14Y20789   4.171   0.819   9.470  0.2497 -1.5582 -0.8904
  181SLPC  C31520790   4.005   0.909   9.361  0.5302 -0.0899  0.2403
  181SLPC  H15X20791   4.006   1.009   9.410  1.0584 -0.1072  0.2691
  181SLPC  H15Y20792   3.900   0.878   9.338  0.7101 -0.2433 -0.3679
  181SLPC  C31620793   4.096   0.920   9.232  0.3680  0.6751  0.1910
  181SLPC  H16X20794   4.128   0.819   9.200 -1.0889  0.3388 -0.2794
  181SLPC  H16Y20795   4.180   0.989   9.254  0.7160 -0.2757  1.9916
  181SLPC  C31720796   4.020   0.998   9.118 -0.2344  0.2095 -0.4416
  181SLPC  H17X20797   4.083   1.046   9.039 -1.2927 -0.3167 -1.6516
  181SLPC  H17Y20798   3.969   1.088   9.157  1.9003  1.8905 -1.3140
  181SLPC  C31820799   3.919   0.918   9.042  0.4504 -0.2107  0.1809
  181SLPC  H18X20800   3.955   0.824   8.995  0.7138  0.0284 -0.1082
  181SLPC  H18Y20801   3.875   0.981   8.961  2.9479  1.2066 -0.1754
  181SLPC  H18Z20802   3.836   0.888   9.109  2.7429 -2.3371  2.3129
  182SLPC     N20803   1.792   0.352  11.069 -0.3490 -0.8939  0.2842
  182SLPC   C1320804   1.843   0.222  11.010  0.0958 -0.7264 -0.1684
  182SLPC  H13A20805   1.833   0.137  11.076  0.8901 -2.2351 -1.9100
  182SLPC  H13B20806   1.785   0.199  10.922 -0.9294 -2.2171  0.8288
  182SLPC  H13C20807   1.950   0.230  11.005  0.2234 -1.8976  0.4316
  182SLPC   C1420808   1.858   0.367  11.204  0.1098 -0.1176  0.2143
  182SLPC  H14A20809   1.806   0.308  11.278 -1.4071  2.9323  1.7989
  182SLPC  H14B20810   1.956   0.323  11.206 -0.1211 -0.6352  0.3355
  182SLPC  H14C20811   1.873   0.470  11.232 -1.3620  0.3655 -0.6565
  182SLPC   C1520812   1.643   0.343  11.083  0.0699  0.2839 -0.5743
  182SLPC  H15A20813   1.597   0.327  10.987 -3.1608  0.3998  0.8421
  182SLPC  H15B20814   1.614   0.262  11.148 -0.4782  1.2330  0.3984
  182SLPC  H15C20815   1.613   0.436  11.128 -0.2485  0.2007 -0.6141
  182SLPC   C1220816   1.832   0.465  10.973  0.4591  0.7185 -0.4144
  182SLPC  H12A20817   1.940   0.467  10.968  0.4882  1.5409  0.4066
  182SLPC  H12B20818   1.809   0.557  11.024  0.9811  1.0962 -0.8506
  182SLPC   C1120819   1.763   0.489  10.833 -0.3009  0.0221  0.0476
  182SLPC  H11A20820   1.762   0.395  10.773  1.1355 -0.1335  0.2449
  182SLPC  H11B20821   1.823   0.548  10.759  0.4260 -0.4972  0.2142
  182SLPC     P20822   1.615   0.701  10.827  0.1401 -0.1546 -0.0676
  182SLPC   O1320823   1.471   0.721  10.810 -0.9677 -0.2581 -0.3612
  182SLPC   O1420824   1.686   0.782  10.930 -0.0090  0.0756 -0.1556
  182SLPC   O1220825   1.635   0.545  10.850  0.1134 -0.4561 -0.2348
  182SLPC   O1120826   1.685   0.720  10.693 -0.0875 -0.1140  0.4707
  182SLPC    C120827   1.639   0.655  10.570 -0.0515 -0.2251 -0.5047
  182SLPC    HA20828   1.723   0.589  10.539 -0.0568  0.8316 -2.9454
  182SLPC    HB20829   1.554   0.587  10.591  0.7753 -0.6553  1.7219
  182SLPC    C220830   1.611   0.749  10.452  0.2335 -0.1548 -0.6504
  182SLPC    HS20831   1.588   0.685  10.364  2.1132 -0.7935 -0.7141
  182SLPC   O2120832   1.713   0.852  10.425  0.2668  0.2724  0.3984
  182SLPC   C2120833   1.801   0.810  10.336 -0.6331 -0.9467 -0.2203
  182SLPC   O2220834   1.802   0.703  10.280  0.2476  0.3488  0.2565
  182SLPC   C2220835   1.893   0.927  10.299 -0.7799  0.2856 -0.0130
  182SLPC   H2R20836   1.948   0.956  10.391  1.1449 -0.6822 -0.8083
  182SLPC   H2S20837   1.968   0.887  10.227  0.5532  2.2760  0.2194
  182SLPC    C320838   1.483   0.824  10.495  0.1351 -0.2445  0.4036
  182SLPC    HX20839   1.517   0.892  10.577 -0.1793  1.1044 -0.5459
  182SLPC    HY20840   1.405   0.756  10.534 -1.0322  0.4930 -0.5563
  182SLPC   O3120841   1.425   0.891  10.375 -0.0290 -0.2116 -0.4516
  182SLPC   C3120842   1.440   1.023  10.380  0.0109  0.2372  0.2352
  182SLPC   O3220843   1.506   1.082  10.469  0.2626  0.4449  0.3884
  182SLPC   C3220844   1.367   1.095  10.271  0.0781  0.8157  0.1275
  182SLPC   H2X20845   1.408   1.068  10.172 -0.9269  3.3228 -1.0660
  182SLPC   H2Y20846   1.376   1.205  10.275 -1.6317  1.2801 -3.8698
  182SLPC   C2320847   1.831   1.049  10.238 -0.0180  0.3118 -0.7099
  182SLPC   H3R20848   1.901   1.133  10.218  1.2450 -0.6980 -0.6328
  182SLPC   H3S20849   1.751   1.076  10.310 -1.6096 -2.0806 -1.4775
  182SLPC   C2420850   1.777   1.019  10.095  0.1598 -0.3879 -0.0882
  182SLPC   H4R20851   1.704   0.935  10.104  0.5668 -0.5733  1.8716
  182SLPC   H4S20852   1.852   0.980  10.022 -1.3252 -0.4211 -1.6701
  182SLPC   C2520853   1.712   1.151  10.038 -0.9499 -0.8259 -0.4700
  182SLPC   H5R20854   1.783   1.237  10.032 -2.1622  0.2709  0.3208
  182SLPC   H5S20855   1.649   1.200  10.115  1.3487  1.0015  0.3935
  182SLPC   C2620856   1.633   1.141   9.911 -0.4312  0.1945  0.2657
  182SLPC   H6R20857   1.562   1.056   9.902  1.1256 -0.9612 -2.1150
  182SLPC   H6S20858   1.703   1.140   9.825  0.3690  1.6140  0.8655
  182SLPC   C2720859   1.540   1.266   9.889 -0.3016  0.4751  0.4687
  182SLPC   H7R20860   1.612   1.350   9.876 -1.0999  1.2913  1.2183
  182SLPC   H7S20861   1.484   1.286   9.983 -2.5266  1.5319 -0.9987
  182SLPC   C2820862   1.444   1.253   9.772 -0.0575 -0.5931 -1.0013
  182SLPC   H8R20863   1.380   1.343   9.785  0.6380 -0.1384 -0.6565
  182SLPC   H8S20864   1.381   1.165   9.793  0.3092 -0.3731  1.3315
  182SLPC   C2920865   1.509   1.271   9.638 -0.3487  0.8747  0.2756
  182SLPC   H9R20866   1.582   1.352   9.623  2.1317 -1.4236 -0.9251
  182SLPC  C21020867   1.498   1.179   9.535  0.7113 -0.3593 -0.7442
  182SLPC  H10R20868   1.556   1.193   9.442  1.3018 -0.7839 -0.4480
  182SLPC  C21120869   1.419   1.046   9.532 -0.2492  0.3793  0.1463
  182SLPC  H11R20870   1.311   1.069   9.545 -0.6077 -1.2703  0.2347
  182SLPC  H11S20871   1.435   0.990   9.627  1.0762  1.3352  0.5119
  182SLPC  C21220872   1.434   0.967   9.401  0.1198  0.3209  0.3570
  182SLPC  H12R20873   1.378   1.007   9.316 -0.8664  0.3256  0.9989
  182SLPC  C21320874   1.518   0.867   9.376 -0.3098 -0.0351 -0.1340
  182SLPC  H13R20875   1.517   0.804   9.286 -2.0376 -0.2273 -0.0095
  182SLPC  C21420876   1.610   0.819   9.486 -0.6290 -0.2474  0.2323
  182SLPC  H14R20877   1.638   0.898   9.559 -0.4186  0.2675 -0.4070
  182SLPC  H14S20878   1.703   0.787   9.433 -0.8448  1.9821 -1.6343
  182SLPC  C21520879   1.547   0.693   9.546 -0.4745 -0.0962 -1.0707
  182SLPC  H15R20880   1.520   0.622   9.466  0.7083 -1.3039 -0.4531
  182SLPC  H15S20881   1.456   0.724   9.601 -0.0632 -1.4581  0.4657
  182SLPC  C21620882   1.624   0.609   9.649  0.3684  0.0688 -0.2619
  182SLPC  H16R20883   1.727   0.585   9.613  0.0751 -0.4957 -0.7424
  182SLPC  H16S20884   1.566   0.518   9.675  2.1084 -1.1211 -0.3756
  182SLPC  C21720885   1.651   0.688   9.783 -0.4820 -0.3174 -0.5864
  182SLPC  H17R20886   1.694   0.786   9.753 -1.1504 -0.0704 -0.7416
  182SLPC  H17S20887   1.726   0.630   9.841 -1.3050 -2.1322 -1.2489
  182SLPC  C21820888   1.529   0.719   9.873  0.6572  0.4080 -0.2555
  182SLPC  H18R20889   1.483   0.630   9.923  2.3864 -0.2310  0.2682
  182SLPC  H18S20890   1.451   0.768   9.810 -1.3257 -1.8459  0.2785
  182SLPC  H18T20891   1.555   0.788   9.956 -0.6832  1.3113 -0.5503
  182SLPC   C3320892   1.221   1.052  10.285 -0.0676 -0.2723 -0.1892
  182SLPC   H3X20893   1.187   1.061  10.390 -0.5228  0.5765 -0.4020
  182SLPC   H3Y20894   1.220   0.942  10.271 -1.3361 -0.1149 -1.6109
  182SLPC   C3420895   1.117   1.121  10.193 -0.0442 -0.1965 -0.1142
  182SLPC   H4X20896   1.109   1.231  10.206  0.7577  0.1393 -2.1198
  182SLPC   H4Y20897   1.016   1.089  10.227  0.1250 -0.4331  0.1773
  182SLPC   C3520898   1.141   1.093  10.045 -0.2695 -0.6077 -0.3520
  182SLPC   H5X20899   1.150   0.988  10.010 -0.8727 -0.2886 -1.4970
  182SLPC   H5Y20900   1.236   1.143  10.014 -0.2868 -1.2386 -1.4680
  182SLPC   C3620901   1.030   1.149   9.954 -0.5031  0.0950  0.4310
  182SLPC   H6X20902   1.001   1.253   9.979  2.6251  1.5208 -1.3215
  182SLPC   H6Y20903   0.946   1.079   9.973 -0.5201  0.7852  3.5237
  182SLPC   C3720904   1.076   1.142   9.804  0.6855 -0.3968  0.5590
  182SLPC   H7X20905   1.129   1.045   9.785  0.7590 -0.0647 -1.0542
  182SLPC   H7Y20906   1.157   1.217   9.791  1.4175 -1.0940  0.9759
  182SLPC   C3820907   0.957   1.178   9.711  0.3293 -0.0827 -0.0886
  182SLPC   H8X20908   0.909   1.278   9.718 -2.3908 -1.1315 -1.9536
  182SLPC   H8Y20909   0.879   1.106   9.744  0.8541 -0.6401 -0.0432
  182SLPC   C3920910   1.000   1.157   9.567 -0.1539 -0.1931 -0.2441
  182SLPC   H9X20911   1.093   1.214   9.547 -0.5141  0.3788 -0.2921
  182SLPC   H9Y20912   0.922   1.200   9.501 -0.5320  1.2254  1.0555
  182SLPC  C31020913   1.025   1.010   9.538 -0.2716  0.7945  0.0671
  182SLPC  H10X20914   0.941   0.951   9.580  2.7069 -3.7248  0.3585
  182SLPC  H10Y20915   1.120   0.971   9.580 -0.3272 -1.0100 -1.3470
  182SLPC  C31120916   1.016   0.967   9.393  0.0350  0.1189  0.8025
  182SLPC  H11X20917   1.099   1.008   9.332  2.1355 -0.8745  2.7990
  182SLPC  H11Y20918   0.916   1.002   9.360  0.0121 -1.5417 -1.0455
  182SLPC  C31220919   1.013   0.816   9.393  0.7178  0.2884  0.0556
  182SLPC  H12X20920   0.932   0.779   9.461  1.7999 -2.7985 -0.1694
  182SLPC  H12Y20921   1.106   0.783   9.444  1.0126 -1.0082 -1.2579
  182SLPC  C31320922   1.003   0.751   9.259  0.2120 -0.6062  0.1734
  182SLPC  H13X20923   0.903   0.777   9.218  0.5558  3.1821  1.3452
  182SLPC  H13Y20924   1.015   0.641   9.272  2.7402 -1.0879 -4.3404
  182SLPC  C31420925   1.118   0.782   9.165  0.4934 -0.7084 -0.7983
  182SLPC  H14X20926   1.217   0.765   9.214  0.0033  1.9562  1.3590
  182SLPC  H14Y20927   1.113   0.892   9.150  1.2179 -0.4700  0.5442
  182SLPC  C31520928   1.114   0.711   9.036 -0.2693  0.0454  0.2523
  182SLPC  H15X20929   1.080   0.607   9.057 -1.3055  0.5297  1.0444
  182SLPC  H15Y20930   1.217   0.713   8.993  0.0884  2.8155  1.0554
  182SLPC  C31620931   1.012   0.773   8.944 -0.1179  0.6289  0.1752
  182SLPC  H16X20932   1.009   0.884   8.958 -2.5497  0.4205  1.9353
  182SLPC  H16Y20933   0.911   0.738   8.974  0.3723 -1.4972 -0.4879
  182SLPC  C31720934   1.043   0.725   8.795 -0.0057  0.2980 -0.4639
  182SLPC  H17X20935   0.945   0.743   8.744 -1.4710 -0.4366  1.9252
  182SLPC  H17Y20936   1.062   0.616   8.800 -0.2315  0.1110 -2.6869
  182SLPC  C31820937   1.161   0.798   8.728  0.1464  0.6563  0.0891
  182SLPC  H18X20938   1.142   0.907   8.740  1.1079  0.9299 -0.7482
  182SLPC  H18Y20939   1.171   0.774   8.620  0.3053  1.0938  0.0052
  182SLPC  H18Z20940   1.253   0.767   8.781  0.1614  2.3505  1.1521
  183SLPC     N20941   2.842   1.183  11.078 -0.0631 -0.8104 -0.3157
  183SLPC   C1320942   2.699   1.214  11.076  0.6167 -0.1715  0.4523
  183SLPC  H13A20943   2.654   1.204  11.174 -0.0227  2.2690  0.4710
  183SLPC  H13B20944   2.685   1.317  11.049 -0.7270 -0.2863  0.6633
  183SLPC  H13C20945   2.646   1.153  11.005 -1.4300  1.7174  0.2734
  183SLPC   C1420946   2.859   1.040  11.120  0.2010  0.0931  0.2267
  183SLPC  H14A20947   2.965   1.018  11.116 -0.1870 -1.9316  0.2458
  183SLPC  H14B20948   2.820   1.028  11.220  0.9831 -0.4724  0.4717
  183SLPC  H14C20949   2.808   0.964  11.063 -2.3848  1.9437 -0.0882
  183SLPC   C1520950   2.919   1.273  11.177 -0.8021 -0.5288  0.4429
  183SLPC  H15A20951   2.918   1.380  11.163  0.7091 -0.6399 -0.6992
  183SLPC  H15B20952   2.869   1.262  11.272  0.2008 -3.5915  0.7432
  183SLPC  H15C20953   3.019   1.233  11.183 -0.6002 -0.1021  0.0165
  183SLPC   C1220954   2.908   1.211  10.943 -0.0219 -0.2760  0.5442
  183SLPC  H12A20955   3.012   1.233  10.957 -0.1097 -0.0581  0.8579
  183SLPC  H12B20956   2.871   1.310  10.918  0.2186  0.1837  1.9368
  183SLPC   C1120957   2.890   1.120  10.819 -0.1753 -0.1662 -0.7350
  183SLPC  H11A20958   2.896   1.181  10.726 -2.7921  0.6325 -0.4732
  183SLPC  H11B20959   2.782   1.095  10.826 -0.2045 -0.0545 -0.7844
  183SLPC     P20960   3.123   1.019  10.829  0.1047  0.2170 -0.0887
  183SLPC   O1320961   3.170   1.154  10.796 -0.6674 -0.2445 -0.0364
  183SLPC   O1420962   3.162   0.969  10.962  0.3674  0.1539  0.1933
  183SLPC   O1220963   2.969   1.004  10.815  0.1793  0.3082 -0.9874
  183SLPC   O1120964   3.182   0.919  10.723 -1.0148 -0.2536 -0.1721
  183SLPC    C120965   3.125   0.907  10.592  0.4703 -0.1489  0.4643
  183SLPC    HA20966   3.078   1.002  10.557 -0.0178  0.1676  1.8964
  183SLPC    HB20967   3.196   0.881  10.511  1.2914 -0.9636  1.4200
  183SLPC    C220968   3.020   0.788  10.584 -0.2054  0.0071 -0.1644
  183SLPC    HS20969   2.953   0.799  10.672  0.0757 -1.8717  0.3171
  183SLPC   O2120970   3.093   0.663  10.594  0.4776  0.0145  0.7311
  183SLPC   C2120971   3.029   0.561  10.640 -1.1893 -0.1059 -0.4778
  183SLPC   O2220972   2.920   0.573  10.683  0.4648  0.4746 -0.3104
  183SLPC   C2220973   3.113   0.435  10.613 -0.6377  0.4421 -0.4394
  183SLPC   H2R20974   3.193   0.432  10.690  1.7333 -4.2539 -2.7069
  183SLPC   H2S20975   3.058   0.341  10.635  1.5097 -0.5358  1.0700
  183SLPC    C320976   2.950   0.783  10.447 -0.1021 -0.3713  0.3939
  183SLPC    HX20977   2.897   0.688  10.429 -2.5227  0.7209  1.3588
  183SLPC    HY20978   3.033   0.800  10.375 -0.7052 -1.0116 -0.4592
  183SLPC   O3120979   2.861   0.893  10.429 -0.2177 -0.3786 -0.9384
  183SLPC   C3120980   2.739   0.874  10.476  0.3909  0.2872  0.0978
  183SLPC   O3220981   2.697   0.779  10.538  0.0846  0.0601 -0.5763
  183SLPC   C3220982   2.654   1.002  10.447 -0.0584  0.7061 -0.1657
  183SLPC   H2X20983   2.690   1.070  10.527  1.4263  0.6752 -0.7651
  183SLPC   H2Y20984   2.553   0.964  10.473  0.2855  0.3147  0.6628
  183SLPC   C2320985   3.194   0.438  10.484 -0.0734 -0.1132 -0.2873
  183SLPC   H3R20986   3.266   0.354  10.484 -0.4116 -0.4135  0.6256
  183SLPC   H3S20987   3.254   0.531  10.479 -0.1244 -0.1256 -1.5937
  183SLPC   C2420988   3.100   0.427  10.358 -0.0388 -0.5243 -1.0491
  183SLPC   H4R20989   3.032   0.515  10.356 -0.8091 -1.0245  0.8884
  183SLPC   H4S20990   3.045   0.331  10.374  1.5314 -1.8189 -3.0428
  183SLPC   C2520991   3.181   0.418  10.221 -0.5164 -0.2065 -0.3824
  183SLPC   H5R20992   3.235   0.321  10.216 -0.6134 -0.2298 -1.0751
  183SLPC   H5S20993   3.262   0.494  10.231  0.9052 -1.4233 -2.0960
  183SLPC   C2620994   3.098   0.434  10.096  0.2239  0.6799  0.0156
  183SLPC   H6R20995   3.028   0.521  10.095  0.2127  0.6814  0.4930
  183SLPC   H6S20996   3.024   0.352  10.103  1.7841 -0.9097 -1.2345
  183SLPC   C2720997   3.165   0.427   9.955 -0.3987 -0.7640 -0.2173
  183SLPC   H7R20998   3.229   0.337   9.941  1.3615  0.7749 -2.9125
  183SLPC   H7S20999   3.225   0.518   9.932  0.4295 -1.2330  0.0720
  183SLPC   C2821000   3.056   0.421   9.844 -0.4581 -0.4386  0.2091
  183SLPC   H8R21001   3.099   0.473   9.756  2.4251  0.0720  1.7691
  183SLPC   H8S21002   2.975   0.484   9.884  0.7462 -0.0920  2.2435
  183SLPC   C2921003   3.005   0.281   9.813 -0.1469  0.1900  0.5379
  183SLPC   H9R21004   3.017   0.205   9.892 -2.5440 -1.8180 -0.8800
  183SLPC  C21021005   2.968   0.229   9.691 -0.9387 -0.1985 -0.0458
  183SLPC  H10R21006   2.953   0.120   9.689 -1.5012 -0.1316 -2.2843
  183SLPC  C21121007   2.962   0.299   9.558  0.0993 -0.2297  0.3208
  183SLPC  H11R21008   3.030   0.386   9.555  1.8886 -1.5461  0.7849
  183SLPC  H11S21009   2.859   0.339   9.545 -0.0290  0.0213  1.9219
  183SLPC  C21221010   2.972   0.206   9.440  0.3601 -0.5984 -0.4041
  183SLPC  H12R21011   3.024   0.110   9.453 -1.1433 -1.2840  0.9005
  183SLPC  C21321012   2.910   0.218   9.323  0.6386  0.7042 -0.5093
  183SLPC  H13R21013   2.942   0.144   9.248  0.9702 -0.3880  0.6847
  183SLPC  C21421014   2.813   0.334   9.283  0.1734  0.5016  0.9946
  183SLPC  H14R21015   2.822   0.424   9.348  1.0682  0.9034  0.3405
  183SLPC  H14S21016   2.711   0.295   9.304  0.4551 -1.1300 -0.4737
  183SLPC  C21521017   2.818   0.376   9.133 -0.0938  0.4939 -0.2884
  183SLPC  H15R21018   2.759   0.470   9.121  1.6072  1.5770 -0.4721
  183SLPC  H15S21019   2.766   0.300   9.070 -0.3992  1.1110 -0.7936
  183SLPC  C21621020   2.963   0.398   9.074  0.1501  0.0265 -0.0829
  183SLPC  H16R21021   3.033   0.313   9.093 -0.1290  0.0402  1.0538
  183SLPC  H16S21022   3.007   0.479   9.135 -0.6771 -0.5494  1.3293
  183SLPC  C21721023   2.959   0.420   8.924 -0.0886 -0.2960 -0.4639
  183SLPC  H17R21024   3.038   0.488   8.886  0.2954 -2.0226 -2.9745
  183SLPC  H17S21025   2.864   0.477   8.910  0.3979  1.2304  1.8680
  183SLPC  C21821026   2.950   0.292   8.843 -0.0102  0.0275 -0.3979
  183SLPC  H18R21027   3.041   0.228   8.848 -0.6634 -0.8442  1.0067
  183SLPC  H18S21028   2.939   0.312   8.735  0.4226  0.7071 -0.3205
  183SLPC  H18T21029   2.864   0.228   8.872  0.0708  1.4685  3.7349
  183SLPC   C3321030   2.677   1.067  10.308  0.1727 -0.6878 -0.6692
  183SLPC   H3X21031   2.782   1.105  10.301 -0.1664  0.3106 -0.4452
  183SLPC   H3Y21032   2.622   1.162  10.292  1.9224  0.5562  0.3608
  183SLPC   C3421033   2.639   0.983  10.184 -0.1006 -0.0576  0.5869
  183SLPC   H4X21034   2.544   0.932  10.211 -0.0859 -1.4021 -1.6293
  183SLPC   H4Y21035   2.719   0.908  10.165  0.7445  1.1340 -0.8101
  183SLPC   C3521036   2.623   1.057  10.048 -0.5395  0.2967  0.5317
  183SLPC   H5X21037   2.727   1.094  10.039 -1.0429  2.3977  2.2298
  183SLPC   H5Y21038   2.545   1.136  10.063 -0.0084  0.9662 -0.1734
  183SLPC   C3621039   2.588   0.969   9.926  0.5122  0.5118 -0.3072
  183SLPC   H6X21040   2.482   0.936   9.929 -0.1829  2.6606  1.8346
  183SLPC   H6Y21041   2.662   0.887   9.918  1.4259  1.2094  0.6395
  183SLPC   C3721042   2.591   1.049   9.790  0.2383 -0.1830 -0.4767
  183SLPC   H7X21043   2.687   1.104   9.780  0.3512 -0.3538 -0.3437
  183SLPC   H7Y21044   2.516   1.131   9.796  0.3973  0.0595 -1.5880
  183SLPC   C3821045   2.563   0.969   9.668  0.2158 -1.2700  0.2434
  183SLPC   H8X21046   2.478   0.898   9.668 -1.6527  0.8083 -1.6420
  183SLPC   H8Y21047   2.651   0.904   9.649  0.8832 -0.0161 -1.1958
  183SLPC   C3921048   2.540   1.063   9.542 -1.0988 -0.4621  0.0010
  183SLPC   H9X21049   2.637   1.113   9.518 -2.0686  2.0876  1.0494
  183SLPC   H9Y21050   2.480   1.152   9.572 -1.2436 -1.0715  1.6400
  183SLPC  C31021051   2.496   0.978   9.424 -0.0585  0.1801  0.5564
  183SLPC  H10X21052   2.410   0.919   9.464  0.7332  0.3781  2.6724
  183SLPC  H10Y21053   2.559   0.893   9.391 -0.6481  0.3073 -0.9830
  183SLPC  C31121054   2.477   1.061   9.297  0.1582  0.3043  0.2970
  183SLPC  H11X21055   2.572   1.090   9.246 -1.6891  2.3198 -2.2613
  183SLPC  H11Y21056   2.433   1.160   9.323  0.5249  0.9176 -1.3022
  183SLPC  C31221057   2.400   0.997   9.182 -0.6971 -0.3600 -1.1255
  183SLPC  H12X21058   2.294   1.015   9.208 -1.1423 -0.0798 -2.9824
  183SLPC  H12Y21059   2.418   0.887   9.174  1.7684  0.0603 -2.2538
  183SLPC  C31321060   2.422   1.068   9.045 -0.6319  0.4566  0.0138
  183SLPC  H13X21061   2.530   1.057   9.018 -0.7113  1.2550 -0.6781
  183SLPC  H13Y21062   2.394   1.175   9.052  0.2729  0.6072  1.9551
  183SLPC  C31421063   2.346   1.001   8.924 -0.3481  0.0493 -0.2602
  183SLPC  H14X21064   2.358   1.075   8.842 -2.2509  1.4948  0.6727
  183SLPC  H14Y21065   2.240   0.988   8.956  0.2032 -1.2424  1.1512
  183SLPC  C31521066   2.417   0.873   8.870 -0.4177 -0.1200 -0.2601
  183SLPC  H15X21067   2.520   0.861   8.910 -0.4178  1.0253  0.1041
  183SLPC  H15Y21068   2.426   0.888   8.760  0.5342 -3.3607 -0.7346
  183SLPC  C31621069   2.348   0.746   8.896 -0.4245  0.0934  0.2413
  183SLPC  H16X21070   2.244   0.747   8.859  0.1033 -1.1596 -1.4309
  183SLPC  H16Y21071   2.341   0.732   9.006 -1.5661 -0.2399  0.1397
  183SLPC  C31721072   2.423   0.624   8.842  0.7999  0.0648 -0.4526
  183SLPC  H17X21073   2.426   0.630   8.731 -2.1281 -3.1521 -0.8709
  183SLPC  H17Y21074   2.357   0.536   8.836 -0.8471  1.3405 -2.1623
  183SLPC  C31821075   2.560   0.592   8.915  0.1093 -0.1078 -0.1389
  183SLPC  H18X21076   2.594   0.494   8.875  0.1539 -0.8132  1.5730
  183SLPC  H18Y21077   2.535   0.587   9.023  0.6184 -2.7375 -0.0809
  183SLPC  H18Z21078   2.636   0.670   8.894  0.8403 -0.0382  2.5024
  184SLPC     N21079   6.264   0.257  10.837 -0.1472 -0.4858  0.2787
  184SLPC   C1321080   6.125   0.211  10.892  0.6220  1.3664  0.2979
  184SLPC  H13A21081   6.105   0.113  10.850 -3.0253  1.4570  1.4106
  184SLPC  H13B21082   6.119   0.184  10.996 -1.8143 -1.1361 -0.3564
  184SLPC  H13C21083   6.043   0.272  10.857 -0.5680 -1.0658 -1.5635
  184SLPC   C1421084   6.371   0.165  10.891 -0.2012  0.2575  0.1582
  184SLPC  H14A21085   6.471   0.196  10.865 -0.0009 -1.9115 -2.0839
  184SLPC  H14B21086   6.348   0.157  10.996 -1.3015  1.2332  0.0076
  184SLPC  H14C21087   6.350   0.068  10.847  1.8897  1.1354 -3.0892
  184SLPC   C1521088   6.302   0.398  10.879 -0.0849 -0.3141 -0.3329
  184SLPC  H15A21089   6.267   0.476  10.813  1.3098 -0.3847 -1.2029
  184SLPC  H15B21090   6.271   0.422  10.980  3.9174  0.0103  1.0334
  184SLPC  H15C21091   6.410   0.409  10.883 -0.1292  0.8587 -1.5650
  184SLPC   C1221092   6.270   0.243  10.681 -0.2773  0.0233  0.1780
  184SLPC  H12A21093   6.366   0.272  10.642  0.2061 -0.3041  1.0814
  184SLPC  H12B21094   6.202   0.316  10.642  0.9794  1.3012  0.3024
  184SLPC   C1121095   6.243   0.106  10.610  0.1882  0.5369 -0.0350
  184SLPC  H11A21096   6.327   0.043  10.646  0.1733 -0.2228 -1.2614
  184SLPC  H11B21097   6.243   0.122  10.500 -0.0725  0.6729 -0.0155
  184SLPC     P21098   5.977   0.087  10.593 -0.2885  0.0147 -0.0039
  184SLPC   O1321099   5.885   0.097  10.706  0.6857 -0.5619  0.0340
  184SLPC   O1421100   5.991   0.201  10.498 -0.1238  0.4687  0.0616
  184SLPC   O1221101   6.123   0.043  10.649  0.2104 -1.3598 -0.4015
  184SLPC   O1121102   5.941  -0.036  10.502  0.4020 -0.2982  0.8206
  184SLPC    C121103   6.024  -0.096  10.402 -0.2473 -0.3461 -0.7625
  184SLPC    HA21104   6.126  -0.115  10.443 -1.1333  0.4208  1.9957
  184SLPC    HB21105   5.987  -0.200  10.389 -1.8451  0.0844  0.1138
  184SLPC    C221106   6.027  -0.022  10.271  1.0218  0.2743  0.4171
  184SLPC    HS21107   6.083   0.071  10.293  1.1857  1.2358 -3.3631
  184SLPC   O2121108   5.890   0.012  10.239 -0.3729  0.2407  0.4611
  184SLPC   C2121109   5.888   0.112  10.148  0.8451  0.0333 -0.3409
  184SLPC   O2221110   5.984   0.175  10.108 -0.2545  0.1823 -0.4081
  184SLPC   C2221111   5.749   0.135  10.089  0.7184 -0.1972 -0.0266
  184SLPC   H2R21112   5.690   0.041  10.093 -0.9734  0.8539  1.3897
  184SLPC   H2S21113   5.698   0.214  10.148  0.8247 -1.0227  1.2052
  184SLPC    C321114   6.086  -0.113  10.163  0.5412 -0.0172  0.4128
  184SLPC    HX21115   6.184  -0.155  10.192  0.6831  0.1764  0.2145
  184SLPC    HY21116   6.098  -0.054  10.070  0.6267 -1.4108 -0.4932
  184SLPC   O3121117   5.994  -0.220  10.137  0.0628 -0.4119 -1.4184
  184SLPC   C3121118   5.902  -0.213  10.039 -0.5172  0.2947 -0.2898
  184SLPC   O3221119   5.900  -0.125   9.957 -0.7896  0.7707 -0.2779
  184SLPC   C3221120   5.802  -0.328  10.045 -1.4412  0.4021 -0.1352
  184SLPC   H2X21121   5.766  -0.323  10.150 -0.9390  0.7753  0.0233
  184SLPC   H2Y21122   5.853  -0.426  10.029  1.4581  1.6276  0.8119
  184SLPC   C2321123   5.762   0.177   9.948  0.0993 -0.0247  0.1840
  184SLPC   H3R21124   5.833   0.115   9.890  0.0540  0.1319 -0.0393
  184SLPC   H3S21125   5.808   0.278   9.949  0.0049  0.0209 -0.0759
  184SLPC   C2421126   5.628   0.180   9.876  0.4362  0.4883  0.6916
  184SLPC   H4R21127   5.553   0.229   9.941 -0.3177  0.3124 -0.0155
  184SLPC   H4S21128   5.599   0.074   9.854 -1.4879  1.1056  0.0449
  184SLPC   C2521129   5.648   0.244   9.738  0.1554  0.4176 -0.3801
  184SLPC   H5R21130   5.725   0.190   9.678 -0.2053  0.7031 -1.1088
  184SLPC   H5S21131   5.685   0.347   9.757 -1.7827  1.2382 -0.9141
  184SLPC   C2621132   5.528   0.252   9.642 -0.1195 -0.3032 -0.0724
  184SLPC   H6R21133   5.444   0.303   9.694  0.0220  1.2138 -1.2598
  184SLPC   H6S21134   5.486   0.158   9.601 -1.7577  0.8503 -1.1738
  184SLPC   C2721135   5.575   0.333   9.524 -0.0293  0.1368 -0.5354
  184SLPC   H7R21136   5.675   0.292   9.496 -0.8992 -1.9208 -0.8390
  184SLPC   H7S21137   5.591   0.438   9.555  1.8241 -0.6732  1.5433
  184SLPC   C2821138   5.489   0.321   9.400 -0.3319 -0.5267 -0.8272
  184SLPC   H8R21139   5.385   0.341   9.433  0.3233 -1.9581  2.4910
  184SLPC   H8S21140   5.497   0.211   9.383  0.6063 -0.7780  0.9774
  184SLPC   C2921141   5.534   0.408   9.286 -0.3695 -0.3193  0.8916
  184SLPC   H9R21142   5.501   0.509   9.312 -2.8824 -0.5906 -0.8299
  184SLPC  C21021143   5.594   0.384   9.164  0.2369  0.5226 -0.4152
  184SLPC  H10R21144   5.625   0.469   9.102  1.7311 -0.3127 -0.8579
  184SLPC  C21121145   5.636   0.251   9.105 -0.1052 -0.3955 -0.7493
  184SLPC  H11R21146   5.614   0.250   8.996 -0.0221 -0.8658 -0.7676
  184SLPC  H11S21147   5.563   0.176   9.143 -0.7445  0.3747 -0.4570
  184SLPC  C21221148   5.783   0.204   9.122  0.3156 -0.2802 -0.4860
  184SLPC  H12R21149   5.833   0.241   9.213  4.3966 -1.3021 -2.0990
  184SLPC  C21321150   5.851   0.145   9.020 -0.1090 -0.1180 -0.0609
  184SLPC  H13R21151   5.949   0.099   9.042  0.1094  1.1662  1.9631
  184SLPC  C21421152   5.814   0.118   8.876  0.0655  0.6291 -0.9890
  184SLPC  H14R21153   5.796   0.220   8.836 -0.2184  0.3355 -1.6251
  184SLPC  H14S21154   5.714   0.071   8.872 -0.7543  1.8710  2.2172
  184SLPC  C21521155   5.926   0.041   8.801 -0.3585  0.3785  0.4522
  184SLPC  H15R21156   5.953  -0.053   8.853 -0.5008 -1.0834 -1.9837
  184SLPC  H15S21157   6.029   0.083   8.804  0.8003 -2.2678  0.7636
  184SLPC  C21621158   5.900   0.002   8.652  0.1638  0.2391 -0.0424
  184SLPC  H16R21159   5.841   0.081   8.603 -0.1708  0.7303  1.1155
  184SLPC  H16S21160   5.844  -0.094   8.646  0.6439 -0.1565  1.2819
  184SLPC  C21721161   6.029  -0.015   8.571 -0.3712 -0.4218  0.8197
  184SLPC  H17R21162   6.011  -0.058   8.470  3.0592  1.6094 -0.8689
  184SLPC  H17S21163   6.084  -0.096   8.624  1.7443  0.3086 -0.1372
  184SLPC  C21821164   6.110   0.112   8.544 -0.3514  0.0595 -0.3504
  184SLPC  H18R21165   6.050   0.200   8.515 -1.1195  0.0832  1.1815
  184SLPC  H18S21166   6.188   0.101   8.465  1.1825  4.1954  0.3411
  184SLPC  H18T21167   6.165   0.133   8.639 -1.4331 -1.6130  0.7053
  184SLPC   C3321168   5.687  -0.322   9.944 -0.0846  0.1101  0.6294
  184SLPC   H3X21169   5.613  -0.405   9.949 -0.6593  0.4404 -1.5163
  184SLPC   H3Y21170   5.719  -0.333   9.838 -3.1052 -0.4939 -0.3255
  184SLPC   C3421171   5.589  -0.195   9.966 -0.0847  0.3385 -0.0943
  184SLPC   H4X21172   5.654  -0.107   9.946  1.0993 -0.4911  0.0087
  184SLPC   H4Y21173   5.575  -0.188  10.076 -0.1321  0.4227 -0.1047
  184SLPC   C3521174   5.476  -0.202   9.864 -0.0365 -0.6496 -0.2623
  184SLPC   H5X21175   5.410  -0.115   9.882 -2.7454 -2.0272 -2.6379
  184SLPC   H5Y21176   5.416  -0.293   9.886  0.1953 -1.2806 -2.0584
  184SLPC   C3621177   5.517  -0.193   9.719  0.3222  0.2293  1.0431
  184SLPC   H6X21178   5.565  -0.286   9.682  0.5638 -0.2437  2.5072
  184SLPC   H6Y21179   5.594  -0.116   9.696  0.9934 -0.5263  0.7391
  184SLPC   C3721180   5.394  -0.182   9.627 -0.8899 -0.0572 -0.4425
  184SLPC   H7X21181   5.320  -0.102   9.650  0.9258  1.9221 -1.1105
  184SLPC   H7Y21182   5.338  -0.276   9.645  1.9657 -1.1687  4.1957
  184SLPC   C3821183   5.445  -0.165   9.487  0.3401  0.0244 -0.1183
  184SLPC   H8X21184   5.504  -0.256   9.462 -0.8433 -1.2368  1.4568
  184SLPC   H8Y21185   5.505  -0.072   9.488 -1.5984  1.3413 -1.0591
  184SLPC   C3921186   5.343  -0.152   9.376  0.1980 -0.4043 -0.8490
  184SLPC   H9X21187   5.266  -0.085   9.420  1.7323  0.5182  0.5677
  184SLPC   H9Y21188   5.294  -0.251   9.369 -0.0724 -0.3437 -0.0091
  184SLPC  C31021189   5.387  -0.084   9.242 -0.1391  0.0786 -0.2174
  184SLPC  H10X21190   5.454   0.001   9.271  0.6208 -0.7203  0.4408
  184SLPC  H10Y21191   5.298  -0.044   9.189  1.7259  3.6570 -0.9971
  184SLPC  C31121192   5.465  -0.185   9.158  0.6579 -0.1699  0.2484
  184SLPC  H11X21193   5.421  -0.286   9.145  1.9174 -0.8536  1.0962
  184SLPC  H11Y21194   5.561  -0.207   9.209  0.5867  0.5362  0.6981
  184SLPC  C31221195   5.504  -0.131   9.027  0.0934  0.4670 -0.0850
  184SLPC  H12X21196   5.605  -0.172   9.002  0.5104  0.0784  2.0485
  184SLPC  H12Y21197   5.504  -0.020   9.032  1.4921  0.5448 -1.0544
  184SLPC  C31321198   5.402  -0.173   8.915  0.4392 -0.0117 -0.5068
  184SLPC  H13X21199   5.391  -0.283   8.916 -0.8927  0.1018 -0.7813
  184SLPC  H13Y21200   5.463  -0.149   8.825  0.5062  1.2150 -0.1507
  184SLPC  C31421201   5.264  -0.099   8.908 -0.2288 -0.0199 -0.6044
  184SLPC  H14X21202   5.279   0.011   8.899 -0.1841  0.1702  1.3709
  184SLPC  H14Y21203   5.209  -0.114   9.003 -0.3884  1.0705 -0.5108
  184SLPC  C31521204   5.181  -0.160   8.792 -0.0436  0.3332 -0.0776
  184SLPC  H15X21205   5.155  -0.267   8.811  1.5904  0.1356  1.2374
  184SLPC  H15Y21206   5.254  -0.151   8.709  1.2207  1.1283  1.0790
  184SLPC  C31621207   5.047  -0.089   8.785  0.2933 -0.0123 -0.0228
  184SLPC  H16X21208   5.061   0.021   8.784  0.6810 -0.0516  0.4473
  184SLPC  H16Y21209   4.982  -0.111   8.873 -0.4748  2.6604  0.1644
  184SLPC  C31721210   4.977  -0.128   8.652 -0.2440  0.2680  0.6586
  184SLPC  H17X21211   4.877  -0.079   8.652  0.1916  1.2448 -1.0385
  184SLPC  H17Y21212   4.967  -0.237   8.638  0.1715  0.5562 -2.5671
  184SLPC  C31821213   5.047  -0.067   8.524  0.1629  0.0526  0.1561
  184SLPC  H18X21214   5.146  -0.106   8.493 -0.9001  0.6440 -4.8978
  184SLPC  H18Y21215   5.038   0.044   8.529 -1.1070  0.1066 -2.1128
  184SLPC  H18Z21216   4.989  -0.112   8.441  0.9459  0.6219 -0.7166
  185SLPC     N21217   2.398   2.332   6.618  0.0049 -0.1891  0.1818
  185SLPC   C1321218   2.332   2.292   6.486  0.1331 -0.3473  0.5548
  185SLPC  H13A21219   2.394   2.242   6.413 -1.1604 -1.0767 -0.0802
  185SLPC  H13B21220   2.239   2.239   6.499 -0.6506  0.4484 -1.3333
  185SLPC  H13C21221   2.310   2.385   6.436 -1.1017 -0.5471  0.7033
  185SLPC   C1421222   2.430   2.210   6.697 -0.7508 -0.4991 -0.2761
  185SLPC  H14A21223   2.332   2.174   6.727 -1.5907  0.6580 -1.5598
  185SLPC  H14B21224   2.491   2.137   6.646 -1.1022 -0.2886 -0.9960
  185SLPC  H14C21225   2.491   2.236   6.783 -0.1765  0.6404 -1.0127
  185SLPC   C1521226   2.299   2.422   6.705 -0.5725  1.3509 -0.7699
  185SLPC  H15A21227   2.249   2.494   6.642 -2.5668  0.1225 -0.6943
  185SLPC  H15B21228   2.221   2.360   6.745  0.2156  0.7870 -0.0695
  185SLPC  H15C21229   2.347   2.486   6.778  2.7474  2.1710 -3.4035
  185SLPC   C1221230   2.528   2.399   6.579 -0.5641  0.8941 -0.7348
  185SLPC  H12A21231   2.593   2.332   6.525 -0.5809  0.2822 -0.0097
  185SLPC  H12B21232   2.573   2.426   6.674  0.7077 -0.3345 -0.9557
  185SLPC   C1121233   2.526   2.522   6.485  0.3292 -0.0156  0.8105
  185SLPC  H11A21234   2.475   2.494   6.390 -1.1806  1.1348  1.2519
  185SLPC  H11B21235   2.636   2.537   6.473  0.9452 -2.5505  2.5716
  185SLPC     P21236   2.521   2.729   6.659 -0.1612  0.2762  0.2592
  185SLPC   O1321237   2.632   2.799   6.590 -0.1609 -0.2266  0.6274
  185SLPC   O1421238   2.407   2.815   6.706  0.3830  0.0239  0.1012
  185SLPC   O1221239   2.453   2.637   6.545 -0.4412  0.0120  0.1484
  185SLPC   O1121240   2.558   2.618   6.768 -0.1692 -0.0036  0.2917
  185SLPC    C121241   2.697   2.597   6.808 -0.0450 -0.0960  0.0735
  185SLPC    HA21242   2.751   2.539   6.731 -0.2205 -1.9014  1.2635
  185SLPC    HB21243   2.761   2.688   6.813  1.6114 -1.2984  2.2484
  185SLPC    C221244   2.705   2.538   6.953  0.5507 -0.3244  0.1309
  185SLPC    HS21245   2.667   2.434   6.949  2.2636 -0.9936  0.2171
  185SLPC   O2121246   2.626   2.604   7.052  0.1692  0.1786 -0.1729
  185SLPC   C2121247   2.643   2.732   7.089 -0.5295 -0.4203  0.2986
  185SLPC   O2221248   2.707   2.814   7.022 -0.1901 -0.1254  0.1783
  185SLPC   C2221249   2.569   2.770   7.218  0.2956  0.1201  0.1979
  185SLPC   H2R21250   2.614   2.862   7.262 -0.7716  0.6375  0.2378
  185SLPC   H2S21251   2.465   2.798   7.193  0.7512  1.4444 -0.3275
  185SLPC    C321252   2.851   2.549   7.008  0.8209 -0.0332  0.6422
  185SLPC    HX21253   2.885   2.655   7.008  1.0710 -0.1124  0.5756
  185SLPC    HY21254   2.912   2.508   6.925  3.1655  3.1961  0.5863
  185SLPC   O3121255   2.865   2.487   7.141 -0.3434 -0.1480 -0.5869
  185SLPC   C3121256   2.868   2.354   7.142  0.0137  0.3357  0.3811
  185SLPC   O3221257   2.857   2.282   7.044  0.0534  0.5141  0.2302
  185SLPC   C3221258   2.861   2.313   7.284  0.3681  0.2179 -0.7484
  185SLPC   H2X21259   2.761   2.314   7.332  1.0820  2.1769  0.8168
  185SLPC   H2Y21260   2.919   2.389   7.341  1.5740 -0.7420 -0.6600
  185SLPC   C2321261   2.563   2.661   7.324 -0.5078 -0.5746  0.7220
  185SLPC   H3R21262   2.531   2.567   7.275 -0.7182  0.0622 -0.3871
  185SLPC   H3S21263   2.488   2.681   7.403 -0.8401  1.1061  0.0074
  185SLPC   C2421264   2.702   2.638   7.398 -0.0554 -0.9762 -0.5108
  185SLPC   H4R21265   2.786   2.689   7.345 -0.5574 -1.2613 -1.6171
  185SLPC   H4S21266   2.729   2.531   7.403  0.7381 -0.7328  1.0738
  185SLPC   C2521267   2.715   2.698   7.545  0.3204  0.2707  0.0611
  185SLPC   H5R21268   2.671   2.799   7.534  0.2893  0.0787 -1.8438
  185SLPC   H5S21269   2.822   2.712   7.572 -0.5564  1.7817  3.3508
  185SLPC   C2621270   2.645   2.628   7.655  0.9087  0.5781 -0.2374
  185SLPC   H6R21271   2.545   2.588   7.625  1.7064  0.2263 -2.6347
  185SLPC   H6S21272   2.626   2.704   7.733  0.6300  0.6032 -0.3255
  185SLPC   C2721273   2.715   2.506   7.723  1.0920 -0.7604  0.3217
  185SLPC   H7R21274   2.710   2.420   7.652 -1.1732 -0.4986  0.0752
  185SLPC   H7S21275   2.653   2.475   7.810 -0.3916 -0.1593 -0.4809
  185SLPC   C2821276   2.858   2.522   7.772  0.5929 -0.0469  0.3500
  185SLPC   H8R21277   2.918   2.530   7.679 -0.2516 -0.2259 -0.2157
  185SLPC   H8S21278   2.892   2.429   7.822  0.0265 -0.4195  0.0388
  185SLPC   C2921279   2.865   2.645   7.864  0.2593  0.3853  0.3325
  185SLPC   H9R21280   2.867   2.742   7.812 -0.6627  0.5783  0.6365
  185SLPC  C21021281   2.856   2.637   8.001 -0.1627 -0.1867 -0.5322
  185SLPC  H10R21282   2.849   2.731   8.057 -2.5535 -0.9185  0.5007
  185SLPC  C21121283   2.857   2.511   8.086 -0.1994  0.1856 -0.0585
  185SLPC  H11R21284   2.957   2.499   8.133  0.5078  1.7198 -1.1094
  185SLPC  H11S21285   2.840   2.430   8.012 -1.3849 -0.0298  0.4197
  185SLPC  C21221286   2.737   2.501   8.178 -0.4081 -0.1035  0.0472
  185SLPC  H12R21287   2.645   2.546   8.137 -1.0701 -1.8657 -0.4986
  185SLPC  C21321288   2.729   2.443   8.300 -0.6330  0.3207  0.0416
  185SLPC  H13R21289   2.629   2.436   8.346  0.0765  2.4020  2.0991
  185SLPC  C21421290   2.840   2.371   8.376  0.2500 -0.1550  0.3202
  185SLPC  H14R21291   2.923   2.339   8.309  0.0296 -0.9641  0.4243
  185SLPC  H14S21292   2.794   2.272   8.397 -0.3761  0.0745  0.0480
  185SLPC  C21521293   2.880   2.436   8.508 -0.1703 -0.4686  0.0661
  185SLPC  H15R21294   2.789   2.439   8.571 -0.5044 -2.4322 -0.2631
  185SLPC  H15S21295   2.917   2.539   8.491 -0.5874 -0.3906 -0.3985
  185SLPC  C21621296   2.990   2.359   8.586 -0.6421  0.2177 -0.4289
  185SLPC  H16R21297   3.087   2.358   8.532 -0.7900  0.3613 -0.7040
  185SLPC  H16S21298   2.954   2.253   8.587 -1.6787  0.5393 -1.0219
  185SLPC  C21721299   2.987   2.395   8.740  0.3576 -0.0523 -0.0209
  185SLPC  H17R21300   3.077   2.348   8.785  1.7760  1.9924 -0.5924
  185SLPC  H17S21301   2.896   2.356   8.792  0.4561  0.0631  0.2427
  185SLPC  C21821302   3.004   2.537   8.787  0.4929 -0.2122  0.6604
  185SLPC  H18R21303   2.997   2.537   8.898 -2.6049  0.9263  0.5499
  185SLPC  H18S21304   2.925   2.602   8.743  0.8645 -0.1380  0.0910
  185SLPC  H18T21305   3.104   2.581   8.763 -0.7914  2.2752 -0.4691
  185SLPC   C3321306   2.923   2.167   7.310 -0.9647 -0.0775  0.4697
  185SLPC   H3X21307   3.028   2.205   7.315 -0.8441 -0.1334 -1.0583
  185SLPC   H3Y21308   2.916   2.087   7.233  1.6121 -0.2488  0.3269
  185SLPC   C3421309   2.873   2.113   7.438 -0.1634  0.3395  0.3952
  185SLPC   H4X21310   2.904   2.006   7.432  0.9751  0.6478  0.6003
  185SLPC   H4Y21311   2.762   2.108   7.442 -0.1030 -1.2750  4.4420
  185SLPC   C3521312   2.924   2.155   7.579 -0.2487 -0.2079 -0.5231
  185SLPC   H5X21313   2.901   2.263   7.595  3.4355  0.8043 -0.9913
  185SLPC   H5Y21314   3.035   2.159   7.580 -0.2610  0.0760  0.3210
  185SLPC   C3621315   2.868   2.070   7.693 -0.1178  0.2130 -0.2187
  185SLPC   H6X21316   2.888   1.962   7.675  0.4020  0.6899 -2.9653
  185SLPC   H6Y21317   2.757   2.079   7.694  0.0338  3.1146  0.2885
  185SLPC   C3721318   2.931   2.111   7.826  0.7578  0.7576 -0.2560
  185SLPC   H7X21319   2.884   2.206   7.862  0.4353  0.5987 -0.2489
  185SLPC   H7Y21320   3.039   2.136   7.819  1.1312 -0.6593  0.0822
  185SLPC   C3821321   2.908   2.008   7.934  0.0008  0.3556  0.3381
  185SLPC   H8X21322   2.974   1.922   7.913  1.3317  1.3381  0.3646
  185SLPC   H8Y21323   2.806   1.964   7.936 -0.2298  0.6618 -2.0177
  185SLPC   C3921324   2.951   2.063   8.075 -0.1637 -0.5852 -0.0537
  185SLPC   H9X21325   2.891   2.153   8.102 -2.2868 -1.4378 -1.6397
  185SLPC   H9Y21326   3.058   2.090   8.065  0.0258 -0.8813  1.0962
  185SLPC  C31021327   2.933   1.958   8.183 -0.1797  0.1309  0.1918
  185SLPC  H10X21328   2.994   1.870   8.151  0.6512 -0.0603  2.1824
  185SLPC  H10Y21329   2.825   1.932   8.193 -0.6313  1.5518 -0.6976
  185SLPC  C31121330   2.979   1.998   8.328  0.7341 -0.3418  0.1844
  185SLPC  H11X21331   2.982   1.914   8.401  0.7176  0.0345  0.6227
  185SLPC  H11Y21332   2.921   2.085   8.366  0.5599 -0.7415  0.8534
  185SLPC  C31221333   3.127   2.028   8.336 -0.2919 -0.5213  0.0995
  185SLPC  H12X21334   3.122   2.137   8.316  0.1629 -0.3844  0.6913
  185SLPC  H12Y21335   3.182   1.976   8.255  2.9798  1.0437  1.1345
  185SLPC  C31321336   3.196   2.019   8.474 -0.2892  0.4800 -0.3503
  185SLPC  H13X21337   3.146   2.072   8.559 -0.9717 -1.0312  0.2343
  185SLPC  H13Y21338   3.298   2.058   8.455 -0.0143 -0.1857 -0.2597
  185SLPC  C31421339   3.225   1.870   8.511  0.0072 -0.0712 -0.9070
  185SLPC  H14X21340   3.278   1.812   8.432  1.4360 -1.2849  0.8528
  185SLPC  H14Y21341   3.129   1.819   8.530 -1.2048  2.6379  0.8916
  185SLPC  C31521342   3.309   1.869   8.634  0.4075  0.2230 -0.0263
  185SLPC  H15X21343   3.384   1.943   8.601 -1.6358  0.3956 -5.1649
  185SLPC  H15Y21344   3.351   1.766   8.636  0.0203  0.0474 -0.7346
  185SLPC  C31621345   3.244   1.903   8.764  0.1651  0.8100 -1.0955
  185SLPC  H16X21346   3.150   1.845   8.776  1.0975 -0.2662  2.2542
  185SLPC  H16Y21347   3.208   2.008   8.769  1.3303  1.2967 -2.4868
  185SLPC  C31721348   3.327   1.864   8.884 -0.6829 -0.7781 -0.4273
  185SLPC  H17X21349   3.283   1.894   8.981  2.8663  0.7361  0.9209
  185SLPC  H17Y21350   3.418   1.927   8.875 -1.8071  0.7140 -1.9672
  185SLPC  C31821351   3.370   1.719   8.897 -0.2100  0.6037 -0.3757
  185SLPC  H18X21352   3.441   1.717   8.982  1.2722 -1.3911 -1.5666
  185SLPC  H18Y21353   3.435   1.678   8.816 -1.1955 -0.6127 -0.5927
  185SLPC  H18Z21354   3.286   1.647   8.911  0.0507  0.2840 -0.4256
  186SLPC     N21355   2.619   6.669   6.337  0.5467  0.3993  0.9588
  186SLPC   C1321356   2.578   6.661   6.481  0.2689 -0.3955 -0.2629
  186SLPC  H13A21357   2.654   6.615   6.543 -0.3321  0.4873  1.1722
  186SLPC  H13B21358   2.549   6.754   6.526  1.0353 -0.7685  1.0667
  186SLPC  H13C21359   2.488   6.601   6.480 -0.3622  0.5170  0.5103
  186SLPC   C1421360   2.728   6.769   6.316 -0.1437 -0.1566  0.6229
  186SLPC  H14A21361   2.749   6.782   6.211 -0.4265 -1.9416  0.3051
  186SLPC  H14B21362   2.705   6.865   6.359 -0.9011 -0.3622  0.6865
  186SLPC  H14C21363   2.824   6.743   6.359  1.3586  2.6024 -0.7977
  186SLPC   C1521364   2.502   6.712   6.261 -0.0749 -0.5670 -0.3789
  186SLPC  H15A21365   2.414   6.651   6.274 -1.1849  0.8911 -0.7109
  186SLPC  H15B21366   2.464   6.807   6.298 -3.1331 -1.0306 -1.9440
  186SLPC  H15C21367   2.518   6.722   6.154 -1.0180 -2.7751 -0.7839
  186SLPC   C1221368   2.667   6.526   6.283  0.2487  0.5518  0.1826
  186SLPC  H12A21369   2.761   6.491   6.324 -0.4466 -2.0186 -0.2920
  186SLPC  H12B21370   2.690   6.544   6.179  0.4708 -0.4246  0.0564
  186SLPC   C1121371   2.578   6.398   6.306  0.0745 -0.3772  0.0866
  186SLPC  H11A21372   2.570   6.370   6.413  1.0230 -2.8040 -0.4138
  186SLPC  H11B21373   2.637   6.314   6.263 -1.6374 -1.5383 -0.0835
  186SLPC     P21374   2.319   6.397   6.310 -0.1535 -0.6791 -0.2499
  186SLPC   O1321375   2.265   6.528   6.356  0.2837  0.3917 -0.3370
  186SLPC   O1421376   2.228   6.317   6.224 -0.3245  0.8444 -0.6882
  186SLPC   O1221377   2.455   6.409   6.231 -0.1531  0.3890  0.5788
  186SLPC   O1121378   2.361   6.310   6.438 -0.3752 -0.4730  0.2126
  186SLPC    C121379   2.367   6.169   6.429  0.0561 -0.4986  0.2918
  186SLPC    HA21380   2.270   6.129   6.392  0.0731 -0.8824  0.6556
  186SLPC    HB21381   2.431   6.135   6.344 -0.6717  0.7519 -0.7931
  186SLPC    C221382   2.411   6.106   6.558 -0.9105  0.5966 -0.4984
  186SLPC    HS21383   2.373   6.002   6.562  1.5722 -0.3392  1.3411
  186SLPC   O2121384   2.362   6.174   6.677  0.3883 -0.0216 -0.7998
  186SLPC   C2121385   2.231   6.160   6.697  0.7442  0.2819  0.1983
  186SLPC   O2221386   2.154   6.109   6.614 -0.3312 -0.6957 -0.3224
  186SLPC   C2221387   2.189   6.189   6.843 -0.5697 -0.4165  0.0560
  186SLPC   H2R21388   2.106   6.261   6.827  0.4093  1.3472  2.3607
  186SLPC   H2S21389   2.144   6.097   6.887 -4.6822  1.3838  0.0674
  186SLPC    C321390   2.567   6.094   6.566 -0.1424  0.1572 -0.2457
  186SLPC    HX21391   2.616   6.182   6.520 -0.1081 -0.0206 -0.5555
  186SLPC    HY21392   2.591   6.008   6.500  2.1290  0.1621  0.4758
  186SLPC   O3121393   2.618   6.063   6.701 -0.1739 -0.0164 -0.3204
  186SLPC   C3121394   2.673   6.160   6.762 -0.1564 -0.1282 -0.3394
  186SLPC   O3221395   2.690   6.275   6.723  0.3565 -0.1447 -1.0815
  186SLPC   C3221396   2.728   6.109   6.896  1.1237  0.5437  0.1529
  186SLPC   H2X21397   2.657   6.103   6.982  0.5099 -0.3418 -0.3988
  186SLPC   H2Y21398   2.803   6.184   6.929  1.7342  0.4311 -0.9298
  186SLPC   C2321399   2.298   6.255   6.935 -0.0959  0.4247  0.1782
  186SLPC   H3R21400   2.335   6.356   6.909  0.7898  0.0910  0.0806
  186SLPC   H3S21401   2.389   6.191   6.932 -0.3453  0.1013 -0.7033
  186SLPC   C2421402   2.247   6.268   7.077  0.3060  0.0829  0.5395
  186SLPC   H4R21403   2.245   6.163   7.113 -0.0996  0.3415  1.2930
  186SLPC   H4S21404   2.147   6.314   7.094 -0.6268 -1.0162 -1.6416
  186SLPC   C2521405   2.341   6.338   7.166  0.0118 -1.0379 -0.6038
  186SLPC   H5R21406   2.360   6.441   7.129  0.7856 -1.0275 -0.2113
  186SLPC   H5S21407   2.439   6.285   7.174  0.8506  0.4163 -0.8338
  186SLPC   C2621408   2.301   6.352   7.319  0.6170 -0.4923  0.1470
  186SLPC   H6R21409   2.275   6.250   7.355  0.3604 -0.2034  0.8009
  186SLPC   H6S21410   2.210   6.416   7.323  0.3881 -0.6917 -1.3600
  186SLPC   C2721411   2.406   6.421   7.403 -0.6827 -0.3179 -0.2316
  186SLPC   H7R21412   2.412   6.522   7.359 -1.0337  0.5163  1.5333
  186SLPC   H7S21413   2.501   6.364   7.398 -0.4917  0.0874 -1.8488
  186SLPC   C2821414   2.373   6.438   7.550 -0.4028 -0.2125  0.3204
  186SLPC   H8R21415   2.380   6.337   7.597 -0.7927 -1.5545 -2.2903
  186SLPC   H8S21416   2.267   6.469   7.552 -0.7499 -0.4779 -4.1500
  186SLPC   C2921417   2.466   6.530   7.624  0.1131  0.0630  0.5716
  186SLPC   H9R21418   2.492   6.621   7.567 -0.5862 -1.1054 -1.7714
  186SLPC  C21021419   2.508   6.515   7.747  0.0758 -0.3657  0.1765
  186SLPC  H10R21420   2.570   6.594   7.792 -2.1776  0.4566  2.0322
  186SLPC  C21121421   2.487   6.403   7.842 -0.3326 -0.8666 -0.6212
  186SLPC  H11R21422   2.565   6.332   7.805  0.2213  0.5088 -2.2349
  186SLPC  H11S21423   2.386   6.357   7.834  0.2179 -2.1147 -0.5617
  186SLPC  C21221424   2.514   6.456   7.982  0.0207  0.5763  0.2919
  186SLPC  H12R21425   2.619   6.448   8.015  1.2016  0.2581 -3.1614
  186SLPC  C21321426   2.424   6.502   8.073  0.1652  0.0964 -0.5982
  186SLPC  H13R21427   2.452   6.538   8.173  1.2605 -0.9256 -0.5195
  186SLPC  C21421428   2.277   6.500   8.037 -0.2314  0.2180 -0.1866
  186SLPC  H14R21429   2.251   6.496   7.929 -1.3629 -0.9217  0.1170
  186SLPC  H14S21430   2.231   6.593   8.076 -2.2257 -1.8409  2.7504
  186SLPC  C21521431   2.192   6.397   8.124 -0.1097 -0.0582  0.2166
  186SLPC  H15R21432   2.231   6.294   8.111 -1.1374 -0.3151 -1.1370
  186SLPC  H15S21433   2.083   6.389   8.100 -0.3702  1.6015  0.7384
  186SLPC  C21621434   2.179   6.435   8.275 -0.3638 -0.3230 -0.0207
  186SLPC  H16R21435   2.128   6.533   8.288  1.3959  0.7399 -0.8231
  186SLPC  H16S21436   2.283   6.435   8.314 -0.9059  1.0232  1.5553
  186SLPC  C21721437   2.093   6.335   8.352 -0.5820 -0.3794  0.1644
  186SLPC  H17R21438   2.139   6.234   8.347  1.0783  0.2760  1.2910
  186SLPC  H17S21439   1.993   6.334   8.303 -0.8366  1.2233  0.5875
  186SLPC  C21821440   2.081   6.380   8.503 -0.2306 -0.9324 -0.0986
  186SLPC  H18R21441   2.151   6.464   8.523 -2.4953  0.6186  1.8935
  186SLPC  H18S21442   2.107   6.292   8.565  0.7418  0.4404  1.5423
  186SLPC  H18T21443   1.979   6.419   8.525  0.3334  0.0681  0.8371
  186SLPC   C3321444   2.804   5.977   6.882  0.0505  0.8707  0.0026
  186SLPC   H3X21445   2.872   5.976   6.794 -0.6451  2.3074 -0.5979
  186SLPC   H3Y21446   2.732   5.896   6.859  1.5897 -0.4842 -0.2622
  186SLPC   C3421447   2.897   5.930   7.002  0.5492 -0.6301 -0.0036
  186SLPC   H4X21448   2.957   5.839   6.977  2.2627  0.4800 -0.1409
  186SLPC   H4Y21449   2.837   5.882   7.082 -0.7382 -1.3034 -1.3196
  186SLPC   C3521450   2.992   6.040   7.045 -0.2182  0.7082 -0.4225
  186SLPC   H5X21451   2.939   6.132   7.078 -0.2506  0.4154  0.3783
  186SLPC   H5Y21452   3.053   6.091   6.968  1.0439  1.0572  0.7572
  186SLPC   C3621453   3.093   6.002   7.157  0.2744  0.2817  0.2582
  186SLPC   H6X21454   3.173   6.078   7.173 -0.0223  0.6818 -0.1562
  186SLPC   H6Y21455   3.142   5.904   7.137 -1.0908 -0.9330  2.3916
  186SLPC   C3721456   3.031   5.982   7.298 -0.1120 -0.1893  0.3193
  186SLPC   H7X21457   2.943   5.915   7.290 -0.3932  0.1691  0.4163
  186SLPC   H7Y21458   3.000   6.082   7.335 -0.1027  0.5342 -1.5173
  186SLPC   C3821459   3.125   5.911   7.401  0.3949  0.1894  0.1368
  186SLPC   H8X21460   3.216   5.972   7.416  1.4720 -1.9093  3.1400
  186SLPC   H8Y21461   3.158   5.813   7.359  1.3765  0.5484  0.0428
  186SLPC   C3921462   3.060   5.896   7.535  0.2578 -0.0181 -0.4334
  186SLPC   H9X21463   2.956   5.860   7.521 -1.6067  3.5018  2.7695
  186SLPC   H9Y21464   3.049   5.995   7.584 -1.7242 -0.2721 -0.2920
  186SLPC  C31021465   3.150   5.816   7.634 -0.3586 -0.3447  0.1908
  186SLPC  H10X21466   3.250   5.857   7.614  0.1850 -1.0145  1.4001
  186SLPC  H10Y21467   3.147   5.707   7.610 -0.4564 -0.3697  0.3142
  186SLPC  C31121468   3.117   5.838   7.787 -0.2070  0.7717  0.7515
  186SLPC  H11X21469   3.126   5.948   7.801  2.6813  1.0115 -1.9521
  186SLPC  H11Y21470   3.198   5.792   7.848 -0.1010 -1.4749 -0.9479
  186SLPC  C31221471   2.973   5.787   7.818  0.3123  0.0295 -0.1877
  186SLPC  H12X21472   2.966   5.680   7.787  1.4326  0.3501 -1.6896
  186SLPC  H12Y21473   2.903   5.838   7.748  1.2638 -1.7815 -2.6262
  186SLPC  C31321474   2.934   5.812   7.964  0.5838 -1.1425  0.3002
  186SLPC  H13X21475   2.826   5.787   7.967  0.9069 -3.1576 -2.0323
  186SLPC  H13Y21476   2.958   5.919   7.986  0.9825 -0.9388 -1.0526
  186SLPC  C31421477   3.011   5.723   8.058 -0.1779  0.2264 -0.2131
  186SLPC  H14X21478   3.117   5.739   8.028 -0.8506 -1.0617 -3.7904
  186SLPC  H14Y21479   3.000   5.617   8.026 -0.8877  0.1755  0.1733
  186SLPC  C31521480   2.972   5.751   8.203 -0.3731 -0.0794  0.0029
  186SLPC  H15X21481   2.864   5.735   8.219 -0.3818  0.5505  0.6227
  186SLPC  H15Y21482   2.992   5.859   8.221 -0.9209 -0.2771  2.1056
  186SLPC  C31621483   3.037   5.654   8.306  0.3467  0.5095 -0.8727
  186SLPC  H16X21484   3.146   5.670   8.320  0.9355 -2.1125 -1.7772
  186SLPC  H16Y21485   3.029   5.553   8.261 -1.3300  0.5640 -0.7368
  186SLPC  C31721486   2.977   5.674   8.451  1.0805  0.0859 -0.0526
  186SLPC  H17X21487   2.869   5.649   8.444  0.6393  1.7218  0.3123
  186SLPC  H17Y21488   2.984   5.781   8.480  0.8612  0.0396  0.1730
  186SLPC  C31821489   3.060   5.596   8.554  0.5609  0.5741  0.4260
  186SLPC  H18X21490   3.024   5.616   8.657  0.6987 -0.4663  0.6899
  186SLPC  H18Y21491   3.169   5.612   8.539  0.5854 -0.4595 -0.6569
  186SLPC  H18Z21492   3.036   5.488   8.544  2.6089  0.0908  0.2763
  187SLPC     N21493   4.240   1.155   6.560 -0.1366 -0.3058 -1.0781
  187SLPC   C1321494   4.303   1.211   6.441 -1.4595  0.2821 -0.0530
  187SLPC  H13A21495   4.367   1.297   6.457 -1.4173  0.2651 -0.1307
  187SLPC  H13B21496   4.346   1.129   6.386 -2.0741 -0.4676  0.5775
  187SLPC  H13C21497   4.230   1.254   6.373 -2.1619  0.3195  0.7043
  187SLPC   C1421498   4.336   1.066   6.636 -0.0191  0.3492  0.3649
  187SLPC  H14A21499   4.376   0.994   6.566 -0.8749 -1.6053  1.7859
  187SLPC  H14B21500   4.412   1.129   6.680 -0.6476  0.0013  1.9962
  187SLPC  H14C21501   4.306   1.008   6.722 -0.2080 -0.2702 -0.1111
  187SLPC   C1521502   4.120   1.069   6.505 -0.5619  0.2208 -0.2399
  187SLPC  H15A21503   4.052   1.039   6.584 -0.8972 -0.0771 -0.6377
  187SLPC  H15B21504   4.058   1.129   6.440 -0.4708 -1.0995 -1.6165
  187SLPC  H15C21505   4.161   0.986   6.449 -0.6987 -1.5569  2.1116
  187SLPC   C1221506   4.184   1.259   6.653 -0.5971 -0.2725  0.1977
  187SLPC  H12A21507   4.126   1.212   6.731 -0.0884 -0.1481  0.6639
  187SLPC  H12B21508   4.113   1.323   6.602 -0.2219  0.0827  0.1107
  187SLPC   C1121509   4.279   1.359   6.727 -0.3886  0.2535 -0.0986
  187SLPC  H11A21510   4.346   1.287   6.780 -2.2883 -1.0685  0.6314
  187SLPC  H11B21511   4.210   1.422   6.787 -2.3466  1.0271 -2.9511
  187SLPC     P21512   4.319   1.580   6.595  0.2133  0.2603 -0.1480
  187SLPC   O1321513   4.415   1.633   6.497  0.0138 -0.0014 -0.5037
  187SLPC   O1421514   4.185   1.571   6.537  0.5698  0.4520 -0.9890
  187SLPC   O1221515   4.365   1.440   6.645  0.5466  0.5032 -0.2271
  187SLPC   O1121516   4.322   1.678   6.716  0.0121  0.4964  0.4293
  187SLPC    C121517   4.446   1.699   6.786  0.5287  0.0866  0.0734
  187SLPC    HA21518   4.535   1.690   6.721  0.1852 -0.2498 -0.3544
  187SLPC    HB21519   4.451   1.803   6.825 -1.3601 -0.6486  2.5441
  187SLPC    C221520   4.469   1.599   6.904  0.6863  0.3483  0.2269
  187SLPC    HS21521   4.444   1.500   6.859 -0.3544 -0.5806  2.6658
  187SLPC   O2121522   4.375   1.632   7.009 -0.7773  0.2114 -0.6177
  187SLPC   C2121523   4.319   1.525   7.065  0.0305  0.3791  0.0278
  187SLPC   O2221524   4.345   1.408   7.049  0.0196  0.0628  0.2886
  187SLPC   C2221525   4.203   1.580   7.158 -0.7800  0.4669  0.6829
  187SLPC   H2R21526   4.156   1.664   7.103  0.2157  1.2037  0.9301
  187SLPC   H2S21527   4.116   1.511   7.166 -1.2732  1.2567  3.4461
  187SLPC    C321528   4.616   1.612   6.951 -0.2383  0.3466  0.2946
  187SLPC    HX21529   4.637   1.717   6.980  0.0837  0.0762  1.0628
  187SLPC    HY21530   4.688   1.604   6.867 -0.3671  0.3831  0.1816
  187SLPC   O3121531   4.652   1.521   7.053 -0.2946  0.0510  0.0041
  187SLPC   C3121532   4.658   1.398   7.016 -0.2040 -0.4091  0.0608
  187SLPC   O3221533   4.632   1.351   6.905 -0.3047  0.0777 -0.0608
  187SLPC   C3221534   4.715   1.320   7.131  0.0081  0.4825 -0.3745
  187SLPC   H2X21535   4.642   1.328   7.215 -1.6908  0.0560 -1.7659
  187SLPC   H2Y21536   4.815   1.358   7.165  0.8795 -2.7070  0.9937
  187SLPC   C2321537   4.254   1.622   7.300  0.8335 -0.2158  0.4112
  187SLPC   H3R21538   4.309   1.717   7.288 -1.6659  1.1725 -0.8310
  187SLPC   H3S21539   4.328   1.546   7.333  2.2115  0.6854 -0.5023
  187SLPC   C2421540   4.118   1.642   7.383 -0.5203 -0.0758 -0.2712
  187SLPC   H4R21541   4.049   1.555   7.389 -0.2218 -0.4968 -2.2690
  187SLPC   H4S21542   4.072   1.724   7.323 -0.5180  0.2137  0.1224
  187SLPC   C2521543   4.156   1.671   7.523 -0.3373 -0.3544 -0.0949
  187SLPC   H5R21544   4.058   1.695   7.570 -0.3932 -0.2195 -0.2847
  187SLPC   H5S21545   4.230   1.753   7.533 -0.0428 -0.7313  1.0800
  187SLPC   C2621546   4.207   1.559   7.619 -0.8688 -1.0340  0.3882
  187SLPC   H6R21547   4.304   1.527   7.574 -0.9194  0.7354 -1.0900
  187SLPC   H6S21548   4.129   1.480   7.614 -0.8259 -1.0770  0.3917
  187SLPC   C2721549   4.220   1.618   7.760  0.0496  0.2261 -0.5651
  187SLPC   H7R21550   4.126   1.640   7.813  0.1606  0.3312 -0.4100
  187SLPC   H7S21551   4.275   1.715   7.758 -1.6084  1.2034 -0.4100
  187SLPC   C2821552   4.316   1.546   7.850 -0.3074  0.5522  0.1532
  187SLPC   H8R21553   4.319   1.596   7.949  0.7555 -0.0848  0.4428
  187SLPC   H8S21554   4.419   1.544   7.808 -0.7559  4.9532 -1.8488
  187SLPC   C2921555   4.262   1.411   7.871  0.4557  0.3230  0.1105
  187SLPC   H9R21556   4.216   1.360   7.785  3.0934 -1.3666 -0.4166
  187SLPC  C21021557   4.237   1.364   7.992 -0.2733  0.3364  0.3988
  187SLPC  H10R21558   4.182   1.270   8.008 -1.5664  0.9794 -0.0913
  187SLPC  C21121559   4.271   1.424   8.129 -0.6075 -0.2866 -0.1504
  187SLPC  H11R21560   4.362   1.488   8.124 -0.0386 -0.9971  0.7877
  187SLPC  H11S21561   4.295   1.333   8.189 -0.6830 -0.6009 -0.5901
  187SLPC  C21221562   4.168   1.512   8.190  0.0863 -0.5519 -0.1845
  187SLPC  H12R21563   4.096   1.559   8.121 -2.0777 -1.2005  1.4941
  187SLPC  C21321564   4.137   1.516   8.321 -0.1162  0.5528  0.3108
  187SLPC  H13R21565   4.068   1.594   8.354 -1.7622 -1.3588  1.6095
  187SLPC  C21421566   4.215   1.439   8.429 -0.5433 -0.4164  0.4882
  187SLPC  H14R21567   4.233   1.509   8.514  2.7660  0.2272 -0.5863
  187SLPC  H14S21568   4.311   1.398   8.391 -0.3633 -1.2410  1.7644
  187SLPC  C21521569   4.137   1.319   8.473  0.3009  0.0281  0.2884
  187SLPC  H15R21570   4.092   1.268   8.385  1.8714 -2.1934  0.6957
  187SLPC  H15S21571   4.051   1.357   8.532  0.3540 -1.1971  1.1956
  187SLPC  C21621572   4.218   1.209   8.544  0.6915  0.7703 -0.1702
  187SLPC  H16R21573   4.271   1.249   8.633 -0.2148  3.6094 -0.8307
  187SLPC  H16S21574   4.295   1.170   8.474 -0.1401  0.1886 -0.7775
  187SLPC  C21721575   4.140   1.083   8.581  0.1587  0.5930 -0.5822
  187SLPC  H17R21576   4.081   1.057   8.490  3.4825 -1.3393 -2.3995
  187SLPC  H17S21577   4.069   1.105   8.663 -0.5014  0.0670 -0.9985
  187SLPC  C21821578   4.229   0.970   8.627  0.0605 -0.3741 -0.3173
  187SLPC  H18R21579   4.224   0.975   8.738  0.5472 -1.9868 -0.1887
  187SLPC  H18S21580   4.333   0.986   8.593  0.0788 -0.7951 -0.4663
  187SLPC  H18T21581   4.192   0.874   8.584 -3.5167  0.6011  0.2984
  187SLPC   C3321582   4.741   1.168   7.111  0.1868 -0.5345  0.0420
  187SLPC   H3X21583   4.807   1.132   7.193  1.2198 -0.4752 -0.7437
  187SLPC   H3Y21584   4.783   1.157   7.009 -2.2468 -1.1087 -0.9667
  187SLPC   C3421585   4.618   1.078   7.111  0.0904 -0.4364  0.2290
  187SLPC   H4X21586   4.653   0.982   7.068 -0.1671  0.2708 -1.6468
  187SLPC   H4Y21587   4.537   1.125   7.052 -0.0408 -1.0155 -0.0517
  187SLPC   C3521588   4.551   1.043   7.246 -0.0460  0.4147 -0.1732
  187SLPC   H5X21589   4.631   1.041   7.322  0.6798 -0.2314 -0.9313
  187SLPC   H5Y21590   4.498   0.946   7.254  0.2266  0.3761  1.5122
  187SLPC   C3621591   4.440   1.138   7.295  0.0705  0.9101  0.1575
  187SLPC   H6X21592   4.345   1.101   7.252  0.0069 -1.1402  1.8888
  187SLPC   H6Y21593   4.467   1.238   7.253 -0.4274  0.7764 -0.4911
  187SLPC   C3721594   4.428   1.156   7.445  0.4660  0.1626  0.5002
  187SLPC   H7X21595   4.525   1.169   7.498  0.6985 -1.9081  0.6651
  187SLPC   H7Y21596   4.370   1.250   7.456  3.1325  2.1114 -0.9480
  187SLPC   C3821597   4.357   1.033   7.507  0.1322 -0.4623  0.3701
  187SLPC   H8X21598   4.429   0.951   7.485  1.2739  0.8170 -0.9514
  187SLPC   H8Y21599   4.263   1.008   7.454 -1.5675 -0.9458  3.4157
  187SLPC   C3921600   4.319   1.062   7.656  0.5490 -0.2330  0.6174
  187SLPC   H9X21601   4.265   1.159   7.666 -0.5139 -0.9636  2.7337
  187SLPC   H9Y21602   4.408   1.079   7.719  0.1735  0.1316  1.0621
  187SLPC  C31021603   4.222   0.953   7.713  0.4177  0.0743  0.0168
  187SLPC  H10X21604   4.288   0.864   7.723 -1.6108 -1.7435 -1.8299
  187SLPC  H10Y21605   4.144   0.936   7.636  1.3607 -0.9054 -0.7658
  187SLPC  C31121606   4.180   0.989   7.857  0.1977 -0.2404  0.3816
  187SLPC  H11X21607   4.119   1.081   7.849 -0.4309 -0.6413  0.4728
  187SLPC  H11Y21608   4.276   1.008   7.909  0.0772 -1.0598  0.9268
  187SLPC  C31221609   4.115   0.873   7.930  0.6970  0.5905 -0.9489
  187SLPC  H12X21610   4.178   0.785   7.905 -1.5625 -0.9423 -1.5334
  187SLPC  H12Y21611   4.012   0.855   7.891  0.8142  0.8745 -1.3935
  187SLPC  C31321612   4.123   0.883   8.080 -0.8405  0.0653  0.6800
  187SLPC  H13X21613   4.061   0.968   8.114 -0.7052 -0.0951  1.3306
  187SLPC  H13Y21614   4.227   0.886   8.119 -0.5876 -3.5592  0.6398
  187SLPC  C31421615   4.067   0.752   8.136  0.2204  0.9117  0.4323
  187SLPC  H14X21616   4.116   0.671   8.078 -0.3812  0.5731  0.3899
  187SLPC  H14Y21617   3.959   0.753   8.109  0.2599  0.6262  0.2568
  187SLPC  C31521618   4.069   0.727   8.286  0.2188  0.3655  0.2911
  187SLPC  H15X21619   4.031   0.815   8.341 -2.0603  0.3565 -1.1700
  187SLPC  H15Y21620   4.179   0.722   8.302  0.5734  3.8691 -0.2522
  187SLPC  C31621621   4.001   0.592   8.333  0.1919  0.3469  0.7044
  187SLPC  H16X21622   4.031   0.498   8.282 -2.3275  0.1093 -0.4823
  187SLPC  H16Y21623   3.894   0.609   8.310  0.3784 -1.4690 -1.9104
  187SLPC  C31721624   4.032   0.585   8.482 -0.6244  0.3046  1.0201
  187SLPC  H17X21625   3.984   0.667   8.540 -0.8972  0.9038 -0.0257
  187SLPC  H17Y21626   4.142   0.595   8.492 -0.2837 -1.6603 -0.2742
  187SLPC  C31821627   4.003   0.455   8.548 -0.4469  0.1740 -0.2776
  187SLPC  H18X21628   4.027   0.456   8.657  1.3652 -1.5486 -0.6105
  187SLPC  H18Y21629   4.073   0.377   8.512 -1.7705 -1.3338  0.2530
  187SLPC  H18Z21630   3.897   0.426   8.528 -0.3995 -0.0126 -0.2624
  188SLPC     N21631   5.340   1.220   6.200  0.1104 -0.0370 -0.4064
  188SLPC   C1321632   5.405   1.281   6.079 -0.0040  0.4918 -0.5962
  188SLPC  H13A21633   5.426   1.387   6.087  0.7606  0.2750  0.4856
  188SLPC  H13B21634   5.498   1.230   6.057 -0.7971 -1.2260 -0.1516
  188SLPC  H13C21635   5.355   1.264   5.985  0.8169  1.6235 -1.2576
  188SLPC   C1421636   5.331   1.071   6.179  0.1444 -0.1664 -0.1463
  188SLPC  H14A21637   5.275   1.012   6.250  1.1130 -2.4395 -1.1500
  188SLPC  H14B21638   5.283   1.055   6.083 -0.5131 -1.6375  0.4042
  188SLPC  H14C21639   5.431   1.030   6.185  1.0869  2.0300  0.0721
  188SLPC   C1521640   5.199   1.263   6.207 -0.2216  0.2831 -0.6863
  188SLPC  H15A21641   5.140   1.222   6.126 -0.9043  0.4918 -0.3004
  188SLPC  H15B21642   5.146   1.242   6.299  3.7471 -0.7375  1.6063
  188SLPC  H15C21643   5.195   1.369   6.189 -2.3772  0.4784  0.6031
  188SLPC   C1221644   5.423   1.251   6.323 -0.4249  0.2750 -0.1735
  188SLPC  H12A21645   5.413   1.356   6.346 -1.6542 -0.1400  1.3883
  188SLPC  H12B21646   5.527   1.239   6.295 -0.1660  0.1692  0.7970
  188SLPC   C1121647   5.397   1.176   6.456  0.0355  0.0873  0.0457
  188SLPC  H11A21648   5.475   1.208   6.529  0.3381 -2.6155  1.0428
  188SLPC  H11B21649   5.410   1.066   6.446 -1.0974 -0.1013  0.4073
  188SLPC     P21650   5.247   1.342   6.590 -0.6209 -0.3557 -0.2516
  188SLPC   O1321651   5.310   1.452   6.512 -0.5786  0.7267 -0.9397
  188SLPC   O1421652   5.104   1.353   6.631  0.7176 -0.4902 -0.1124
  188SLPC   O1221653   5.267   1.210   6.511  0.1120  0.3012 -0.6282
  188SLPC   O1121654   5.335   1.313   6.720 -0.2645 -0.6689 -0.6480
  188SLPC    C121655   5.284   1.223   6.818  0.3995 -0.0132  0.1628
  188SLPC    HA21656   5.237   1.135   6.769 -0.7659  1.8093 -2.2414
  188SLPC    HB21657   5.372   1.190   6.877  0.0271  1.3580  1.5546
  188SLPC    C221658   5.177   1.264   6.925  0.3565 -0.5831 -1.0777
  188SLPC    HS21659   5.081   1.293   6.877  0.1573 -1.1034 -0.9985
  188SLPC   O2121660   5.232   1.368   7.007  0.0356  0.0335 -0.8000
  188SLPC   C2121661   5.145   1.458   7.054 -0.3144  0.3918  0.4983
  188SLPC   O2221662   5.026   1.455   7.024 -0.9036 -0.4587 -0.4345
  188SLPC   C2221663   5.221   1.561   7.144  0.4614  0.3868 -0.0059
  188SLPC   H2R21664   5.302   1.514   7.205  0.5538  1.3538  0.6230
  188SLPC   H2S21665   5.275   1.620   7.067  1.8708  0.8263  1.2624
  188SLPC    C321666   5.150   1.139   7.018 -0.1307  0.6811  0.0132
  188SLPC    HX21667   5.245   1.083   7.035 -0.7481 -0.0128  1.3272
  188SLPC    HY21668   5.086   1.067   6.962  1.2676 -1.2977  0.8445
  188SLPC   O3121669   5.073   1.166   7.138 -0.2908  0.0742 -0.0091
  188SLPC   C3121670   5.156   1.196   7.241  0.0137 -0.3862 -0.1512
  188SLPC   O3221671   5.280   1.203   7.230  0.1689  0.5209  0.1418
  188SLPC   C3221672   5.078   1.219   7.369 -0.3702  0.4236  0.5925
  188SLPC   H2X21673   5.021   1.129   7.401 -2.3636  0.6388 -2.0732
  188SLPC   H2Y21674   5.000   1.296   7.352  0.6442  1.0407 -1.6356
  188SLPC   C2321675   5.127   1.660   7.221 -0.0091  0.9151  0.6117
  188SLPC   H3R21676   5.059   1.704   7.144  1.0237  1.4754  0.0004
  188SLPC   H3S21677   5.187   1.745   7.259 -0.2814  1.7676 -0.7902
  188SLPC   C2421678   5.044   1.606   7.342  0.8328  0.8774 -0.5838
  188SLPC   H4R21679   5.115   1.541   7.399 -0.1315 -1.2707 -1.7112
  188SLPC   H4S21680   4.977   1.531   7.295 -1.5761  1.2688  1.9529
  188SLPC   C2521681   4.970   1.721   7.415 -0.5605  0.6846  0.5918
  188SLPC   H5R21682   4.903   1.686   7.496 -1.3867  2.5135  0.7557
  188SLPC   H5S21683   4.921   1.784   7.337  0.2447  1.0701  0.3806
  188SLPC   C2621684   5.069   1.807   7.490 -0.0288  0.4922 -0.5609
  188SLPC   H6R21685   5.108   1.880   7.415  0.8074  0.6369 -0.0000
  188SLPC   H6S21686   5.151   1.741   7.525  0.6906  0.2311 -2.6021
  188SLPC   C2721687   4.999   1.895   7.597  1.0896 -0.0962 -0.2961
  188SLPC   H7R21688   4.915   1.957   7.560  1.5989  2.6197  2.6370
  188SLPC   H7S21689   5.075   1.969   7.630  2.6406 -1.9365  0.4835
  188SLPC   C2821690   4.945   1.816   7.723  0.0949  0.5618  0.2219
  188SLPC   H8R21691   4.854   1.761   7.691 -0.9087  1.4515  1.4482
  188SLPC   H8S21692   4.927   1.888   7.806  0.9890 -0.6398  1.4925
  188SLPC   C2921693   5.041   1.711   7.778 -0.0708 -0.4089 -0.3020
  188SLPC   H9R21694   5.085   1.646   7.701  1.6137  2.1498 -1.6243
  188SLPC  C21021695   5.090   1.698   7.905  0.1664  0.3467  0.6308
  188SLPC  H10R21696   5.154   1.612   7.931 -1.3923 -0.7485  1.0100
  188SLPC  C21121697   5.053   1.782   8.021 -0.6470 -0.9007 -0.8264
  188SLPC  H11R21698   5.070   1.717   8.110  1.4601  2.7118  1.6697
  188SLPC  H11S21699   4.950   1.823   8.016 -0.4132 -0.0051  0.9191
  188SLPC  C21221700   5.148   1.902   8.045  0.3142 -0.3593  0.0060
  188SLPC  H12R21701   5.233   1.909   7.976 -2.1930  0.9220 -3.2699
  188SLPC  C21321702   5.122   2.015   8.123 -0.0635 -0.0247 -0.6056
  188SLPC  H13R21703   5.195   2.097   8.116  0.8875 -0.9361 -2.2634
  188SLPC  C21421704   4.987   2.027   8.198 -0.3637 -0.1388  0.0085
  188SLPC  H14R21705   4.998   2.047   8.307  0.2035 -2.2029  0.3835
  188SLPC  H14S21706   4.931   1.931   8.201 -0.7273  0.0950  1.5055
  188SLPC  C21521707   4.900   2.128   8.139  0.1159 -0.0971  0.9633
  188SLPC  H15R21708   4.867   2.109   8.034  1.6678  0.2623  0.3967
  188SLPC  H15S21709   4.956   2.223   8.135 -0.1727  0.0300 -0.5001
  188SLPC  C21621710   4.786   2.144   8.234 -0.0281  0.1783 -0.6101
  188SLPC  H16R21711   4.823   2.202   8.322  0.1892 -0.3387 -0.3585
  188SLPC  H16S21712   4.752   2.049   8.280  0.1726  0.3017 -0.1962
  188SLPC  C21721713   4.668   2.217   8.165 -0.0740  0.0445 -0.2045
  188SLPC  H17R21714   4.607   2.244   8.254  2.6384  1.1909  1.4641
  188SLPC  H17S21715   4.623   2.145   8.094  0.9826 -1.5405  0.6621
  188SLPC  C21821716   4.704   2.351   8.100  0.4023 -0.4093  0.1016
  188SLPC  H18R21717   4.759   2.345   8.004  0.8152  2.9526  0.0278
  188SLPC  H18S21718   4.751   2.407   8.184 -1.8653 -1.6423  2.3428
  188SLPC  H18T21719   4.610   2.411   8.096  1.0538  0.8787  2.4023
  188SLPC   C3321720   5.182   1.258   7.476  0.0565  0.7022  0.5699
  188SLPC   H3X21721   5.261   1.329   7.447 -1.0616  1.0575 -1.9347
  188SLPC   H3Y21722   5.242   1.167   7.498  1.6780  1.6201  0.0844
  188SLPC   C3421723   5.114   1.320   7.600 -0.6032  0.0683  0.1127
  188SLPC   H4X21724   5.025   1.262   7.633 -1.4263  0.2745 -1.6844
  188SLPC   H4Y21725   5.077   1.420   7.568  0.6424  0.4546 -0.1833
  188SLPC   C3521726   5.219   1.331   7.716 -0.0445  0.3600 -0.5149
  188SLPC   H5X21727   5.271   1.429   7.716 -0.8626  0.8292  1.3773
  188SLPC   H5Y21728   5.292   1.252   7.692 -0.4187 -0.7749  1.7962
  188SLPC   C3621729   5.159   1.291   7.852 -0.4042 -0.0379 -0.2300
  188SLPC   H6X21730   5.113   1.190   7.842  0.0608 -0.0281 -3.7966
  188SLPC   H6Y21731   5.088   1.367   7.889 -2.8403 -2.3914  0.2698
  188SLPC   C3721732   5.265   1.277   7.963 -0.4878  0.7322  0.1731
  188SLPC   H7X21733   5.344   1.353   7.943 -0.6118  0.5444 -1.1093
  188SLPC   H7Y21734   5.322   1.181   7.955 -0.9226  0.3667  1.1895
  188SLPC   C3821735   5.205   1.279   8.107  0.1403  0.0445 -0.8636
  188SLPC   H8X21736   5.297   1.280   8.170 -1.5326 -0.0652  1.7262
  188SLPC   H8Y21737   5.154   1.183   8.129 -0.8398  0.5284 -0.9994
  188SLPC   C3921738   5.140   1.404   8.155 -0.4112  0.0752 -1.2509
  188SLPC   H9X21739   5.056   1.433   8.089 -0.5108  2.7258 -0.1138
  188SLPC   H9Y21740   5.212   1.489   8.150  0.0104 -0.2938 -1.4554
  188SLPC  C31021741   5.084   1.399   8.300 -0.2688  0.0749 -0.2615
  188SLPC  H10X21742   5.164   1.351   8.361 -0.8479  0.5857  0.9332
  188SLPC  H10Y21743   4.997   1.332   8.311  0.1065 -0.2517  0.9705
  188SLPC  C31121744   5.046   1.539   8.351 -0.7627 -0.6685 -0.4642
  188SLPC  H11X21745   4.957   1.576   8.295 -1.7041  0.9918  1.9620
  188SLPC  H11Y21746   5.128   1.610   8.328  0.1072  0.2120  4.2667
  188SLPC  C31221747   5.015   1.544   8.498 -0.6498  1.1113 -0.0174
  188SLPC  H12X21748   5.106   1.507   8.551  0.7447  1.6487 -1.9294
  188SLPC  H12Y21749   4.932   1.473   8.519  0.0233 -0.0045 -0.9494
  188SLPC  C31321750   4.971   1.681   8.549  0.2203 -0.1175  0.4265
  188SLPC  H13X21751   4.883   1.674   8.616  0.8242  2.9202  1.7295
  188SLPC  H13Y21752   4.937   1.751   8.470 -0.6803  0.9829  1.7438
  188SLPC  C31421753   5.083   1.751   8.623  0.7859 -0.3402 -0.1447
  188SLPC  H14X21754   5.175   1.767   8.563  2.9261 -0.0918  2.9880
  188SLPC  H14Y21755   5.097   1.682   8.709 -1.0078 -1.7170 -0.9044
  188SLPC  C31521756   5.035   1.879   8.695 -0.1256 -0.5283 -0.0385
  188SLPC  H15X21757   5.115   1.931   8.753 -0.5493  0.1619 -0.0608
  188SLPC  H15Y21758   4.966   1.849   8.777  1.4229  0.7332  1.8265
  188SLPC  C31621759   4.972   1.990   8.608  0.8761  0.1624  0.4591
  188SLPC  H16X21760   4.875   1.952   8.569  1.0215 -1.6554  1.7542
  188SLPC  H16Y21761   5.028   2.010   8.515 -1.1542  0.1654 -0.8364
  188SLPC  C31721762   4.962   2.125   8.674 -0.5320 -0.2841 -1.1021
  188SLPC  H17X21763   5.066   2.147   8.704 -0.2374 -1.1128 -1.4824
  188SLPC  H17Y21764   4.892   2.124   8.761 -0.4970  2.7468 -0.9219
  188SLPC  C31821765   4.903   2.236   8.595 -0.3047 -0.6091  0.6979
  188SLPC  H18X21766   4.798   2.215   8.565  0.2387 -1.9876 -0.3411
  188SLPC  H18Y21767   4.951   2.247   8.496  0.2823  3.2121  1.2149
  188SLPC  H18Z21768   4.919   2.336   8.642  1.8738 -1.5831  2.2084
  189SLPC     N21769   6.068   4.152   6.521 -0.1620  0.0133 -0.0347
  189SLPC   C1321770   6.013   4.151   6.665 -0.3091  0.3122  0.4602
  189SLPC  H13A21771   6.051   4.236   6.720 -1.1366  0.5054  0.7376
  189SLPC  H13B21772   5.906   4.142   6.666 -0.3454  0.6921  1.1458
  189SLPC  H13C21773   6.057   4.066   6.717  1.9816  0.5820 -0.8940
  189SLPC   C1421774   6.011   4.256   6.431 -0.0363  0.1048 -0.0287
  189SLPC  H14A21775   6.025   4.351   6.481 -0.9689  0.6481 -0.7661
  189SLPC  H14B21776   6.067   4.255   6.339 -1.6150 -1.1308 -1.0272
  189SLPC  H14C21777   5.905   4.243   6.414 -0.0928  0.9779 -0.4053
  189SLPC   C1521778   6.033   4.026   6.456 -0.6693  1.0430  0.6783
  189SLPC  H15A21779   6.086   4.020   6.362 -0.9134  2.5319  0.4064
  189SLPC  H15B21780   6.069   3.941   6.511 -1.7284 -1.6857 -2.5381
  189SLPC  H15C21781   5.930   4.000   6.436 -0.0083 -1.1115 -0.1390
  189SLPC   C1221782   6.217   4.167   6.521 -0.5340 -0.3261  0.1391
  189SLPC  H12A21783   6.256   4.142   6.424  0.5241  0.8706  0.2230
  189SLPC  H12B21784   6.270   4.085   6.566  2.3231  0.3460 -1.7389
  189SLPC   C1121785   6.273   4.306   6.555 -0.5948  0.4528 -0.4944
  189SLPC  H11A21786   6.384   4.300   6.562 -0.6658 -0.3131  0.2871
  189SLPC  H11B21787   6.235   4.341   6.654 -0.3888 -0.9483  0.1057
  189SLPC     P21788   6.328   4.430   6.325 -0.0522  0.0097 -0.2208
  189SLPC   O1321789   6.367   4.297   6.260 -0.4519 -0.3395 -0.1388
  189SLPC   O1421790   6.262   4.533   6.244  0.7168  0.0139  0.5652
  189SLPC   O1221791   6.235   4.393   6.450  0.2371 -0.4390 -0.2974
  189SLPC   O1121792   6.449   4.497   6.400  0.1830 -0.2527  0.5088
  189SLPC    C121793   6.445   4.618   6.476  0.7654  0.2001  0.7086
  189SLPC    HA21794   6.465   4.701   6.404 -0.8733  1.0219  1.1591
  189SLPC    HB21795   6.351   4.635   6.532  0.0550  2.7142 -1.0349
  189SLPC    C221796   6.546   4.612   6.589  0.8138 -0.4652 -0.6379
  189SLPC    HS21797   6.646   4.607   6.540  0.7567  1.1494 -0.9578
  189SLPC   O2121798   6.518   4.502   6.669 -0.1032  0.3344  0.0452
  189SLPC   C2121799   6.609   4.428   6.711 -0.3609 -0.1888  0.5482
  189SLPC   O2221800   6.724   4.425   6.671 -0.4213  0.0390  0.0601
  189SLPC   C2221801   6.551   4.335   6.812  0.1211  0.2006 -0.6666
  189SLPC   H2R21802   6.442   4.325   6.796  0.4197 -1.5622 -1.8984
  189SLPC   H2S21803   6.589   4.234   6.787 -0.0530  0.3879 -1.7027
  189SLPC    C321804   6.568   4.742   6.680  0.6637  0.0510  0.5569
  189SLPC    HX21805   6.470   4.765   6.728 -0.7056 -3.1452 -0.4538
  189SLPC    HY21806   6.589   4.832   6.618  1.8103 -0.6167 -0.0404
  189SLPC   O3121807   6.673   4.721   6.777  0.3025  0.4737 -0.8852
  189SLPC   C3121808   6.791   4.715   6.723  0.5339 -0.1001  0.1469
  189SLPC   O3221809   6.825   4.747   6.611  0.0381  0.3341 -0.7317
  189SLPC   C3221810   6.886   4.680   6.832 -0.4062  0.4609  0.5147
  189SLPC   H2X21811   6.987   4.670   6.787  0.1728  0.0821  1.8338
  189SLPC   H2Y21812   6.869   4.581   6.879  1.7763  0.2569  1.0093
  189SLPC   C2321813   6.605   4.359   6.956  0.2927  0.4825 -0.0832
  189SLPC   H3R21814   6.714   4.337   6.960  0.2558  0.2996 -0.0812
  189SLPC   H3S21815   6.561   4.279   7.019  0.3523 -0.4061 -1.1341
  189SLPC   C2421816   6.576   4.490   7.037  0.6913  0.1469  0.2502
  189SLPC   H4R21817   6.467   4.513   7.034  0.5956 -0.3952 -1.3837
  189SLPC   H4S21818   6.628   4.571   6.981  0.7284  1.5395  2.1818
  189SLPC   C2521819   6.630   4.490   7.181 -0.3482 -0.4166 -0.1038
  189SLPC   H5R21820   6.740   4.496   7.168 -0.6543  2.3242 -2.4621
  189SLPC   H5S21821   6.600   4.393   7.227 -1.5077  0.3487  0.8374
  189SLPC   C2621822   6.560   4.594   7.270  0.0156 -0.4181  0.2082
  189SLPC   H6R21823   6.451   4.571   7.277  0.1317 -0.5692  2.1503
  189SLPC   H6S21824   6.577   4.695   7.228  1.8311 -1.1187 -0.8796
  189SLPC   C2721825   6.628   4.575   7.410  0.0273  0.4167  0.6459
  189SLPC   H7R21826   6.627   4.471   7.449 -1.1807  0.9653  2.1608
  189SLPC   H7S21827   6.558   4.632   7.474 -0.4082 -0.8695  1.3645
  189SLPC   C2821828   6.765   4.634   7.444 -0.1671  0.1068 -0.4567
  189SLPC   H8R21829   6.842   4.575   7.389  2.2396  1.8417  0.8251
  189SLPC   H8S21830   6.794   4.622   7.550 -2.7518  0.5045  0.3519
  189SLPC   C2921831   6.776   4.780   7.417 -0.2868 -0.4277 -0.4355
  189SLPC   H9R21832   6.731   4.807   7.320 -0.6170 -2.0809 -0.7775
  189SLPC  C21021833   6.846   4.866   7.495 -0.6709  0.0243  0.5646
  189SLPC  H10R21834   6.855   4.967   7.452 -0.1926 -1.0656 -2.1138
  189SLPC  C21121835   6.918   4.838   7.623  0.5835  1.2825 -0.7005
  189SLPC  H11R21836   6.988   4.752   7.619  0.9157  1.4282  1.1281
  189SLPC  H11S21837   6.850   4.822   7.710  1.4561  0.9576 -0.0581
  189SLPC  C21221838   7.006   4.953   7.661 -0.2086  0.3058  0.1980
  189SLPC  H12R21839   7.103   4.946   7.611 -0.1808 -2.8950  0.4950
  189SLPC  C21321840   6.985   5.044   7.756 -0.6768 -0.1911  0.6627
  189SLPC  H13R21841   7.063   5.121   7.759  0.0819 -0.8011 -1.6207
  189SLPC  C21421842   6.859   5.054   7.834 -0.3669  0.1303 -1.0706
  189SLPC  H14R21843   6.871   4.984   7.920  0.5254  1.6240  0.0703
  189SLPC  H14S21844   6.763   5.022   7.788 -1.1841  0.8966  0.0572
  189SLPC  C21521845   6.835   5.204   7.878 -0.2140 -0.2627  0.2121
  189SLPC  H15R21846   6.930   5.250   7.913  0.6313 -0.4743 -1.6997
  189SLPC  H15S21847   6.765   5.193   7.964 -1.7280 -0.6320 -1.0268
  189SLPC  C21621848   6.751   5.295   7.782 -0.1281  0.9200 -0.4197
  189SLPC  H16R21849   6.663   5.238   7.744  0.1253 -0.2783  0.7216
  189SLPC  H16S21850   6.815   5.319   7.694  0.3688 -2.3634 -1.0957
  189SLPC  C21721851   6.697   5.423   7.850  0.3837  0.2290 -0.1655
  189SLPC  H17R21852   6.772   5.454   7.926 -0.4264 -1.3158  1.3393
  189SLPC  H17S21853   6.603   5.409   7.908  0.6973 -1.7185 -0.0612
  189SLPC  C21821854   6.676   5.538   7.753 -0.0044  0.3097  0.0774
  189SLPC  H18R21855   6.619   5.503   7.664 -0.4069  0.9641  0.0708
  189SLPC  H18S21856   6.774   5.570   7.711  0.3790  1.4615  1.7355
  189SLPC  H18T21857   6.625   5.628   7.795 -2.3832 -1.4260  1.1293
  189SLPC   C3321858   6.886   4.794   6.934  0.3961  0.8087  0.2126
  189SLPC   H3X21859   6.801   4.793   7.004  1.3190 -1.0950  1.3837
  189SLPC   H3Y21860   6.903   4.891   6.882 -0.4275  0.9687  0.2340
  189SLPC   C3421861   7.005   4.781   7.036  0.3503 -0.0512  0.0993
  189SLPC   H4X21862   7.101   4.787   6.980 -0.1014  2.5101 -0.5251
  189SLPC   H4Y21863   6.997   4.687   7.093 -0.4952  0.9084  1.6208
  189SLPC   C3521864   7.011   4.895   7.145  0.2013  0.0893 -0.1768
  189SLPC   H5X21865   7.084   4.850   7.215  0.0772 -2.0642 -1.3413
  189SLPC   H5Y21866   6.913   4.900   7.197  0.5739 -1.1619  0.6805
  189SLPC   C3621867   7.056   5.042   7.104  0.2691  0.4306  0.6570
  189SLPC   H6X21868   6.992   5.076   7.020  0.8306  0.4157  0.2151
  189SLPC   H6Y21869   7.161   5.025   7.072 -0.2720 -1.4263 -0.2949
  189SLPC   C3721870   7.044   5.152   7.215  0.0300  0.6273 -0.5910
  189SLPC   H7X21871   6.934   5.154   7.232  0.0268 -0.2222 -0.4722
  189SLPC   H7Y21872   7.078   5.252   7.182  2.5071 -0.2170 -0.7995
  189SLPC   C3821873   7.111   5.116   7.349  0.0559 -0.5795  0.4393
  189SLPC   H8X21874   7.061   5.025   7.388  0.3114 -1.1973 -0.6389
  189SLPC   H8Y21875   7.086   5.195   7.424  0.9778 -1.1919  1.4195
  189SLPC   C3921876   7.259   5.105   7.333 -0.0112  0.0881 -0.0441
  189SLPC   H9X21877   7.293   5.199   7.284  2.9321  0.2129  1.9602
  189SLPC   H9Y21878   7.277   5.010   7.278 -3.2546  0.4664 -2.0187
  189SLPC  C31021879   7.335   5.100   7.465 -0.5851  0.5460 -0.7445
  189SLPC  H10X21880   7.444   5.094   7.445  0.0456  5.2316  0.1496
  189SLPC  H10Y21881   7.318   5.009   7.527  3.1806 -0.0482 -0.3744
  189SLPC  C31121882   7.321   5.226   7.550  0.0225  0.4647 -0.1370
  189SLPC  H11X21883   7.216   5.241   7.582  0.2669 -0.1228  1.0138
  189SLPC  H11Y21884   7.353   5.305   7.479 -0.3338  4.4663  3.6944
  189SLPC  C31221885   7.416   5.240   7.672  0.5686  0.2012  0.0915
  189SLPC  H12X21886   7.432   5.349   7.686  2.6330  0.0419 -0.6994
  189SLPC  H12Y21887   7.519   5.198   7.664  0.5570 -0.2885  1.8879
  189SLPC  C31321888   7.350   5.179   7.803 -0.4912 -0.4959 -0.0654
  189SLPC  H13X21889   7.371   5.070   7.795  0.3452 -0.4913  1.6335
  189SLPC  H13Y21890   7.241   5.204   7.806 -0.7087 -0.9296 -2.3962
  189SLPC  C31421891   7.436   5.224   7.918 -0.8849  0.3073 -0.3221
  189SLPC  H14X21892   7.422   5.333   7.934  0.3124  0.8483 -2.5804
  189SLPC  H14Y21893   7.542   5.193   7.904 -0.7575 -0.9818  2.6274
  189SLPC  C31521894   7.403   5.149   8.045 -0.0815  0.2854 -0.6504
  189SLPC  H15X21895   7.427   5.042   8.026  1.7697  0.8037 -1.5141
  189SLPC  H15Y21896   7.294   5.150   8.066 -0.5789 -0.8257 -2.8244
  189SLPC  C31621897   7.500   5.191   8.155 -0.3835  0.5127 -0.1901
  189SLPC  H16X21898   7.461   5.291   8.183 -1.0722  0.1500  0.1739
  189SLPC  H16Y21899   7.605   5.191   8.120 -0.7667  0.2714 -1.4074
  189SLPC  C31721900   7.476   5.094   8.273  0.4756  0.8383 -0.2777
  189SLPC  H17X21901   7.465   4.987   8.246 -0.6779  1.0876 -0.8797
  189SLPC  H17Y21902   7.375   5.127   8.306  0.1111 -0.4144 -0.0861
  189SLPC  C31821903   7.576   5.103   8.394 -0.3984  0.0189  0.3784
  189SLPC  H18X21904   7.618   5.204   8.410  2.2318 -0.4178 -2.7582
  189SLPC  H18Y21905   7.660   5.035   8.370 -1.2122 -0.9732  0.2660
  189SLPC  H18Z21906   7.519   5.080   8.487 -1.8514  3.1487  0.3667
  190SLPC     N21907   0.242   3.140   6.067 -0.4381  0.4138 -0.4849
  190SLPC   C1321908   0.172   3.090   5.946  0.2229  0.5286  0.2327
  190SLPC  H13A21909   0.194   3.138   5.852  0.6860  2.6186  1.3440
  190SLPC  H13B21910   0.214   2.992   5.930 -1.0835 -0.2511  1.3506
  190SLPC  H13C21911   0.064   3.082   5.950  0.0330  0.9902 -2.2952
  190SLPC   C1421912   0.386   3.096   6.056  0.3699  0.1818 -0.8657
  190SLPC  H14A21913   0.387   2.988   6.051  1.9487  0.1352 -0.0915
  190SLPC  H14B21914   0.431   3.133   5.966  0.0856 -1.2729 -1.6361
  190SLPC  H14C21915   0.441   3.127   6.143  2.0172 -2.6513 -0.7788
  190SLPC   C1521916   0.165   3.073   6.178 -0.3021 -0.1943 -0.1703
  190SLPC  H15A21917   0.182   3.107   6.279 -1.7465 -1.1560  0.4370
  190SLPC  H15B21918   0.061   3.086   6.153 -0.4138 -1.1621 -0.2587
  190SLPC  H15C21919   0.182   2.966   6.168  1.6255  0.0570 -0.0721
  190SLPC   C1221920   0.244   3.294   6.075 -0.6305 -0.2175  0.0035
  190SLPC  H12A21921   0.145   3.338   6.078  0.1107  1.8811 -2.5370
  190SLPC  H12B21922   0.280   3.333   5.982  1.6261  0.7045  1.1797
  190SLPC   C1121923   0.316   3.358   6.190  0.5151 -0.0302 -0.7205
  190SLPC  H11A21924   0.262   3.312   6.276 -0.4835  4.2316  1.1766
  190SLPC  H11B21925   0.284   3.464   6.196  0.2636 -0.0418 -1.6531
  190SLPC     P21926   0.537   3.398   6.313  0.0213 -0.1284  0.5836
  190SLPC   O1321927   0.684   3.391   6.290  0.2321 -0.1082  0.2699
  190SLPC   O1421928   0.478   3.528   6.343 -0.3155 -0.6298 -0.3335
  190SLPC   O1221929   0.452   3.335   6.198 -0.1489  0.3980  0.5359
  190SLPC   O1121930   0.502   3.315   6.444 -0.3538 -0.5188 -0.1587
  190SLPC    C121931   0.523   3.175   6.446 -0.0401  0.3531 -0.5855
  190SLPC    HA21932   0.442   3.118   6.395 -2.3949  2.1540  0.8929
  190SLPC    HB21933   0.613   3.144   6.389 -0.8233 -1.4523 -0.8928
  190SLPC    C221934   0.538   3.126   6.591 -0.2506  0.5167 -0.4218
  190SLPC    HS21935   0.466   3.188   6.649 -2.2974 -1.1854 -0.9904
  190SLPC   O2121936   0.672   3.135   6.631 -0.3071  0.3064 -0.3201
  190SLPC   C2121937   0.679   3.157   6.769  0.3128 -0.1935  0.6057
  190SLPC   O2221938   0.589   3.199   6.838 -0.6649 -0.8101 -0.0251
  190SLPC   C2221939   0.815   3.114   6.814 -0.0684 -0.2788  0.3063
  190SLPC   H2R21940   0.871   3.088   6.721 -3.5266  0.1122 -2.0917
  190SLPC   H2S21941   0.861   3.202   6.864  1.8444  0.6034 -2.7304
  190SLPC    C321942   0.492   2.975   6.619 -0.1698 -0.2158  0.3053
  190SLPC    HX21943   0.574   2.914   6.575 -1.1235  0.0970 -2.0665
  190SLPC    HY21944   0.406   2.952   6.552 -0.5908 -0.5749  0.9560
  190SLPC   O3121945   0.472   2.934   6.757 -0.1014 -0.9386 -0.0984
  190SLPC   C3121946   0.350   2.953   6.817 -0.4855  0.1773  0.1045
  190SLPC   O3221947   0.262   3.015   6.764  0.0272 -0.1728  0.3671
  190SLPC   C3221948   0.330   2.874   6.948 -0.3168 -0.3665  0.8795
  190SLPC   H2X21949   0.407   2.794   6.943 -0.2126 -0.2961  1.3587
  190SLPC   H2Y21950   0.231   2.825   6.940 -1.0595  1.2619 -0.6046
  190SLPC   C2321951   0.819   2.996   6.908  0.0348  0.5918  0.2135
  190SLPC   H3R21952   0.788   2.906   6.851  0.7746  2.7321 -3.9766
  190SLPC   H3S21953   0.749   3.022   6.990 -1.5257  1.7509 -1.3900
  190SLPC   C2421954   0.952   2.974   6.971 -0.1439  0.0408  0.2246
  190SLPC   H4R21955   0.991   3.073   7.004 -1.0844  0.9634 -1.3192
  190SLPC   H4S21956   1.023   2.951   6.889  0.6116  0.3508  0.7804
  190SLPC   C2521957   0.978   2.883   7.093  0.1399  0.3486  0.0396
  190SLPC   H5R21958   1.077   2.909   7.136 -0.5735  1.1966  1.2339
  190SLPC   H5S21959   0.968   2.775   7.069  0.5398  0.0693  1.0557
  190SLPC   C2621960   0.889   2.921   7.212  0.1956 -0.0744 -0.2946
  190SLPC   H6R21961   0.925   2.851   7.291 -0.6750 -0.5884 -0.3386
  190SLPC   H6S21962   0.782   2.918   7.181  0.6242  0.6659 -1.9484
  190SLPC   C2721963   0.908   3.064   7.257 -0.0596  0.5566  0.9400
  190SLPC   H7R21964   0.849   3.132   7.192 -0.7696 -2.3545 -1.7671
  190SLPC   H7S21965   1.013   3.096   7.246 -0.6732  3.2306  2.0141
  190SLPC   C2821966   0.861   3.080   7.396  0.2638 -0.0009 -0.0910
  190SLPC   H8R21967   0.837   2.980   7.438 -0.0642  0.3721  0.6416
  190SLPC   H8S21968   0.768   3.141   7.385 -0.2164 -0.6867  0.0757
  190SLPC   C2921969   0.954   3.156   7.485  0.2493  1.1055  0.2785
  190SLPC   H9R21970   0.951   3.265   7.472 -1.0246  1.2902  1.8340
  190SLPC  C21021971   1.052   3.095   7.558  0.2018 -0.5692 -0.5081
  190SLPC  H10R21972   1.125   3.159   7.609 -2.4593  2.6953 -0.3945
  190SLPC  C21121973   1.073   2.948   7.564  0.0067  0.9958  0.8336
  190SLPC  H11R21974   1.158   2.912   7.503 -1.7947 -3.6907  0.7017
  190SLPC  H11S21975   0.995   2.885   7.515  0.1178  1.1367  0.4766
  190SLPC  C21221976   1.097   2.890   7.692  0.1620  0.1897 -0.3706
  190SLPC  H12R21977   1.204   2.870   7.711 -0.2941  0.2439  2.9971
  190SLPC  C21321978   1.013   2.867   7.795 -0.7646 -0.7521  0.3356
  190SLPC  H13R21979   1.056   2.812   7.880  1.1163 -0.0247 -0.0981
  190SLPC  C21421980   0.865   2.883   7.784  0.6651  0.3239  0.0430
  190SLPC  H14R21981   0.814   2.786   7.804 -1.6620  1.5486  0.4587
  190SLPC  H14S21982   0.840   2.919   7.682 -0.9456  1.3523  0.7538
  190SLPC  C21521983   0.817   2.982   7.895  0.1708 -0.0830  1.0755
  190SLPC  H15R21984   0.860   2.945   7.991  0.9453 -0.5473  0.5619
  190SLPC  H15S21985   0.707   2.973   7.903 -0.1989  2.4938 -0.1265
  190SLPC  C21621986   0.866   3.125   7.882  0.3164 -0.6985 -0.5282
  190SLPC  H16R21987   0.862   3.165   7.778 -1.6993  0.4463 -0.0445
  190SLPC  H16S21988   0.974   3.121   7.909  0.4256 -1.4246 -1.0365
  190SLPC  C21721989   0.789   3.223   7.972 -0.0641  0.0913 -0.1769
  190SLPC  H17R21990   0.691   3.234   7.921  0.7069 -0.0516 -1.7296
  190SLPC  H17S21991   0.828   3.327   7.979 -0.3633  0.3274 -1.6540
  190SLPC  C21821992   0.782   3.164   8.118 -0.1609  0.0876  0.4060
  190SLPC  H18R21993   0.889   3.155   8.149 -0.7134 -1.8873  1.9664
  190SLPC  H18S21994   0.717   3.075   8.116  1.0371 -0.8709  1.5736
  190SLPC  H18T21995   0.729   3.233   8.187  0.6984 -0.3337  1.5273
  190SLPC   C3321996   0.330   2.940   7.085 -0.1864 -0.0615  0.0641
  190SLPC   H3X21997   0.296   2.865   7.159 -0.5234 -0.1160 -0.1467
  190SLPC   H3Y21998   0.256   3.020   7.105  1.0619  0.9152  0.9292
  190SLPC   C3421999   0.464   3.003   7.105 -0.1921 -0.5188 -0.0698
  190SLPC   H4X22000   0.504   3.071   7.027  0.6508 -0.3296  0.5196
  190SLPC   H4Y22001   0.538   2.920   7.113 -0.4165 -0.7392 -0.2630
  190SLPC   C3522002   0.471   3.088   7.234 -0.0028 -0.9136  1.7163
  190SLPC   H5X22003   0.394   3.168   7.235  1.1045  0.1796  2.0983
  190SLPC   H5Y22004   0.572   3.133   7.238 -0.5530  0.3859  1.4616
  190SLPC   C3622005   0.438   3.012   7.367  0.0578 -0.0412 -0.7763
  190SLPC   H6X22006   0.328   2.998   7.374  0.0773 -0.1471 -0.6634
  190SLPC   H6Y22007   0.477   3.065   7.457  0.8929 -0.7843 -0.6864
  190SLPC   C3722008   0.506   2.871   7.378 -0.6485 -0.8873 -0.1717
  190SLPC   H7X22009   0.608   2.874   7.334 -0.6821  1.9200 -0.1937
  190SLPC   H7Y22010   0.457   2.793   7.315 -1.2588 -0.6986  0.0654
  190SLPC   C3822011   0.513   2.811   7.523  0.1657 -0.2482  1.1205
  190SLPC   H8X22012   0.577   2.874   7.589 -2.1881 -0.1292  3.4868
  190SLPC   H8Y22013   0.551   2.707   7.522 -1.0002 -0.7017  1.2328
  190SLPC   C3922014   0.388   2.815   7.604  0.2747 -0.4401 -0.7443
  190SLPC   H9X22015   0.309   2.751   7.560  0.7719 -0.1369 -2.1053
  190SLPC   H9Y22016   0.357   2.922   7.607  0.7569 -0.3066  1.3492
  190SLPC  C31022017   0.412   2.758   7.746 -0.3196  0.3150  0.6415
  190SLPC  H10X22018   0.488   2.828   7.787  0.5291 -1.4872  2.3145
  190SLPC  H10Y22019   0.459   2.658   7.740 -1.9003 -0.3821 -1.3363
  190SLPC  C31122020   0.288   2.760   7.835  0.0666  0.0431  1.0657
  190SLPC  H11X22021   0.227   2.670   7.812 -1.5789  1.4152 -0.3263
  190SLPC  H11Y22022   0.219   2.847   7.822 -0.5501  0.0459  3.8386
  190SLPC  C31222023   0.319   2.738   7.988 -0.4736  0.4665 -0.0792
  190SLPC  H12X22024   0.398   2.661   7.998 -0.0734  0.5472 -2.1622
  190SLPC  H12Y22025   0.231   2.699   8.044 -0.7044 -0.2907 -0.9441
  190SLPC  C31322026   0.372   2.867   8.051 -0.4820  0.9875 -0.4172
  190SLPC  H13X22027   0.314   2.949   8.002  1.2287  1.2392 -2.1674
  190SLPC  H13Y22028   0.476   2.874   8.011  0.1175 -2.2546  0.3082
  190SLPC  C31422029   0.366   2.858   8.212 -0.1856  0.3916  0.1714
  190SLPC  H14X22030   0.416   2.762   8.239 -2.7456 -0.8339  0.8004
  190SLPC  H14Y22031   0.259   2.851   8.238 -0.1991 -0.5716 -0.1232
  190SLPC  C31522032   0.441   2.978   8.278  0.3240 -0.7068 -0.5825
  190SLPC  H15X22033   0.369   3.048   8.324 -0.7632 -2.9533  1.3712
  190SLPC  H15Y22034   0.506   3.028   8.203 -0.5123  0.0343 -0.8270
  190SLPC  C31622035   0.546   2.926   8.383 -0.5457 -0.4668  0.2290
  190SLPC  H16X22036   0.611   2.849   8.336  0.8799  0.7552  0.1165
  190SLPC  H16Y22037   0.482   2.871   8.456 -0.6043 -0.1656  0.4078
  190SLPC  C31722038   0.628   3.034   8.458  0.7979 -0.0212  0.7785
  190SLPC  H17X22039   0.558   3.115   8.491  0.5061 -0.1639  0.5183
  190SLPC  H17Y22040   0.693   3.089   8.386 -0.6750  3.4680  1.8548
  190SLPC  C31822041   0.718   2.980   8.574  0.2955  0.2431 -0.2486
  190SLPC  H18X22042   0.791   2.909   8.528 -1.1432 -0.0245 -2.3065
  190SLPC  H18Y22043   0.655   2.911   8.635  0.0544 -0.0558 -0.8172
  190SLPC  H18Z22044   0.756   3.062   8.637 -0.3419  1.0949 -0.9504
  191SLPC     N22045   5.198   6.585   5.366 -0.4815 -0.0045 -0.1391
  191SLPC   C1322046   5.147   6.447   5.345 -0.2701 -0.3037  0.6099
  191SLPC  H13A22047   5.131   6.426   5.240 -0.1766  0.4712  0.4370
  191SLPC  H13B22048   5.219   6.375   5.379 -0.5664 -0.2230  1.4427
  191SLPC  H13C22049   5.055   6.437   5.402 -1.6873  3.2902 -0.7630
  191SLPC   C1422050   5.085   6.673   5.321  0.7474  0.2792  0.4962
  191SLPC  H14A22051   5.063   6.644   5.220  1.4355 -1.4624  0.8058
  191SLPC  H14B22052   4.996   6.660   5.381  0.8749  2.3856  1.2090
  191SLPC  H14C22053   5.114   6.777   5.325 -1.3663  1.0719 -1.9731
  191SLPC   C1522054   5.322   6.629   5.288 -0.4110 -0.3639 -0.6841
  191SLPC  H15A22055   5.410   6.590   5.337 -2.2953 -2.9901  0.8864
  191SLPC  H15B22056   5.335   6.614   5.182  2.6323 -2.6141 -0.1124
  191SLPC  H15C22057   5.327   6.736   5.304 -0.3252 -0.5196  0.4592
  191SLPC   C1222058   5.204   6.625   5.512  0.7944 -0.6442 -0.5427
  191SLPC  H12A22059   5.101   6.626   5.542  0.3470  0.9118 -1.9751
  191SLPC  H12B22060   5.233   6.729   5.516 -0.5638 -0.2816  0.0853
  191SLPC   C1122061   5.292   6.530   5.600 -0.2353 -0.0202  0.6501
  191SLPC  H11A22062   5.324   6.582   5.692  0.1212  0.7492  0.0960
  191SLPC  H11B22063   5.387   6.500   5.551  1.5510  1.1642  3.1649
  191SLPC     P22064   5.128   6.396   5.754  0.6937  0.1101 -0.1387
  191SLPC   O1322065   5.027   6.503   5.755 -0.2860 -0.0739 -0.1399
  191SLPC   O1422066   5.075   6.260   5.765  0.6725 -0.0464 -0.0165
  191SLPC   O1222067   5.229   6.407   5.632  0.2044  0.1720 -0.1965
  191SLPC   O1122068   5.223   6.415   5.881 -0.0894 -0.0011  0.7976
  191SLPC    C122069   5.358   6.377   5.873  0.0404 -0.1628 -0.1193
  191SLPC    HA22070   5.383   6.292   5.806  1.1404 -0.4327  0.5998
  191SLPC    HB22071   5.415   6.465   5.835 -0.9921  0.9553  0.8699
  191SLPC    C222072   5.422   6.327   6.009  0.1397 -0.5934 -0.5314
  191SLPC    HS22073   5.360   6.242   6.044  0.2937 -0.8420 -0.8536
  191SLPC   O2122074   5.423   6.447   6.094  0.5005  0.5122  0.5146
  191SLPC   C2122075   5.394   6.420   6.224 -0.6421  0.2492  0.0613
  191SLPC   O2222076   5.356   6.316   6.265  0.2604 -0.0382 -0.5146
  191SLPC   C2222077   5.410   6.558   6.299 -0.0515  0.4362 -0.6955
  191SLPC   H2R22078   5.397   6.644   6.230  1.4255  1.6467  0.4665
  191SLPC   H2S22079   5.335   6.557   6.381 -0.3568  2.7983 -0.8741
  191SLPC    C322080   5.566   6.275   5.998  0.0230 -0.0497 -0.2007
  191SLPC    HX22081   5.633   6.358   5.966 -0.0295 -0.7179 -2.2079
  191SLPC    HY22082   5.571   6.194   5.921  1.4065 -0.5137  0.3408
  191SLPC   O3122083   5.619   6.225   6.122 -0.0187  0.2031  0.2868
  191SLPC   C3122084   5.691   6.111   6.121 -0.9253 -0.3179  0.0208
  191SLPC   O3222085   5.710   6.038   6.025 -0.3998 -1.2976 -0.0488
  191SLPC   C3222086   5.751   6.092   6.258 -0.2024 -0.1520 -0.5948
  191SLPC   H2X22087   5.821   6.178   6.264 -1.3856  0.8948 -1.3102
  191SLPC   H2Y22088   5.806   5.996   6.268  0.4252  0.3854  1.5994
  191SLPC   C2322089   5.549   6.584   6.357  1.0369  0.2188  0.5949
  191SLPC   H3R22090   5.565   6.693   6.369 -2.0663  0.7328  0.8243
  191SLPC   H3S22091   5.630   6.549   6.289  1.5619  3.3711 -0.5441
  191SLPC   C2422092   5.573   6.511   6.492 -0.1123 -0.0246  0.3890
  191SLPC   H4R22093   5.681   6.484   6.492 -0.2424 -0.5565  0.6237
  191SLPC   H4S22094   5.517   6.417   6.507 -0.9548  0.5664  1.0149
  191SLPC   C2522095   5.525   6.600   6.602  0.3713 -0.6052 -0.2553
  191SLPC   H5R22096   5.416   6.616   6.585  0.3974 -0.3117 -0.1495
  191SLPC   H5S22097   5.566   6.703   6.598 -0.2026 -0.3897 -0.9734
  191SLPC   C2622098   5.549   6.550   6.745 -0.4648 -0.4685 -0.3170
  191SLPC   H6R22099   5.621   6.465   6.749  1.6413  1.2469  0.4123
  191SLPC   H6S22100   5.451   6.518   6.784  0.1827 -2.9210 -0.5262
  191SLPC   C2722101   5.628   6.652   6.834 -1.0867 -0.5002 -0.1303
  191SLPC   H7R22102   5.580   6.751   6.849 -1.3542 -0.9866  2.8660
  191SLPC   H7S22103   5.732   6.662   6.796 -1.5216  0.0949 -1.2096
  191SLPC   C2822104   5.641   6.590   6.974 -0.1500 -0.4559 -0.0616
  191SLPC   H8R22105   5.715   6.655   7.026  1.5000 -1.6043 -0.8915
  191SLPC   H8S22106   5.688   6.490   6.968  3.0297  0.9898 -2.6348
  191SLPC   C2922107   5.512   6.559   7.050  0.1498  0.0335  0.3495
  191SLPC   H9R22108   5.421   6.557   6.989 -0.8452 -0.1454  1.7869
  191SLPC  C21022109   5.490   6.562   7.182 -0.5380 -0.5577 -0.2023
  191SLPC  H10R22110   5.389   6.542   7.221 -0.8446 -1.5357 -1.4447
  191SLPC  C21122111   5.593   6.593   7.288  0.0757  0.2601  0.1139
  191SLPC  H11R22112   5.620   6.701   7.287 -2.5484  1.0162  1.4849
  191SLPC  H11S22113   5.692   6.549   7.265  0.0344 -0.2122  0.8194
  191SLPC  C21222114   5.553   6.563   7.427  0.7082  0.0717  0.0466
  191SLPC  H12R22115   5.539   6.454   7.428  1.7572 -0.1104 -1.4791
  191SLPC  C21322116   5.511   6.639   7.531  0.1720 -0.1471  0.5667
  191SLPC  H13R22117   5.484   6.587   7.624 -0.2051  2.6102  2.1002
  191SLPC  C21422118   5.507   6.790   7.545 -0.3442  0.5423 -0.1784
  191SLPC  H14R22119   5.551   6.832   7.452  0.2134  0.7490  0.1728
  191SLPC  H14S22120   5.575   6.831   7.622 -2.0642  1.3212  0.9822
  191SLPC  C21522121   5.367   6.852   7.544 -0.9663 -0.5350  0.0398
  191SLPC  H15R22122   5.330   6.817   7.643 -0.8414 -0.3665  0.1465
  191SLPC  H15S22123   5.305   6.801   7.467  2.0803 -0.9280 -2.3436
  191SLPC  C21622124   5.366   7.007   7.533 -0.7784  0.0973  0.2172
  191SLPC  H16R22125   5.376   7.030   7.425 -0.7626  4.7115  0.9977
  191SLPC  H16S22126   5.450   7.054   7.588 -0.4864  0.0633 -0.1974
  191SLPC  C21722127   5.236   7.070   7.576  0.1750  0.1378  0.1805
  191SLPC  H17R22128   5.160   7.005   7.526  2.1806 -1.0205 -1.5615
  191SLPC  H17S22129   5.234   7.173   7.535  2.5166  1.1335  2.3853
  191SLPC  C21822130   5.208   7.079   7.730  0.2123  0.5998  0.0620
  191SLPC  H18R22131   5.117   7.140   7.749 -0.6702 -1.0320  1.3613
  191SLPC  H18S22132   5.290   7.128   7.786  1.2471 -2.5829  1.5848
  191SLPC  H18T22133   5.195   6.982   7.782 -0.6489  1.2432  1.1037
  191SLPC   C3322134   5.660   6.081   6.384  0.3095  0.9712  0.3349
  191SLPC   H3X22135   5.573   6.014   6.368  1.4244 -0.4978  0.2267
  191SLPC   H3Y22136   5.623   6.184   6.404 -1.1516  0.1137  2.3596
  191SLPC   C3422137   5.739   6.042   6.508  0.2438 -0.8619 -0.4484
  191SLPC   H4X22138   5.837   6.093   6.498  0.2508 -0.4271  1.5342
  191SLPC   H4Y22139   5.726   5.932   6.508  1.6459 -1.0705  1.1068
  191SLPC   C3522140   5.672   6.102   6.634 -0.2527  0.7790 -0.0681
  191SLPC   H5X22141   5.577   6.047   6.652 -0.0589  0.7291  0.8209
  191SLPC   H5Y22142   5.638   6.206   6.613 -0.9228  0.2985 -1.5531
  191SLPC   C3622143   5.770   6.079   6.744  0.0560 -0.5476  0.5877
  191SLPC   H6X22144   5.870   6.128   6.738 -1.1085  1.8606 -0.4623
  191SLPC   H6Y22145   5.795   5.971   6.738  1.2482 -0.2638  0.1331
  191SLPC   C3722146   5.714   6.114   6.887 -0.3247  0.0810  0.1566
  191SLPC   H7X22147   5.635   6.045   6.924  0.1712  0.0601  1.2143
  191SLPC   H7Y22148   5.673   6.217   6.881  0.9087  0.5750 -0.1577
  191SLPC   C3822149   5.816   6.111   6.995 -0.3855  0.0014 -0.6219
  191SLPC   H8X22150   5.899   6.184   6.990  0.2596 -0.7845 -1.7495
  191SLPC   H8Y22151   5.861   6.009   6.997 -1.7263 -0.5988  0.0488
  191SLPC   C3922152   5.762   6.119   7.140  0.5548  0.0974  0.3111
  191SLPC   H9X22153   5.681   6.045   7.156 -0.3028  1.0552  0.4463
  191SLPC   H9Y22154   5.719   6.217   7.168  0.1599  0.2867 -0.8950
  191SLPC  C31022155   5.867   6.083   7.245  0.5146  0.4711 -0.4750
  191SLPC  H10X22156   5.942   6.164   7.256 -1.3747  2.0689  1.5666
  191SLPC  H10Y22157   5.912   5.983   7.225 -1.4758 -0.2153 -1.7589
  191SLPC  C31122158   5.800   6.072   7.383  0.1200 -0.4390 -0.0995
  191SLPC  H11X22159   5.739   5.980   7.401 -0.2326 -0.2586 -0.3639
  191SLPC  H11Y22160   5.730   6.158   7.386  1.6456  0.8612 -0.2893
  191SLPC  C31222161   5.895   6.086   7.500 -0.1236  0.5983  0.3766
  191SLPC  H12X22162   5.958   6.172   7.467 -1.7956  1.0371 -1.9584
  191SLPC  H12Y22163   5.958   5.995   7.501 -3.3491 -1.7960  0.2745
  191SLPC  C31322164   5.827   6.108   7.632  0.2955  0.6230 -0.0682
  191SLPC  H13X22165   5.768   6.015   7.644  0.3331  0.6660  0.4489
  191SLPC  H13Y22166   5.753   6.189   7.613 -0.5485 -0.1490 -0.0983
  191SLPC  C31422167   5.923   6.146   7.749  0.6346 -0.6693  0.2387
  191SLPC  H14X22168   5.949   6.254   7.739 -0.5908 -0.1893  1.7779
  191SLPC  H14Y22169   6.016   6.089   7.727 -0.2757 -1.7271 -1.0193
  191SLPC  C31522170   5.870   6.107   7.894  0.4239  0.2028 -0.3754
  191SLPC  H15X22171   5.963   6.105   7.954  0.6315 -0.7417 -0.7106
  191SLPC  H15Y22172   5.828   6.004   7.893  0.1015  0.3328 -0.6398
  191SLPC  C31622173   5.788   6.208   7.967  0.2196  0.2089 -0.1214
  191SLPC  H16X22174   5.691   6.205   7.914  0.5883  0.5903 -0.8329
  191SLPC  H16Y22175   5.827   6.309   7.946 -0.3284  0.0255 -2.2901
  191SLPC  C31722176   5.776   6.183   8.121 -0.0231  0.5633  0.1465
  191SLPC  H17X22177   5.750   6.075   8.133  3.8700 -0.6175 -0.4628
  191SLPC  H17Y22178   5.698   6.250   8.162  1.7564  2.8910 -0.0897
  191SLPC  C31822179   5.904   6.212   8.196 -0.1158  0.0889  0.5925
  191SLPC  H18X22180   5.891   6.177   8.301 -2.0266 -0.3219  0.2435
  191SLPC  H18Y22181   5.934   6.319   8.191  0.7340 -0.1891 -0.8837
  191SLPC  H18Z22182   5.990   6.158   8.149 -0.0655 -0.6933  1.5417
  192SLPC     N22183   6.498   0.564   5.975  0.2438  0.0918  0.2863
  192SLPC   C1322184   6.520   0.531   5.832  0.0987  0.4206 -0.6245
  192SLPC  H13A22185   6.517   0.621   5.771 -0.5795  0.5657 -0.3932
  192SLPC  H13B22186   6.620   0.496   5.814  1.2897  1.9271  2.4090
  192SLPC  H13C22187   6.442   0.462   5.803  0.5294 -0.4578  0.2605
  192SLPC   C1422188   6.491   0.437   6.049  0.0509 -0.1731 -0.6099
  192SLPC  H14A22189   6.576   0.373   6.032  0.5535  0.3680 -0.1285
  192SLPC  H14B22190   6.489   0.453   6.156 -0.5541  0.4832 -0.7101
  192SLPC  H14C22191   6.403   0.378   6.024 -0.1147 -0.2136  0.0388
  192SLPC   C1522192   6.377   0.640   6.010 -0.6654  0.0805  0.3216
  192SLPC  H15A22193   6.372   0.731   5.952 -1.3756 -1.5542 -2.3548
  192SLPC  H15B22194   6.285   0.584   6.005 -1.5047  1.3977  0.2740
  192SLPC  H15C22195   6.388   0.675   6.112  0.7052  2.0574 -0.4445
  192SLPC   C1222196   6.617   0.652   6.029 -0.5290 -0.3190  0.3737
  192SLPC  H12A22197   6.616   0.754   5.994 -0.6451 -0.2907  0.4603
  192SLPC  H12B22198   6.710   0.607   5.997 -1.3955 -2.4557  0.6569
  192SLPC   C1122199   6.635   0.672   6.180 -0.0047 -0.3435 -0.1728
  192SLPC  H11A22200   6.702   0.756   6.207 -0.4404  0.4395 -1.4422
  192SLPC  H11B22201   6.691   0.583   6.216  3.4786  1.9542  0.5970
  192SLPC     P22202   6.480   0.646   6.394  0.1559  0.5133 -0.2459
  192SLPC   O1322203   6.336   0.674   6.419 -0.7664  0.4159 -0.7636
  192SLPC   O1422204   6.532   0.514   6.413  0.7117  0.6060 -0.6375
  192SLPC   O1222205   6.507   0.696   6.247  0.1811  0.0641  0.0052
  192SLPC   O1122206   6.568   0.751   6.465  0.6080  0.1613 -0.4198
  192SLPC    C122207   6.551   0.890   6.444  0.3417 -0.0192 -0.1495
  192SLPC    HA22208   6.600   0.928   6.352  0.2931  2.1086  0.6560
  192SLPC    HB22209   6.443   0.917   6.450  0.1297 -1.0248  0.6819
  192SLPC    C222210   6.601   0.973   6.568 -0.1997  1.2095  0.3749
  192SLPC    HS22211   6.709   0.950   6.577 -0.0759  1.9430  0.8945
  192SLPC   O2122212   6.529   0.932   6.694 -0.0738 -0.0267  0.6775
  192SLPC   C2122213   6.602   0.919   6.801 -0.3022  0.1573 -0.2935
  192SLPC   O2222214   6.721   0.945   6.810  0.0659  0.8934  0.2508
  192SLPC   C2222215   6.520   0.865   6.914  0.0928 -0.0540 -0.2824
  192SLPC   H2R22216   6.423   0.919   6.905  1.0394  1.4517 -2.0945
  192SLPC   H2S22217   6.496   0.758   6.900  1.8840 -0.4955 -0.2368
  192SLPC    C322218   6.582   1.119   6.540 -0.3404 -0.4196  0.7049
  192SLPC    HX22219   6.472   1.129   6.532 -0.4339 -1.0573  1.1446
  192SLPC    HY22220   6.624   1.157   6.444  0.9068  3.1374  2.4533
  192SLPC   O3122221   6.637   1.196   6.655  0.6719  0.2629 -0.1374
  192SLPC   C3122222   6.768   1.214   6.656  0.3771  1.1386 -0.8724
  192SLPC   O3222223   6.841   1.172   6.573 -0.1748 -0.4568  0.4313
  192SLPC   C3222224   6.798   1.307   6.765 -0.2682 -0.2260 -0.1783
  192SLPC   H2X22225   6.717   1.314   6.840  0.9441  0.1023  1.1427
  192SLPC   H2Y22226   6.798   1.408   6.718 -0.8117  0.5948  1.4929
  192SLPC   C2322227   6.578   0.877   7.056 -0.8228 -0.6569 -0.0439
  192SLPC   H3R22228   6.685   0.851   7.068 -0.9918 -1.5338 -0.3394
  192SLPC   H3S22229   6.530   0.804   7.124  2.1412 -1.3108  1.4926
  192SLPC   C2422230   6.551   1.018   7.110  0.0797 -0.4978  0.1931
  192SLPC   H4R22231   6.448   1.061   7.103  1.2192  2.3571 -0.4742
  192SLPC   H4S22232   6.616   1.087   7.053 -0.8090 -0.7426 -1.1571
  192SLPC   C2522233   6.586   1.024   7.255 -0.8950 -0.4675 -0.0859
  192SLPC   H5R22234   6.625   1.127   7.274  1.5261 -0.9306 -2.0391
  192SLPC   H5S22235   6.676   0.968   7.289 -0.6615  1.8941  3.8263
  192SLPC   C2622236   6.470   0.983   7.346  0.6073 -0.2964 -1.2542
  192SLPC   H6R22237   6.477   0.872   7.353  0.2372 -0.2941 -0.7666
  192SLPC   H6S22238   6.373   1.008   7.297 -1.3569 -0.5001  2.1782
  192SLPC   C2722239   6.485   1.037   7.495  0.0295 -0.3152 -0.0174
  192SLPC   H7R22240   6.419   1.126   7.491  0.7789  0.2400 -2.8397
  192SLPC   H7S22241   6.590   1.069   7.516  0.3040  0.9984 -2.8778
  192SLPC   C2822242   6.429   0.946   7.613  0.8595  0.4737 -0.1614
  192SLPC   H8R22243   6.329   0.906   7.585 -0.3633  1.8867  1.9347
  192SLPC   H8S22244   6.422   1.005   7.706  1.3916  1.2951 -0.6321
  192SLPC   C2922245   6.510   0.824   7.644 -0.2693 -0.0063 -0.0076
  192SLPC   H9R22246   6.542   0.764   7.558 -1.7857 -0.3439 -0.3552
  192SLPC  C21022247   6.539   0.775   7.763 -0.4071  0.3377 -0.8903
  192SLPC  H10R22248   6.613   0.694   7.774 -2.4964 -1.7043 -1.0804
  192SLPC  C21122249   6.490   0.837   7.895  0.2576  0.4577  0.3461
  192SLPC  H11R22250   6.396   0.896   7.894 -1.3173 -1.8969  0.5290
  192SLPC  H11S22251   6.571   0.907   7.924  0.9401 -0.2238  0.0864
  192SLPC  C21222252   6.482   0.734   8.000  0.5106 -0.0413 -0.3823
  192SLPC  H12R22253   6.533   0.638   7.979  1.0376  0.0216  0.5677
  192SLPC  C21322254   6.432   0.750   8.122  0.2922  0.1477  0.8008
  192SLPC  H13R22255   6.431   0.672   8.199 -0.4091  0.4108  1.0701
  192SLPC  C21422256   6.366   0.879   8.163 -0.4701  0.4079 -0.1402
  192SLPC  H14R22257   6.257   0.859   8.155 -0.4619  0.6324 -0.8794
  192SLPC  H14S22258   6.401   0.970   8.109 -0.9028  0.1989 -0.7864
  192SLPC  C21522259   6.398   0.926   8.303 -0.0320 -0.5692  0.7125
  192SLPC  H15R22260   6.505   0.952   8.316  0.0802  0.4074 -1.7382
  192SLPC  H15S22261   6.366   0.849   8.377  0.5984 -0.4244  1.1400
  192SLPC  C21622262   6.321   1.058   8.339  0.0420 -0.4760 -0.3634
  192SLPC  H16R22263   6.355   1.145   8.279  1.0658  2.0523  3.5358
  192SLPC  H16S22264   6.344   1.094   8.441  0.9221  0.3322 -0.8260
  192SLPC  C21722265   6.169   1.055   8.322  0.6236 -0.2212 -0.1641
  192SLPC  H17R22266   6.141   1.057   8.214 -0.1702  1.1759  0.0446
  192SLPC  H17S22267   6.124   0.962   8.365  1.1529 -0.0356  0.8101
  192SLPC  C21822268   6.101   1.174   8.399  0.0354 -0.2635  0.6328
  192SLPC  H18R22269   5.993   1.180   8.374  0.5034 -2.7207 -2.5805
  192SLPC  H18S22270   6.159   1.263   8.366 -0.4544  0.1618  0.9083
  192SLPC  H18T22271   6.115   1.172   8.509 -1.0541  0.5531  0.8019
  192SLPC   C3322272   6.930   1.266   6.846 -0.4815  0.5991 -0.0162
  192SLPC   H3X22273   7.016   1.298   6.783  0.2046  0.8698  1.0313
  192SLPC   H3Y22274   6.934   1.159   6.876  0.4123  1.0184  1.4851
  192SLPC   C3422275   6.947   1.344   6.976 -0.6627 -0.2382 -0.0960
  192SLPC   H4X22276   6.940   1.453   6.956 -2.3244 -0.5605 -1.4286
  192SLPC   H4Y22277   7.050   1.324   7.014 -1.1006  0.5226  1.5951
  192SLPC   C3522278   6.855   1.312   7.083 -0.1995  0.2649 -0.4948
  192SLPC   H5X22279   6.840   1.203   7.094 -2.7311  0.7457  2.0706
  192SLPC   H5Y22280   6.758   1.356   7.051 -1.1770 -1.4740 -0.0203
  192SLPC   C3622281   6.902   1.370   7.219 -0.4663 -0.0094 -0.0780
  192SLPC   H6X22282   6.900   1.481   7.225 -1.0375  0.1293 -2.0514
  192SLPC   H6Y22283   7.005   1.333   7.242 -0.1881 -0.0569 -1.3344
  192SLPC   C3722284   6.815   1.327   7.339 -0.3376 -0.1087 -0.2560
  192SLPC   H7X22285   6.813   1.216   7.343 -0.2063 -0.0721  2.1691
  192SLPC   H7Y22286   6.710   1.364   7.327 -0.1749 -0.1302 -2.1242
  192SLPC   C3822287   6.880   1.374   7.475  0.3697 -0.8067 -0.8219
  192SLPC   H8X22288   6.910   1.480   7.467  1.5154 -1.0520 -0.0079
  192SLPC   H8Y22289   6.970   1.320   7.514  0.0077  0.4737  2.0458
  192SLPC   C3922290   6.774   1.361   7.593 -0.0598  0.2056  0.2869
  192SLPC   H9X22291   6.727   1.261   7.595 -0.0955  0.2171  0.1052
  192SLPC   H9Y22292   6.703   1.446   7.584  0.8467  1.1932  1.9632
  192SLPC  C31022293   6.845   1.375   7.722 -0.0353  0.3031 -0.9441
  192SLPC  H10X22294   6.863   1.484   7.727 -0.5730  0.3817 -0.6763
  192SLPC  H10Y22295   6.939   1.316   7.718  0.2778  0.8554 -2.2737
  192SLPC  C31122296   6.763   1.342   7.846 -0.1079  0.7984  0.3187
  192SLPC  H11X22297   6.725   1.240   7.822  0.9889  0.5174 -0.2845
  192SLPC  H11Y22298   6.679   1.413   7.863 -0.9603  0.1928 -1.1444
  192SLPC  C31222299   6.842   1.339   7.987 -0.0271 -0.6065 -0.1471
  192SLPC  H12X22300   6.876   1.442   8.008 -0.6749 -0.1160 -1.3809
  192SLPC  H12Y22301   6.927   1.270   7.971  2.3773  1.2580  3.4492
  192SLPC  C31322302   6.766   1.289   8.107  0.6624 -0.5477 -0.7499
  192SLPC  H13X22303   6.771   1.178   8.094  1.6757 -1.0450  2.8253
  192SLPC  H13Y22304   6.661   1.323   8.120  1.2230  1.0653 -0.2605
  192SLPC  C31422305   6.834   1.303   8.242 -0.1865  0.4862  0.3778
  192SLPC  H14X22306   6.852   1.410   8.263  1.4484  0.5923 -1.2942
  192SLPC  H14Y22307   6.936   1.258   8.248 -0.0045  0.8094 -0.1760
  192SLPC  C31522308   6.764   1.237   8.365 -0.3753  0.6211  0.6295
  192SLPC  H15X22309   6.846   1.175   8.408 -1.5613 -1.5844 -0.0934
  192SLPC  H15Y22310   6.686   1.171   8.321  1.9811 -1.4693 -0.6830
  192SLPC  C31622311   6.701   1.330   8.463  0.0263 -0.1400 -0.2178
  192SLPC  H16X22312   6.633   1.395   8.404  1.9655  0.6967 -1.6433
  192SLPC  H16Y22313   6.775   1.392   8.518 -0.1791 -0.2628  0.2043
  192SLPC  C31722314   6.612   1.266   8.573  0.3296 -0.1046 -0.6966
  192SLPC  H17X22315   6.542   1.202   8.517 -0.6127  0.8077 -0.5809
  192SLPC  H17Y22316   6.545   1.345   8.613  0.2350 -0.2283 -0.6098
  192SLPC  C31822317   6.686   1.189   8.683  0.5816 -0.1358  0.4476
  192SLPC  H18X22318   6.747   1.104   8.646 -0.9746 -1.8587  1.6147
  192SLPC  H18Y22319   6.607   1.153   8.752 -0.3248  0.9815  0.0118
  192SLPC  H18Z22320   6.748   1.258   8.744 -0.7201 -0.2275  1.9424
  193SOD    SOD22321   2.235   6.793   4.726 -0.1294 -0.1831  0.7021
  194SOD    SOD22322   3.290   6.187   2.879 -0.4993  0.1112 -0.2440
  195SOD    SOD22323   2.542   1.703  14.759 -0.1645  0.0091  0.0181
  196SOD    SOD22324   5.081   6.127  10.649  0.0581 -0.0559  0.6261
  197SOD    SOD22325   6.361   4.273   2.545  0.0293 -0.3783  0.4060
  198SOD    SOD22326   0.938   4.497   0.360 -0.3499 -0.1637  0.7343
  199SOD    SOD22327   0.912   2.491  17.301 -0.1415 -0.6405  0.0857
  200SOD    SOD22328   6.549   0.021  11.769 -0.6578 -0.0273  0.0088
  201SOD    SOD22329   5.605   3.666   0.983 -0.5192  0.6846 -0.3828
  202SOD    SOD22330   4.490   1.816   5.909 -0.0576  0.0195  0.4031
  203SOD    SOD22331   5.992   5.097   4.354 -0.3805 -0.1047 -0.7758
  204SOD    SOD22332   6.071   5.825   5.428 -0.3855 -0.1321 -0.0491
  205SOD    SOD22333   2.866   5.107  10.726 -0.0933  0.0325 -0.0854
  206SOD    SOD22334   3.186   3.122  14.710  0.5323  0.2561  0.1920
  207SOD    SOD22335   3.071   1.513  13.174 -0.2519  0.7221  0.1004
  208SOD    SOD22336   2.700   6.697   2.000  0.1562 -0.1874 -0.3362
  209SOD    SOD22337   5.402   1.209   2.453 -0.2753  0.2686 -0.1342
  210SOD    SOD22338   3.808   1.275   3.538 -0.0331 -0.6116  0.1337
  211SOD    SOD22339   5.794   1.856  16.800  0.0519  0.1901  0.1275
  212SOD    SOD22340   4.687   3.616   4.945 -0.7373  0.9347 -0.5188
  213SOD    SOD22341   1.415   0.331  12.465  0.2030  0.8226  0.2119
  214SOD    SOD22342   0.287   5.107  16.304  0.2395 -0.2969 -0.0247
  215SOD    SOD22343   4.560   2.203   2.181  0.2662 -0.2272 -0.0982
  216SOD    SOD22344   0.665   6.343  11.242  0.3350 -0.1034 -0.5095
  217SOD    SOD22345   1.887   2.201   2.882 -0.5106  0.0730  0.1987
  218SOD    SOD22346   5.345   4.495   2.067 -0.3574  0.3710  0.1502
  219SOD    SOD22347   3.912   0.211  11.934 -0.0231  0.0687  0.0287
  220SOD    SOD22348   1.746   5.103  12.655  0.1240  0.0234  0.0301
  221SOD    SOD22349   6.745   4.681   5.746  0.2233  0.2347  0.2516
  222SOD    SOD22350   0.131   1.108   4.120  0.2580  0.0188 -0.2954
  223SOD    SOD22351   6.106   5.505  15.204 -0.0778 -0.0888 -0.1631
  224SOD    SOD22352   5.997   3.022  12.272  0.0940  0.3650 -0.4556
  225SOD    SOD22353   4.430   3.044  11.324 -0.2773  0.0545 -0.1855
  226SOD    SOD22354   1.361   3.020  12.148  0.7135 -0.2430 -0.5816
  227SOD    SOD22355   4.606   3.148  16.456  0.2633  0.0811 -0.1742
  228SOD    SOD22356   3.898   3.755  11.581 -0.4791 -0.0490  1.0791
  229SOD    SOD22357   1.922   5.331   6.267 -0.3244  0.4459 -0.6006
  230SOD    SOD22358   2.030   2.382   1.284  0.0339 -0.0596 -0.0637
  231SOD    SOD22359   2.668   0.648  11.038 -0.0038  1.0090 -0.1384
  232SOD    SOD22360   5.396   0.594  16.325  0.6618  0.2491  0.4099
  233SOD    SOD22361   2.370   4.119   4.235 -0.0745  0.7411 -0.1669
  234SOD    SOD22362   2.568   2.657  16.088  0.2266 -0.2300  0.1386
  235SOD    SOD22363   0.042   6.802  15.689  0.0607 -1.1686  0.7647
  236SOD    SOD22364   0.058   2.624   5.847  0.0216 -0.0591  0.2129
  237SOD    SOD22365   0.915   6.195  16.626  0.0503 -0.2288 -0.3189
  238SOD    SOD22366   2.486   1.799   5.443 -0.2396 -0.2615 -0.1751
  239SOD    SOD22367   0.164   2.238  12.103 -0.5924  0.7623  0.3765
  240SOD    SOD22368   3.804   6.493   1.736 -0.0563 -0.0587  0.3363
  241SOD    SOD22369   1.015   2.847  15.807 -0.7095 -0.5803  0.0829
  242SOD    SOD22370   3.585   0.046  11.985  0.0864 -0.4237 -0.1870
  243SOD    SOD22371   4.498   1.746  15.135  0.1516  0.0460  0.0826
  244SOD    SOD22372   1.986   5.927   5.295 -0.5644  0.2179  0.2579
  245SOD    SOD22373   0.304   4.429   6.040 -0.2017 -0.1632  0.2281
  246SOD    SOD22374   5.360   4.780  13.926 -0.4153  0.0450  0.1971
  247SOD    SOD22375   1.051   3.327   3.643  0.4139 -0.0828  0.8478
  248SOD    SOD22376   3.739   5.913  10.770 -0.1896 -0.0709  0.2259
  249SOD    SOD22377   1.007   4.954   5.973 -0.0758 -0.0592 -0.7948
  250SOD    SOD22378   3.409   5.003   6.016 -0.2609 -0.2663  0.2170
  251SOD    SOD22379   6.299   3.515   1.645  0.0080  0.1936 -0.1876
  252SOD    SOD22380   6.420   6.394   2.555 -0.1994 -0.0316 -0.0152
  253SOD    SOD22381   0.130   2.477  16.546  0.3742  0.1447  0.0263
  254SOD    SOD22382   5.152   5.585   5.646  0.2339 -0.6231  0.3956
  255SOD    SOD22383   1.904   0.480   6.080 -0.2633 -0.2179 -0.2312
  256SOD    SOD22384   0.881   2.767  10.906 -0.1948  0.0131  0.4087
  257SOD    SOD22385   6.673   3.706  16.789 -0.3167 -0.0178 -0.0292
  258SOD    SOD22386   1.737   4.807  14.425 -0.0655 -0.6329  0.3529
  259SOD    SOD22387   6.624   3.881   5.883  0.2981  0.2265  0.0189
  260SOD    SOD22388   5.082   0.927   0.034 -0.4853  0.0830  0.1724
  261SOD    SOD22389   3.782   5.970  16.691  0.1488  0.3303 -0.3401
  262SOD    SOD22390   4.048   6.814   5.314  0.2214 -0.2156 -0.0478
  263SOD    SOD22391   4.096   0.794   2.599  0.4727 -0.7147 -0.3923
  264SOD    SOD22392   2.166   4.171  15.838  0.0291  0.3103  0.0385
  265SOD    SOD22393   2.879   3.135  13.560 -0.1387  0.2770  0.0176
  266CLA    CLA22394   1.599   6.327  13.013 -0.3591  0.2764 -0.1757
  267CLA    CLA22395   0.310   6.610   1.417  0.3320  0.3850  0.2938
  268CLA    CLA22396   1.856   4.160   0.088 -0.0193  0.3354  0.2114
  269CLA    CLA22397   3.986   5.937   3.015 -0.1683  0.0956 -0.5547
  270CLA    CLA22398   0.090   4.015   4.597 -0.3647  0.1264  0.0896
  271CLA    CLA22399   4.780   1.477  16.307 -0.0038 -0.2691  0.2736
  272CLA    CLA22400   5.661   5.647  15.266 -0.0151  0.0203  0.0463
  273CLA    CLA22401   2.371   2.469  12.437  0.0036 -0.3388 -0.0033
  274CLA    CLA22402   0.439   4.077   3.120  0.5268 -0.1758  0.0137
  275CLA    CLA22403   4.692   2.567  15.892  0.4237  0.2850 -0.0319
  276CLA    CLA22404   4.555   5.430  11.898  0.0636  0.2406  0.0992
  277CLA    CLA22405   3.110   0.393   1.697 -0.1863  0.1696 -0.0123
  278CLA    CLA22406   5.335   0.434   0.196 -0.1732  0.1053  0.4100
  279CLA    CLA22407   1.237   1.762   1.141 -0.2251 -0.2095 -0.3098
  280CLA    CLA22408   1.620   0.643  14.855  0.0122 -0.4903  0.2007
  281CLA    CLA22409   5.894   2.170  12.090 -0.2084  0.1776  0.1861
  282CLA    CLA22410   2.373   4.660   5.603  0.4852  0.1151  0.4756
  283CLA    CLA22411   2.434   2.603  16.840  0.2437  0.1058 -0.4339
  284CLA    CLA22412   6.011   0.709  12.516  0.0269 -0.1847 -0.2092
  285CLA    CLA22413   4.970   3.751  14.428  0.0088  0.0477  0.1071
  286CLA    CLA22414   6.510   2.377  13.716 -0.0815  0.1430 -0.1010
  287CLA    CLA22415   0.218   1.995   0.312 -0.2640 -0.2241  0.4914
  288CLA    CLA22416   0.490   3.182  16.938  0.1742 -0.3096  0.3500
  289CLA    CLA22417   6.076   4.615   1.435  0.1973 -0.2831 -0.1711
  290CLA    CLA22418   4.178   0.157  15.333  0.0716 -0.0927 -0.5475
  291CLA    CLA22419   1.014   5.440  14.929 -0.1648 -0.1251  0.1536
  292CLA    CLA22420   4.884   1.995   1.906 -0.1275 -0.1566  0.1101
  293CLA    CLA22421   5.354   2.348   1.982  0.0498  0.1113  0.2999
  294CLA    CLA22422   5.663   5.493  14.411 -0.4350  0.2085 -0.0522
  295CLA    CLA22423   0.626   5.253  12.743 -0.2884 -0.2839 -0.2697
  296CLA    CLA22424   5.353   1.017   2.638 -0.6483  0.0150  0.6038
  297CLA    CLA22425   3.160   5.662  16.455 -0.2782 -0.3671 -0.0658
  298CLA    CLA22426   1.824   3.376  16.846 -0.0135 -0.5432  0.1320
  299CLA    CLA22427   6.619   4.699   2.318 -0.2572  0.3702  0.2562
  300CLA    CLA22428   3.338   6.356   5.539  0.1585  0.1438  0.4370
  301CLA    CLA22429   5.544   3.168   1.662  0.2183 -0.0093 -0.3873
  302CLA    CLA22430   4.058   4.818   5.621  0.3773  0.1784 -0.1379
  303CLA    CLA22431   0.547   3.664  11.738 -0.0955 -0.0642  0.2462
  304CLA    CLA22432   1.357   3.832  13.349  0.3058 -0.0257  0.1942
  305CLA    CLA22433   2.129   1.713   4.767 -0.7088  0.1660  0.0278
  306CLA    CLA22434   6.478   4.046   0.160  0.0218  0.0937 -0.3223
  307CLA    CLA22435   6.067   5.995   2.567 -0.3431  0.3868 -0.1231
  308CLA    CLA22436   2.574   2.222   2.553  0.7331  0.2435 -0.1133
  309CLA    CLA22437   3.342   3.164   4.983  0.4604  0.0791  0.0642
  310CLA    CLA22438   6.572   1.667   3.486 -0.0554  0.2301 -0.4033
  311CLA    CLA22439   3.581   4.348   2.518  0.2374 -0.0336 -0.1897
  312CLA    CLA22440   1.960   1.224   0.054 -0.3228  0.3545 -0.1179
  313CLA    CLA22441   2.869   2.349   1.890 -0.3903 -0.0484  0.1695
  314CLA    CLA22442   5.979   1.205  14.465  0.2227 -0.2432  0.1797
  315CLA    CLA22443   6.135   0.207   4.314 -0.0291  0.1816  0.2022
  316CLA    CLA22444   0.744   4.015  16.121  0.2975  0.2992  0.4929
  317CLA    CLA22445   0.518   2.060  15.367 -0.3458 -0.1349  0.0070
  318CLA    CLA22446   3.566   6.793   3.171 -0.1486  0.4405  0.1095
  319TIP3   OH222447   5.624   0.337   0.261 -0.1173 -0.4345  0.2061
  319TIP3    H122448   5.650   0.245   0.267 -0.2630 -0.4045  1.4732
  319TIP3    H222449   5.529   0.334   0.248  0.0681 -0.4781 -1.2740
  320TIP3   OH222450   0.435   4.623   4.604  0.0774 -0.2276  0.1143
  320TIP3    H122451   0.435   4.536   4.565  0.1139 -0.9040  1.5705
  320TIP3    H222452   0.493   4.616   4.680 -0.9377  0.6816  1.0190
  321TIP3   OH222453   5.094   4.835   5.426 -0.2354  0.0486 -0.1950
  321TIP3    H122454   5.172   4.878   5.392 -0.8064  1.2486 -0.0546
  321TIP3    H222455   5.121   4.800   5.511 -0.0661  1.2934  0.2967
  322TIP3   OH222456   1.365   5.889  17.089 -0.4200 -0.1355  0.2225
  322TIP3    H122457   1.326   5.906  17.003 -0.6769  0.8330  0.5134
  322TIP3    H222458   1.369   5.794  17.095 -1.5971 -0.2432 -0.3376
  323TIP3   OH222459   0.959   4.127   3.093  0.0754 -0.0497  0.1559
  323TIP3    H122460   0.884   4.140   3.152 -1.3613 -2.8173 -0.8609
  323TIP3    H222461   0.919   4.114   3.007  1.8122 -0.5936 -0.6080
  324TIP3   OH222462   6.592   1.065   4.465 -0.4637 -0.1085  0.1868
  324TIP3    H122463   6.523   1.118   4.426 -0.7251  0.0276  0.8158
  324TIP3    H222464   6.627   1.120   4.536  1.2266  0.3989 -0.9676
  325TIP3   OH222465   5.433   5.105  12.103 -0.2333 -0.4733 -0.5047
  325TIP3    H122466   5.477   5.164  12.042  0.6140 -0.4317  0.1229
  325TIP3    H222467   5.416   5.026  12.052 -0.1161 -0.2069 -0.9634
  326TIP3   OH222468   2.522   1.752  13.022 -0.4376 -0.3687  0.1681
  326TIP3    H122469   2.466   1.676  13.006 -0.0594 -0.4625 -0.8063
  326TIP3    H222470   2.552   1.779  12.935  1.6210 -0.7821  0.6747
  327TIP3   OH222471   3.080   0.332  11.616  0.2677  0.0545 -0.1211
  327TIP3    H122472   3.030   0.383  11.680  1.4182  0.9153  0.1256
  327TIP3    H222473   3.013   0.289  11.562 -0.7855 -1.3648  2.1263
  328TIP3   OH222474   0.022   5.390  13.591  0.1335 -0.5629  0.2913
  328TIP3    H122475   0.111   5.403  13.558  0.1241 -0.8762  0.1317
  328TIP3    H222476   0.033   5.341  13.673  0.1841  0.6375  1.0221
  329TIP3   OH222477   1.982   5.680  12.750 -0.6301 -0.4626 -0.1146
  329TIP3    H122478   2.035   5.736  12.693 -0.4174 -0.3451  0.1984
  329TIP3    H222479   1.971   5.731  12.830 -0.7299 -0.7249  0.0399
  330TIP3   OH222480   4.046   5.391   1.130  0.2208  0.2738 -0.3058
  330TIP3    H122481   4.087   5.399   1.044  1.2597 -1.4507 -0.0310
  330TIP3    H222482   4.032   5.297   1.141  0.6729  0.3901  1.6364
  331TIP3   OH222483   5.424   6.249   4.695  0.0339  0.0395 -0.3285
  331TIP3    H122484   5.420   6.246   4.791  2.2917  0.3373 -0.1624
  331TIP3    H222485   5.351   6.306   4.670 -0.8600 -0.3919  1.1686
  332TIP3   OH222486   1.877   3.633  14.066  0.1711 -0.6904  0.7906
  332TIP3    H122487   1.872   3.653  14.160  0.0829  1.9074  0.3020
  332TIP3    H222488   1.788   3.648  14.034  0.5657  0.0825  0.0224
  333TIP3   OH222489   2.152   1.163  15.771  0.0541  0.0718 -0.1739
  333TIP3    H122490   2.144   1.072  15.743 -1.1323  0.6236 -1.7956
  333TIP3    H222491   2.159   1.212  15.689 -0.2620  1.5202  0.6422
  334TIP3   OH222492   2.003   2.546   3.621 -0.2605  0.4265  0.1595
  334TIP3    H122493   2.086   2.583   3.651  1.3750 -0.8150 -2.4366
  334TIP3    H222494   2.003   2.456   3.654  0.5744 -0.2877 -1.6314
  335TIP3   OH222495   5.554   0.276   4.489 -0.0021 -0.6035  0.1871
  335TIP3    H122496   5.543   0.252   4.581  0.8362  0.5854  0.6303
  335TIP3    H222497   5.618   0.214   4.456  1.5563  0.4504  1.0990
  336TIP3   OH222498   3.610   3.262  13.203 -0.4248  0.3461  0.3725
  336TIP3    H122499   3.702   3.261  13.228  0.0291 -1.7554 -1.1552
  336TIP3    H222500   3.567   3.315  13.271  1.6156 -0.0883  2.0872
  337TIP3   OH222501   5.336   4.157  16.777  0.0251 -0.4475 -0.0279
  337TIP3    H122502   5.269   4.225  16.785 -1.1825 -1.2391 -2.5733
  337TIP3    H222503   5.366   4.163  16.687  1.7833 -1.6283  0.4293
  338TIP3   OH222504   4.824   4.224  14.832  0.4932 -0.0543 -0.1547
  338TIP3    H122505   4.877   4.235  14.911  1.8763  0.1337 -1.0695
  338TIP3    H222506   4.888   4.218  14.761 -0.6139 -2.3286 -1.0595
  339TIP3   OH222507   3.778   0.089   4.786  0.4286  0.5245 -0.2605
  339TIP3    H122508   3.756   0.113   4.696  0.9787  0.3171 -0.4586
  339TIP3    H222509   3.694   0.078   4.830  0.1135 -0.9087 -1.1703
  340TIP3   OH222510   0.805   3.144   5.628  0.0903 -0.6303 -0.7975
  340TIP3    H122511   0.826   3.196   5.550  1.1311 -2.2212 -1.6350
  340TIP3    H222512   0.839   3.196   5.701  2.0680 -0.5841 -1.6871
  341TIP3   OH222513   2.730   1.715  11.967  0.2271 -0.0904  0.0526
  341TIP3    H122514   2.767   1.776  12.031 -1.3770  0.2101  0.7370
  341TIP3    H222515   2.751   1.754  11.882  0.7829  0.4724  0.4411
  342TIP3   OH222516   6.140   6.465  14.775 -0.2731 -0.3060 -0.0643
  342TIP3    H122517   6.068   6.523  14.750 -0.7188 -1.0329 -0.4887
  342TIP3    H222518   6.098   6.382  14.799  0.1863  0.0574  2.2840
  343TIP3   OH222519   2.801   5.164  17.069 -0.0894 -0.6719  0.2323
  343TIP3    H122520   2.846   5.197  16.991  0.9504 -0.1322  1.0401
  343TIP3    H222521   2.798   5.069  17.056  1.2190 -0.7186  0.0918
  344TIP3   OH222522   4.981   6.317   0.704 -0.0558  0.0482  0.4855
  344TIP3    H122523   5.063   6.365   0.709 -1.1079  1.9662  0.2267
  344TIP3    H222524   4.950   6.311   0.794  0.0339 -0.0669  0.5084
  345TIP3   OH222525   6.726   2.175   2.380 -0.2641  0.0361 -0.5127
  345TIP3    H122526   6.775   2.130   2.448 -0.6251  2.3769  1.4572
  345TIP3    H222527   6.784   2.175   2.304  1.1216 -0.6897  0.5003
  346TIP3   OH222528   3.023   6.409  11.104 -0.0632  0.3219 -0.4424
  346TIP3    H122529   3.046   6.430  11.195  0.6554  2.6592 -1.0999
  346TIP3    H222530   2.934   6.444  11.094 -0.9787 -1.7994 -0.0905
  347TIP3   OH222531   1.992   5.174  16.629  0.4147 -0.1564  0.2608
  347TIP3    H122532   1.921   5.141  16.574 -0.1977  1.3225  0.1116
  347TIP3    H222533   2.048   5.098  16.645 -0.9753 -1.2613  0.0344
  348TIP3   OH222534   2.295   4.558  16.301 -0.5771 -0.3723  0.5785
  348TIP3    H122535   2.269   4.580  16.390 -0.7607 -1.6999  0.8723
  348TIP3    H222536   2.346   4.477  16.309  0.5512  0.2068 -0.3841
  349TIP3   OH222537   5.520   2.929  14.723  0.4750 -0.4801 -0.1060
  349TIP3    H122538   5.507   2.918  14.629 -0.0652  0.8886 -0.2088
  349TIP3    H222539   5.492   2.846  14.761  0.2744 -0.8883 -1.1147
  350TIP3   OH222540   6.725   3.077  13.583  0.2935 -0.3145 -0.8592
  350TIP3    H122541   6.702   3.059  13.491 -0.0085  2.3635 -1.3887
  350TIP3    H222542   6.655   3.133  13.614  0.0450 -1.7235  1.2805
  351TIP3   OH222543   5.973   2.071  17.063 -0.6610  0.2640 -0.2498
  351TIP3    H122544   5.922   1.993  17.082  0.7020 -0.8542 -0.9560
  351TIP3    H222545   5.992   2.065  16.969 -1.2627  1.9059 -0.5022
  352TIP3   OH222546   1.036   0.575   1.985 -0.2353 -0.5330 -0.2053
  352TIP3    H122547   0.943   0.587   1.964  0.2699 -0.5242 -2.7276
  352TIP3    H222548   1.059   0.653   2.036 -1.3269  0.0590 -0.5760
  353TIP3   OH222549   1.560   2.264  12.581 -0.0748 -0.0734  0.2693
  353TIP3    H122550   1.517   2.298  12.503  0.7065  0.2771 -0.0171
  353TIP3    H222551   1.652   2.255  12.556 -0.1264 -1.7373  0.5663
  354TIP3   OH222552   4.740   1.536   2.932 -0.8506  0.0525  0.2378
  354TIP3    H122553   4.704   1.458   2.973  0.4272  0.1559  1.6272
  354TIP3    H222554   4.778   1.505   2.850  0.7982 -1.0636  1.3771
  355TIP3   OH222555   0.085   4.320   1.564 -0.2650  0.1728 -0.2210
  355TIP3    H122556   0.025   4.328   1.490  0.2149  0.4932 -0.5763
  355TIP3    H222557   0.027   4.316   1.641 -0.7506  0.1497 -0.5839
  356TIP3   OH222558   6.351   5.846  16.831 -0.5112 -0.0484 -0.2972
  356TIP3    H122559   6.408   5.797  16.772 -0.4828  1.3638 -1.4880
  356TIP3    H222560   6.269   5.857  16.782 -1.3780 -0.8942  0.8703
  357TIP3   OH222561   2.174   4.971   1.489  0.3877 -0.3894  0.2253
  357TIP3    H122562   2.161   4.938   1.578 -1.4268 -5.5110 -1.5843
  357TIP3    H222563   2.259   4.935   1.462  0.4769  0.3048 -0.4747
  358TIP3   OH222564   3.355   2.501  11.219  0.0849  0.0726 -0.6335
  358TIP3    H122565   3.381   2.460  11.137 -0.9326 -0.9391 -0.4872
  358TIP3    H222566   3.265   2.470  11.233  0.4643 -0.3419  1.1896
  359TIP3   OH222567   6.051   2.364  15.838  0.7270  0.3713  0.3291
  359TIP3    H122568   6.051   2.426  15.911 -1.9964  1.6985 -0.6576
  359TIP3    H222569   6.127   2.389  15.786  2.6336 -0.5050  2.5320
  360TIP3   OH222570   5.750   0.458   3.898  0.1773  0.5837  0.4551
  360TIP3    H122571   5.742   0.364   3.880 -0.9201  0.6620  0.5002
  360TIP3    H222572   5.795   0.462   3.982 -0.1503  0.0864  0.6603
  361TIP3   OH222573   1.276   6.702   0.991 -0.7339  0.0002  0.2340
  361TIP3    H122574   1.205   6.645   1.022  0.9847 -2.1416  0.5087
  361TIP3    H222575   1.348   6.641   0.972  0.9034  2.0418 -0.4189
  362TIP3   OH222576   1.598   3.066  12.628 -0.5411  0.1295  0.3272
  362TIP3    H122577   1.657   3.089  12.699  1.6009 -0.4062 -1.1652
  362TIP3    H222578   1.532   3.010  12.668 -0.2184  0.9556  2.1226
  363TIP3   OH222579   3.126   5.308  17.137  0.0558 -0.4322 -0.0779
  363TIP3    H122580   3.211   5.298  17.180 -0.8989 -0.2959  1.9563
  363TIP3    H222581   3.105   5.401  17.148 -0.6286 -0.5916 -0.0292
  364TIP3   OH222582   6.435   5.446   3.165  0.0173  0.1505  0.2170
  364TIP3    H122583   6.359   5.436   3.223 -0.5748  0.8123 -0.4187
  364TIP3    H222584   6.435   5.367   3.112  0.4923 -0.4037  1.0332
  365TIP3   OH222585   1.633   5.697  12.187 -0.0438 -0.2011 -0.9325
  365TIP3    H122586   1.563   5.670  12.127 -0.4659  0.4490 -0.7371
  365TIP3    H222587   1.588   5.720  12.268  0.2701  1.2496 -1.1403
  366TIP3   OH222588   0.204   2.398  13.610  0.2724  0.4244  0.1222
  366TIP3    H122589   0.173   2.463  13.547 -0.9332  0.5805  0.8417
  366TIP3    H222590   0.154   2.319  13.591 -1.6053  1.0296  2.0706
  367TIP3   OH222591   5.984   1.979  11.277  0.1180  0.1277 -0.2882
  367TIP3    H122592   6.017   2.067  11.296  1.7292 -0.7584  1.3233
  367TIP3    H222593   5.961   1.943  11.363  0.7103 -1.4728 -0.7626
  368TIP3   OH222594   6.677   6.197  15.560 -0.9256 -0.1532  0.3484
  368TIP3    H122595   6.735   6.133  15.601 -1.3227 -1.4840 -1.0809
  368TIP3    H222596   6.604   6.206  15.621 -0.3429 -0.2318  1.0661
  369TIP3   OH222597   5.067   3.835  14.122 -0.1263  0.2728 -0.2498
  369TIP3    H122598   5.086   3.746  14.090 -1.1860  0.3751 -1.2566
  369TIP3    H222599   5.059   3.825  14.216  0.5011 -0.5698 -0.2744
  370TIP3   OH222600   3.247   6.348  12.350 -0.2398 -0.0714  0.0992
  370TIP3    H122601   3.279   6.415  12.411 -0.7805  0.8117 -0.5563
  370TIP3    H222602   3.321   6.289  12.337  1.6637  2.5880 -2.3469
  371TIP3   OH222603   5.090   6.399  15.965 -0.2018  0.2287  0.4992
  371TIP3    H122604   5.136   6.350  16.034  0.7856  1.4438  0.7240
  371TIP3    H222605   5.005   6.356  15.959  0.5966 -1.4704  0.7378
  372TIP3   OH222606   2.113   2.406  16.138  0.5099  0.4693  0.3950
  372TIP3    H122607   2.163   2.440  16.064 -0.4198  2.2854  0.5276
  372TIP3    H222608   2.160   2.328  16.166  3.0364  1.8389  0.2778
  373TIP3   OH222609   0.887   0.766   2.657  0.3675 -0.8633 -0.5269
  373TIP3    H122610   0.880   0.683   2.704 -0.9055  1.1446  3.2623
  373TIP3    H222611   0.972   0.802   2.683  0.1908 -0.2603 -0.7454
  374TIP3   OH222612   3.920   6.045   4.899 -0.0387 -0.6807  0.2433
  374TIP3    H122613   3.985   6.109   4.929  0.0459 -0.5781 -0.1532
  374TIP3    H222614   3.957   6.010   4.818 -0.3207 -0.8696  0.1976
  375TIP3   OH222615   0.045   3.284  10.901 -0.2566 -0.4936 -0.7541
  375TIP3    H122616   0.116   3.248  10.848  1.9108  0.0075  1.5989
  375TIP3    H222617   0.024   3.368  10.860  1.6994  0.1125 -0.6168
  376TIP3   OH222618   6.176   3.321   2.260 -0.5926  0.1265 -0.1208
  376TIP3    H122619   6.211   3.408   2.240  0.0351 -0.0369  0.2577
  376TIP3    H222620   6.252   3.263   2.254 -0.5409 -0.0710  1.7931
  377TIP3   OH222621   6.053   4.563  13.024  0.2645  0.7428  0.1828
  377TIP3    H122622   6.129   4.552  13.081 -1.0107  0.3685  1.9065
  377TIP3    H222623   6.015   4.647  13.050 -1.3775 -0.2728  1.2654
  378TIP3   OH222624   5.744   3.445  14.811  0.1696 -0.7062  0.0771
  378TIP3    H122625   5.676   3.510  14.797  0.4934 -0.2478  0.6339
  378TIP3    H222626   5.741   3.390  14.732 -1.7733 -1.5467  0.7008
  379TIP3   OH222627   0.660   1.137   4.891  0.4742 -0.2188  0.6937
  379TIP3    H122628   0.629   1.226   4.876  1.5254 -0.1045 -1.3052
  379TIP3    H222629   0.611   1.105   4.966  0.0519  2.0300  1.4340
  380TIP3   OH222630   4.862   1.171   0.668  0.0093  0.3388  0.2391
  380TIP3    H122631   4.929   1.233   0.639 -0.9826  1.5357  0.4673
  380TIP3    H222632   4.886   1.089   0.625  1.8777  0.6113  0.6655
  381TIP3   OH222633   0.455   1.102   0.347  0.0070 -0.1501  0.6234
  381TIP3    H122634   0.409   1.050   0.412  0.4475  0.3898  1.3854
  381TIP3    H222635   0.442   1.055   0.265 -0.9655 -0.5863  1.0097
  382TIP3   OH222636   1.297   3.909   6.154  0.4492 -0.4956 -0.3704
  382TIP3    H122637   1.219   3.925   6.207 -1.2691  0.6676 -3.0229
  382TIP3    H222638   1.316   3.816   6.166 -0.5705 -0.5360  1.2786
  383TIP3   OH222639   2.153   3.054  10.830 -0.0686 -0.0204  0.4629
  383TIP3    H122640   2.244   3.043  10.857 -0.1651  1.2135  1.3150
  383TIP3    H222641   2.105   3.068  10.911 -0.7731  0.9518 -0.1024
  384TIP3   OH222642   1.105   1.719   3.179  0.0969  0.0341 -0.2245
  384TIP3    H122643   1.066   1.800   3.144  0.4542  0.1740 -0.2994
  384TIP3    H222644   1.097   1.656   3.107 -1.9473 -0.5897  0.4657
  385TIP3   OH222645   6.385   0.589   3.484  0.0477  0.3307  0.0134
  385TIP3    H122646   6.355   0.538   3.409 -0.1767  0.7387 -0.1753
  385TIP3    H222647   6.307   0.633   3.518 -0.1336 -0.9881  1.3911
  386TIP3   OH222648   5.432   4.749  12.529  0.1740 -0.5581 -0.5912
  386TIP3    H122649   5.403   4.840  12.523 -1.0895 -1.0044 -1.6613
  386TIP3    H222650   5.516   4.754  12.575  0.3318  1.1904 -0.9950
  387TIP3   OH222651   0.036   6.673  15.003  0.2762 -0.5024 -0.0765
  387TIP3    H122652  -0.035   6.732  15.027  0.1009 -0.3555 -0.9513
  387TIP3    H222653   0.101   6.729  14.960  0.7872 -0.6906  0.4335
  388TIP3   OH222654   2.169   4.730  17.086  0.2277  0.0498 -0.1645
  388TIP3    H122655   2.265   4.725  17.085  0.2974  1.0085  0.7268
  388TIP3    H222656   2.141   4.643  17.113  0.8629 -0.0839  0.0837
  389TIP3   OH222657   6.559   5.444  16.648  0.4170 -0.5131  0.3974
  389TIP3    H122658   6.503   5.366  16.654  1.4659 -1.3152 -0.0300
  389TIP3    H222659   6.622   5.423  16.579  1.1453  0.4498  0.7568
  390TIP3   OH222660   4.086   2.047  16.182 -0.1807 -0.3286  0.5222
  390TIP3    H122661   4.107   2.118  16.122  1.1213  1.1595  2.6210
  390TIP3    H222662   3.993   2.058  16.201 -0.1223  0.4604  0.3774
  391TIP3   OH222663   0.045   0.239   2.680 -0.1916  0.3235 -0.2977
  391TIP3    H122664  -0.026   0.283   2.633 -0.0471 -1.0559 -1.8927
  391TIP3    H222665   0.098   0.310   2.715  0.2954  1.5285 -3.1822
  392TIP3   OH222666   2.299   3.547  10.445  0.2428 -0.0740 -0.0304
  392TIP3    H122667   2.370   3.521  10.385 -0.3318  0.0906 -0.8031
  392TIP3    H222668   2.339   3.545  10.532  1.5863  1.3796 -0.5706
  393TIP3   OH222669   0.314   4.068   5.625 -0.0815 -0.6301 -0.3079
  393TIP3    H122670   0.244   4.117   5.581 -0.2094  0.5525  1.1496
  393TIP3    H222671   0.394   4.113   5.600 -0.1968  0.3496  1.0175
  394TIP3   OH222672   1.472   0.777   2.575  0.6592  0.3712 -0.3199
  394TIP3    H122673   1.446   0.786   2.666 -0.1358 -0.4880 -0.4502
  394TIP3    H222674   1.454   0.863   2.537 -1.1441  0.1110 -0.1677
  395TIP3   OH222675   1.730   2.814  11.123  0.0471  1.0180 -0.2710
  395TIP3    H122676   1.808   2.758  11.118 -2.2468 -2.5418 -0.1342
  395TIP3    H222677   1.712   2.822  11.217 -1.1505 -0.5392 -0.3149
  396TIP3   OH222678   6.789   1.924  15.246 -0.0835 -0.1128  0.4298
  396TIP3    H122679   6.843   2.002  15.233 -0.6746 -0.0062 -1.9891
  396TIP3    H222680   6.699   1.955  15.231 -0.2433 -1.3972 -1.6800
  397TIP3   OH222681   1.113   0.376   2.902 -0.6641 -0.6181  0.2107
  397TIP3    H122682   1.101   0.340   2.990  0.8178 -0.0453  0.6867
  397TIP3    H222683   1.163   0.457   2.915 -0.0741 -0.7193 -1.1682
  398TIP3   OH222684   1.111   0.016   6.755  0.1987  0.3843  0.9752
  398TIP3    H122685   1.077   0.030   6.667  0.9125  0.4601  0.7048
  398TIP3    H222686   1.150  -0.072   6.752  0.7300  0.6135  1.0481
  399TIP3   OH222687   4.085   1.707  12.943  0.2880 -0.0815  0.1285
  399TIP3    H122688   3.997   1.741  12.954  0.7520  1.5116 -0.7227
  399TIP3    H222689   4.142   1.773  12.983  1.1820 -0.2313 -0.8335
  400TIP3   OH222690   4.281   6.443  14.848 -0.5611  0.5960 -0.2222
  400TIP3    H122691   4.265   6.498  14.925  1.3733  0.2200  0.5013
  400TIP3    H222692   4.376   6.442  14.838 -0.2043 -4.1451  1.0309
  401TIP3   OH222693   0.601   4.414   2.241 -0.2519 -0.1973  0.0470
  401TIP3    H122694   0.574   4.483   2.300  0.1460  0.0165 -0.0148
  401TIP3    H222695   0.597   4.334   2.293 -1.0924 -0.1860  0.0060
  402TIP3   OH222696   4.687   3.616   0.731 -0.0229 -0.2605  0.1998
  402TIP3    H122697   4.701   3.525   0.705  0.5425 -0.5158  1.3584
  402TIP3    H222698   4.638   3.610   0.813 -1.9980  0.5382 -0.8516
  403TIP3   OH222699   5.273   5.860  11.133  0.2145 -0.0056  0.1417
  403TIP3    H122700   5.278   5.803  11.210  1.6524 -1.0896 -0.6890
  403TIP3    H222701   5.336   5.930  11.151 -0.1444  0.2639  0.3512
  404TIP3   OH222702   5.712   0.911  15.248 -0.0807  0.3567 -0.5411
  404TIP3    H122703   5.760   0.830  15.234  0.0642  0.4300 -0.4782
  404TIP3    H222704   5.624   0.884  15.274 -0.2079  0.2195 -1.0941
  405TIP3   OH222705   5.738   5.136  15.247 -0.1272  0.6384 -0.1952
  405TIP3    H122706   5.648   5.115  15.222  0.1449  1.3848 -1.9372
  405TIP3    H222707   5.776   5.176  15.169  2.0451 -0.6117  0.1453
  406TIP3   OH222708   0.008   4.336   5.058 -0.5390 -0.2543 -0.5235
  406TIP3    H122709  -0.078   4.317   5.020 -0.3544 -0.7846 -0.6837
  406TIP3    H222710   0.055   4.382   4.989 -1.0354  0.9703 -0.0864
  407TIP3   OH222711   3.955   4.749  16.495  0.4241 -0.3819 -0.7049
  407TIP3    H122712   3.987   4.839  16.492 -0.6194 -0.0074 -2.4016
  407TIP3    H222713   3.891   4.748  16.565  3.3520 -0.9477  2.2147
  408TIP3   OH222714   0.903   6.650   3.931  0.4219  0.4151 -0.4001
  408TIP3    H122715   0.863   6.584   3.987 -0.5622  1.3673  0.0760
  408TIP3    H222716   0.856   6.643   3.848  0.1909  0.6387 -0.2883
  409TIP3   OH222717   3.531   3.763  17.085  0.1089 -0.2966  0.8392
  409TIP3    H122718   3.535   3.734  17.176 -0.7263  0.7626  1.2346
  409TIP3    H222719   3.453   3.818  17.081 -2.7546 -3.9978 -1.6049
  410TIP3   OH222720   5.319   5.511  14.647 -0.1225  0.0971  0.1859
  410TIP3    H122721   5.281   5.424  14.651  1.3509 -0.7984 -2.5438
  410TIP3    H222722   5.410   5.499  14.676 -0.2996  1.0179  1.1545
  411TIP3   OH222723   2.705   1.140  16.529  0.0773  0.1604  0.5415
  411TIP3    H122724   2.643   1.124  16.458 -1.2694  0.1983  1.6770
  411TIP3    H222725   2.680   1.226  16.564 -0.8282 -0.8975  2.5929
  412TIP3   OH222726   1.170   4.151   1.088  0.4132 -1.3006 -1.0554
  412TIP3    H122727   1.112   4.227   1.076  0.7324 -1.1151 -1.4309
  412TIP3    H222728   1.251   4.189   1.121 -0.0331 -1.6707  0.5524
  413TIP3   OH222729   1.482   0.950  11.765  0.6967  0.5441 -0.2572
  413TIP3    H122730   1.554   0.933  11.703  0.7924  0.2970 -0.0828
  413TIP3    H222731   1.521   1.004  11.833  0.7804  0.2302 -0.0497
  414TIP3   OH222732   1.834   4.446  14.340 -0.3097  0.3186  0.6634
  414TIP3    H122733   1.826   4.390  14.417 -0.0750 -2.7530 -1.3322
  414TIP3    H222734   1.922   4.427  14.306 -0.9159  0.4469 -1.1052
  415TIP3   OH222735   2.113   6.761  12.715 -0.5416 -0.2141 -0.3224
  415TIP3    H122736   2.048   6.810  12.765 -0.6245 -1.4204  0.8026
  415TIP3    H222737   2.188   6.752  12.774  0.0898 -0.1036 -1.0813
  416TIP3   OH222738   5.713   3.788   0.813  0.3434  0.3263  0.0996
  416TIP3    H122739   5.787   3.844   0.789  0.9146 -0.5589 -0.2551
  416TIP3    H222740   5.647   3.808   0.747  0.4999  0.6560  0.0367
  417TIP3   OH222741   2.877   1.156   0.391 -0.1544  0.1225  0.1386
  417TIP3    H122742   2.783   1.169   0.395 -0.8988 -2.3725 -3.9236
  417TIP3    H222743   2.910   1.229   0.338 -0.2449 -0.3288 -0.5553
  418TIP3   OH222744   2.558   6.288  11.771 -0.0473 -0.1237 -0.0819
  418TIP3    H122745   2.547   6.193  11.767  2.8402 -0.5930  0.4140
  418TIP3    H222746   2.564   6.316  11.680  1.1054 -0.7651 -0.2198
  419TIP3   OH222747   1.370   5.342  10.758  0.3549  0.2772  0.1893
  419TIP3    H122748   1.376   5.436  10.739 -1.8176  0.5171  0.3783
  419TIP3    H222749   1.367   5.301  10.672  0.1525  0.4930  0.0907
  420TIP3   OH222750   1.156   5.247   5.643 -0.4835  0.2590  0.3462
  420TIP3    H122751   1.145   5.243   5.548  2.2714  1.5963 -0.1577
  420TIP3    H222752   1.126   5.335   5.667 -0.6174  0.1462  0.5858
  421TIP3   OH222753   2.509   1.124   5.948 -0.2293  0.6472  0.2245
  421TIP3    H122754   2.416   1.123   5.970 -0.0301 -0.9642  1.1494
  421TIP3    H222755   2.552   1.147   6.030  0.1899  1.5273 -0.2357
  422TIP3   OH222756   1.213   4.967   1.028  0.1542  0.3848  0.2411
  422TIP3    H122757   1.253   4.925   0.952 -1.7123  0.2535 -0.7213
  422TIP3    H222758   1.206   4.896   1.092 -0.4570 -0.1063 -0.3585
  423TIP3   OH222759   4.990   5.712  14.078 -0.3574 -0.1578  0.3340
  423TIP3    H122760   4.961   5.765  14.152 -1.1272 -1.8620  1.3311
  423TIP3    H222761   4.909   5.678  14.040  0.0405  0.4810 -1.1693
  424TIP3   OH222762   6.631   0.125  11.586 -0.4549 -0.2620  0.0234
  424TIP3    H122763   6.638   0.057  11.520 -0.1394  0.0302 -0.2510
  424TIP3    H222764   6.671   0.202  11.545  0.2030 -0.2155  0.7431
  425TIP3   OH222765   3.659   2.645  14.179  0.1793  0.0694  0.0854
  425TIP3    H122766   3.739   2.597  14.200  0.0093  0.2263  1.1963
  425TIP3    H222767   3.618   2.660  14.265 -0.6489  0.6540 -0.4026
  426TIP3   OH222768   5.944   5.194   3.978  0.0358  0.0890  0.2598
  426TIP3    H122769   5.967   5.112   3.933 -0.1372  0.0236  0.2875
  426TIP3    H222770   6.025   5.222   4.020 -0.2622 -0.9202  1.5853
  427TIP3   OH222771   5.874   5.032   1.949  0.0616  0.1812  0.1646
  427TIP3    H122772   5.845   5.083   2.025  0.7683  1.1119 -0.1716
  427TIP3    H222773   5.844   5.083   1.873 -1.7054 -1.3435 -0.2335
  428TIP3   OH222774   5.543   2.800   5.265 -0.4747 -0.3132  0.1883
  428TIP3    H122775   5.591   2.743   5.205  2.3793  1.3645  0.6832
  428TIP3    H222776   5.532   2.749   5.344  0.9988 -0.6339  0.2202
  429TIP3   OH222777   3.022   0.484   1.368  0.4257  0.2305  0.0272
  429TIP3    H122778   3.073   0.465   1.446  2.2740  0.3820 -1.0734
  429TIP3    H222779   2.993   0.399   1.335 -0.6178  0.1891  1.0050
  430TIP3   OH222780   1.869   3.219  15.110  0.5589 -0.4886  0.1003
  430TIP3    H122781   1.832   3.205  15.023 -0.1351  0.1483  0.2900
  430TIP3    H222782   1.815   3.287  15.150  1.5588  0.0483  0.6048
  431TIP3   OH222783   4.650   0.859  14.528 -0.0936 -0.2622 -0.4698
  431TIP3    H122784   4.563   0.896  14.542 -0.0871 -0.1111 -0.8277
  431TIP3    H222785   4.688   0.852  14.616 -0.1278  0.4983 -0.3890
  432TIP3   OH222786   2.105   6.617   6.026  0.0408 -0.3338 -0.0390
  432TIP3    H122787   2.019   6.627   5.985 -0.4822  0.6188  1.2703
  432TIP3    H222788   2.135   6.530   5.996 -1.5126 -0.8330 -0.2303
  433TIP3   OH222789   1.884   2.655  13.201 -0.2235 -0.4086 -0.3378
  433TIP3    H122790   1.812   2.690  13.253 -0.5998 -0.8744 -0.5356
  433TIP3    H222791   1.961   2.701  13.232 -0.8415  1.3529 -1.2769
  434TIP3   OH222792   0.830   6.370   1.579  0.1077 -0.3627 -0.0300
  434TIP3    H122793   0.853   6.351   1.489 -2.7888  1.4873 -1.3120
  434TIP3    H222794   0.735   6.386   1.577 -0.3193 -1.4930  3.5894
  435TIP3   OH222795   0.748   0.113  14.728 -0.3839 -0.2170 -0.0871
  435TIP3    H122796   0.681   0.181  14.741 -1.0646 -0.7762 -0.6059
  435TIP3    H222797   0.748   0.063  14.809  0.0053  0.2976  0.2354
  436TIP3   OH222798   5.616   0.815   4.890  0.3520  0.4683  0.4639
  436TIP3    H122799   5.534   0.856   4.862  0.7538 -0.2368 -1.9460
  436TIP3    H222800   5.589   0.746   4.950 -0.5410  2.1893  2.1668
  437TIP3   OH222801   4.858   2.664  13.407 -0.2154 -0.1035  0.3683
  437TIP3    H122802   4.857   2.710  13.490 -1.1218  0.7686 -0.0982
  437TIP3    H222803   4.950   2.662  13.381  0.3343 -1.9762  2.2083
  438TIP3   OH222804   4.432   1.737   1.823  0.2388 -0.1157  0.4076
  438TIP3    H122805   4.519   1.776   1.825 -0.8135  2.4833  1.9368
  438TIP3    H222806   4.392   1.763   1.906 -1.8909 -1.4579 -0.1035
  439TIP3   OH222807   3.498   0.354   6.559 -0.0159  0.0512  0.2303
  439TIP3    H122808   3.548   0.418   6.508  0.9877 -0.5786  0.3818
  439TIP3    H222809   3.424   0.331   6.503  0.5164  0.1169 -0.5213
  440TIP3   OH222810   3.781   1.559   1.815  0.1004 -0.2812 -0.1483
  440TIP3    H122811   3.842   1.588   1.883 -0.1439  0.0657 -0.0757
  440TIP3    H222812   3.798   1.617   1.741  2.0329 -2.1184 -1.2923
  441TIP3   OH222813   2.354   0.412  15.558 -0.3365 -0.1024  0.3603
  441TIP3    H122814   2.415   0.480  15.529 -0.9043  0.3390  0.1766
  441TIP3    H222815   2.405   0.359  15.620  0.6918 -0.6516 -0.9062
  442TIP3   OH222816   2.468   3.497   6.308 -0.2679  0.2030 -0.2264
  442TIP3    H122817   2.381   3.533   6.290 -0.8151 -1.1748 -0.4479
  442TIP3    H222818   2.492   3.453   6.227 -0.5710 -1.7692  0.7104
  443TIP3   OH222819   0.423   0.477  11.194 -0.3377  0.5095  0.1644
  443TIP3    H122820   0.331   0.503  11.197 -1.2279 -2.1287 -1.3961
  443TIP3    H222821   0.425   0.389  11.230  1.2779 -0.1395 -1.3346
  444TIP3   OH222822   5.019   1.770  13.217 -0.2105 -0.4230  0.0185
  444TIP3    H122823   4.994   1.796  13.129 -0.0962 -2.1344 -0.5699
  444TIP3    H222824   4.937   1.747  13.261 -0.4057  1.6335  0.8306
  445TIP3   OH222825   3.654   4.821   3.345 -1.0583  0.2411 -0.6493
  445TIP3    H122826   3.661   4.730   3.374  1.4706  0.5869  0.0385
  445TIP3    H222827   3.692   4.821   3.257 -1.7069  0.5379 -0.9387
  446TIP3   OH222828   5.914   2.915  12.085  0.3295  0.3153  0.6521
  446TIP3    H122829   5.931   2.915  11.991  0.3294  1.1576  0.6489
  446TIP3    H222830   5.872   2.830  12.101 -0.5456  0.5482 -0.2727
  447TIP3   OH222831   3.169   0.344   2.001 -0.1075  0.9314 -0.0543
  447TIP3    H122832   3.150   0.259   1.963 -1.9255  0.9491  0.6691
  447TIP3    H222833   3.189   0.400   1.927 -0.4856  0.2420 -0.6894
  448TIP3   OH222834   2.436   3.464   0.530  0.1594  0.4921 -0.1270
  448TIP3    H122835   2.487   3.541   0.553 -0.8471  1.0476  0.3191
  448TIP3    H222836   2.359   3.499   0.484 -1.9089  0.0934  2.7694
  449TIP3   OH222837   2.818   4.440   6.446 -0.2376  0.1887  0.2660
  449TIP3    H122838   2.906   4.472   6.465  0.0558 -0.7695  0.5801
  449TIP3    H222839   2.831   4.370   6.382 -0.7037 -0.4187  0.8246
  450TIP3   OH222840   3.634   1.596   3.905  0.4687 -0.3553 -0.3489
  450TIP3    H122841   3.599   1.657   3.970  0.1028 -0.1357 -0.7466
  450TIP3    H222842   3.658   1.518   3.956  0.4856 -0.0655  0.0927
  451TIP3   OH222843   5.765   0.805  16.825 -0.2798 -0.0476 -0.1550
  451TIP3    H122844   5.780   0.763  16.741 -2.7703 -0.0846 -0.6652
  451TIP3    H222845   5.811   0.888  16.820 -0.0593 -0.2318 -1.3914
  452TIP3   OH222846   6.385   1.779   3.242  0.3320  0.7289 -0.1152
  452TIP3    H122847   6.437   1.825   3.176  1.0273  0.4911  0.2532
  452TIP3    H222848   6.449   1.728   3.292 -0.5044 -1.6048 -1.2706
  453TIP3   OH222849   6.005   2.520   0.796  0.1374  0.3065 -0.2804
  453TIP3    H122850   6.093   2.504   0.761 -0.3949 -0.2698 -1.4334
  453TIP3    H222851   6.019   2.569   0.877  1.5888 -1.0851  0.3576
  454TIP3   OH222852   2.083   0.987  15.385 -0.2319  0.0161 -0.3161
  454TIP3    H122853   2.067   0.951  15.472  1.6947 -0.4551 -0.1064
  454TIP3    H222854   2.048   0.922  15.325 -2.2949  0.7077  0.0666
  455TIP3   OH222855   4.557   4.841   3.987  0.0953  0.0610  0.1576
  455TIP3    H122856   4.558   4.822   4.081  0.1405 -0.7561 -0.0042
  455TIP3    H222857   4.465   4.859   3.967 -0.1175 -1.0329  0.1158
  456TIP3   OH222858   3.212   4.362   4.204  0.2114  0.9973  0.3323
  456TIP3    H122859   3.295   4.343   4.160  0.5046  0.2639  1.1748
  456TIP3    H222860   3.162   4.412   4.140  0.2228 -0.9068 -1.2616
  457TIP3   OH222861   1.510   5.661  16.597  0.5016 -0.5884 -0.4730
  457TIP3    H122862   1.579   5.727  16.606  1.5258 -1.7023  0.2340
  457TIP3    H222863   1.519   5.629  16.507  0.5502 -0.3582 -0.5516
  458TIP3   OH222864   1.411   4.410  15.048 -0.0010 -0.2605  0.1693
  458TIP3    H122865   1.399   4.318  15.071 -0.5176 -0.1460  0.3767
  458TIP3    H222866   1.505   4.420  15.034 -0.0642 -1.0979 -1.0524
  459TIP3   OH222867   5.835   3.140  14.905 -0.2760 -0.8186 -0.5894
  459TIP3    H122868   5.922   3.178  14.896  0.2098 -1.5893  0.5621
  459TIP3    H222869   5.776   3.216  14.910  0.5290 -0.2317  0.3540
  460TIP3   OH222870   0.061   6.628  10.651 -0.5029 -0.2845  0.1503
  460TIP3    H122871   0.045   6.624  10.557 -0.1689  2.5142 -0.1040
  460TIP3    H222872  -0.014   6.676  10.686  0.0527 -0.0806  1.1000
  461TIP3   OH222873   4.864   4.516  11.497  0.0293  0.2329  0.5048
  461TIP3    H122874   4.771   4.535  11.510 -0.6059 -1.9753 -0.3536
  461TIP3    H222875   4.907   4.552  11.575 -1.9034 -1.0451  2.2661
  462TIP3   OH222876   3.555   6.799  15.225 -0.3596  0.1401 -0.3142
  462TIP3    H122877   3.535   6.786  15.317 -0.9360 -1.5355 -0.6493
  462TIP3    H222878   3.612   6.726  15.202  2.8870  2.4966 -0.4370
  463TIP3   OH222879   5.654   0.839   3.203 -0.5043 -0.4820  0.5605
  463TIP3    H122880   5.735   0.788   3.196 -0.2681 -0.0950  0.4795
  463TIP3    H222881   5.660   0.904   3.134 -2.5392 -2.7148 -1.9357
  464TIP3   OH222882   5.390   5.190   5.564 -0.1013  0.0161  0.1607
  464TIP3    H122883   5.387   5.239   5.646 -2.6895  0.4162 -0.1005
  464TIP3    H222884   5.390   5.258   5.496  0.2931 -0.3221 -0.1755
  465TIP3   OH222885   0.689   1.161  14.280  0.1943  0.0907 -0.2358
  465TIP3    H122886   0.662   1.127  14.365 -1.0551  1.5828 -0.0046
  465TIP3    H222887   0.782   1.183  14.291  0.3589 -0.8744  0.3515
  466TIP3   OH222888   1.139   4.016  15.096  0.4019  1.0428  0.1389
  466TIP3    H122889   1.051   3.979  15.087  0.1790  1.6815 -0.4419
  466TIP3    H222890   1.189   3.949  15.142 -0.4408  0.7479  0.6460
  467TIP3   OH222891   1.821   5.934  14.471  0.6056  0.1129  0.0457
  467TIP3    H122892   1.732   5.925  14.505  0.0609 -1.0653 -1.5652
  467TIP3    H222893   1.867   5.986  14.537 -1.3551  1.0441  0.7424
  468TIP3   OH222894   0.198   5.162  13.486 -1.2608  0.0238  0.1458
  468TIP3    H122895   0.237   5.221  13.550 -1.4985  0.9947 -0.5770
  468TIP3    H222896   0.251   5.083  13.491 -0.7185  0.4209  0.8941
  469TIP3   OH222897   5.312   4.674   0.322  0.0430  0.0018  0.3098
  469TIP3    H122898   5.390   4.620   0.337 -0.2230 -0.1513  1.2370
  469TIP3    H222899   5.316   4.698   0.230 -0.1044 -2.0465 -0.2786
  470TIP3   OH222900   5.585   2.276   0.209 -0.0519 -0.7476  0.2199
  470TIP3    H122901   5.616   2.357   0.248  0.5268  0.8594 -3.1857
  470TIP3    H222902   5.508   2.302   0.157  0.4059 -2.2223 -1.2963
  471TIP3   OH222903   4.494   4.481   1.595  0.1364 -0.0723  0.3858
  471TIP3    H122904   4.559   4.531   1.646 -1.0575 -0.7093  2.6576
  471TIP3    H222905   4.523   4.390   1.601  0.9089 -0.0150 -1.6089
  472TIP3   OH222906   6.021   6.376  12.217 -0.2935  0.0357 -0.0637
  472TIP3    H122907   5.993   6.429  12.143 -2.1058 -2.4962 -1.3481
  472TIP3    H222908   6.107   6.343  12.191 -0.0268  0.7576 -0.1151
  473TIP3   OH222909   4.602   3.583   4.364  0.0272 -0.3510  0.0657
  473TIP3    H122910   4.593   3.655   4.426  2.3795 -0.5545  0.7097
  473TIP3    H222911   4.665   3.614   4.299 -4.1912  0.9260 -4.0314
  474TIP3   OH222912   3.970   0.488   5.542  0.4101  0.5319 -0.2278
  474TIP3    H122913   4.029   0.547   5.494  0.7176  1.0870  0.8059
  474TIP3    H222914   3.975   0.518   5.633 -1.6598  0.7777 -0.1406
  475TIP3   OH222915   4.501   6.555  17.087 -0.4137 -0.5250 -0.6884
  475TIP3    H122916   4.570   6.621  17.094 -0.2209 -0.7043 -0.8950
  475TIP3    H222917   4.509   6.503  17.167 -0.3582 -0.5004 -0.6783
  476TIP3   OH222918   3.445   6.422  13.590  1.1826  0.4395  0.3074
  476TIP3    H122919   3.374   6.427  13.654 -1.2822 -1.1285 -2.0944
  476TIP3    H222920   3.508   6.489  13.618 -0.5003  0.9041  3.3822
  477TIP3   OH222921   0.407   6.307  14.137  0.0103  0.4549 -0.5621
  477TIP3    H122922   0.337   6.342  14.192 -1.0029 -1.9381 -0.2148
  477TIP3    H222923   0.362   6.272  14.060  0.6199 -1.9771  0.0977
  478TIP3   OH222924   3.725   2.654   2.068  0.6789  0.1200 -0.8668
  478TIP3    H122925   3.697   2.573   2.110  1.3983 -0.9494 -2.3270
  478TIP3    H222926   3.702   2.723   2.130 -1.5150 -1.0255 -0.3050
  479TIP3   OH222927   5.460   2.547   1.045 -0.2041  0.5449 -0.1120
  479TIP3    H122928   5.396   2.618   1.032 -0.2605  0.3742 -0.7922
  479TIP3    H222929   5.408   2.467   1.039 -0.3726  0.4434  1.9581
  480TIP3   OH222930   2.520   0.360  14.500 -0.2305 -0.5486 -0.6730
  480TIP3    H122931   2.507   0.407  14.417  0.2584  1.0550  0.1227
  480TIP3    H222932   2.615   0.359  14.512 -0.3024 -0.7459 -0.1049
  481TIP3   OH222933   2.579   0.021  12.632 -0.4223 -0.5285  0.8907
  481TIP3    H122934   2.546   0.108  12.608  0.8354 -0.0277  0.9257
  481TIP3    H222935   2.530  -0.002  12.711  0.1278  0.7222  1.6195
  482TIP3   OH222936   1.975   0.468   0.437  0.6113 -0.1693  0.2947
  482TIP3    H122937   2.037   0.399   0.415 -1.5595 -1.5651 -1.8087
  482TIP3    H222938   2.028   0.548   0.437  2.6032 -1.4185 -0.3084
  483TIP3   OH222939   4.343   2.004   2.367  0.5382 -0.1089  0.0844
  483TIP3    H122940   4.337   2.099   2.376 -0.5953 -0.3613  2.8965
  483TIP3    H222941   4.276   1.982   2.302  1.8485  1.0812 -1.7625
  484TIP3   OH222942   1.361   6.001  13.358 -0.0801 -0.9226 -0.5949
  484TIP3    H122943   1.412   6.067  13.405  0.4880 -1.4307 -0.4872
  484TIP3    H222944   1.420   5.968  13.290 -1.0465  0.1264 -1.9881
  485TIP3   OH222945   3.186   3.902  11.776  0.6487 -0.2094  0.4575
  485TIP3    H122946   3.112   3.963  11.781  1.7769  1.3612 -0.6485
  485TIP3    H222947   3.146   3.817  11.756 -0.8635  0.5803 -0.0723
  486TIP3   OH222948   6.352   3.139  14.221  0.0908  0.3544  0.0243
  486TIP3    H122949   6.351   3.158  14.315 -0.1399  2.3175 -0.3313
  486TIP3    H222950   6.424   3.077  14.210  0.0301 -0.0216  1.5031
  487TIP3   OH222951   4.714   3.701  13.464  0.1570  0.4160  0.0862
  487TIP3    H122952   4.775   3.659  13.402 -0.4426  0.7022 -0.7149
  487TIP3    H222953   4.755   3.785  13.485  0.8718 -0.1228  0.9098
  488TIP3   OH222954   5.778   2.318   3.610  0.4477  0.0823 -0.0039
  488TIP3    H122955   5.819   2.400   3.585 -0.8640 -0.2029 -3.6330
  488TIP3    H222956   5.684   2.337   3.610  0.1966 -1.0692  0.6058
  489TIP3   OH222957   3.417   5.981   1.182  0.1961  0.0172 -0.1919
  489TIP3    H122958   3.419   5.915   1.113  0.3385  0.2501 -0.4098
  489TIP3    H222959   3.464   5.941   1.255  0.0534 -0.2241 -0.2323
  490TIP3   OH222960   6.638   2.601  12.405  0.1923 -0.1402  0.5630
  490TIP3    H122961   6.610   2.553  12.327 -0.7131  1.4163 -0.1257
  490TIP3    H222962   6.563   2.596  12.465 -0.6329  1.7880 -0.2139
  491TIP3   OH222963   5.147   3.266  13.677 -0.1655  0.3680  0.2100
  491TIP3    H122964   5.137   3.359  13.659  1.2006  0.7297  1.1558
  491TIP3    H222965   5.076   3.224  13.629 -0.4717  1.8433 -0.6738
  492TIP3   OH222966   6.198   4.725  14.576  0.2173  0.2049 -0.9411
  492TIP3    H122967   6.228   4.802  14.527 -0.7821  0.8574 -0.5628
  492TIP3    H222968   6.115   4.702  14.535  0.1734 -0.2507 -0.6044
  493TIP3   OH222969   5.837   4.709   0.746 -0.4379  0.3092 -0.3474
  493TIP3    H122970   5.845   4.616   0.725 -0.5240 -0.2136  1.6817
  493TIP3    H222971   5.927   4.741   0.751 -0.3647  0.0398  0.1032
  494TIP3   OH222972   5.699   2.138   1.826 -0.0837 -1.0710  0.0096
  494TIP3    H122973   5.713   2.222   1.781  0.3579  0.5496  2.9398
  494TIP3    H222974   5.788   2.107   1.845 -0.2138 -0.3858  1.9551
  495TIP3   OH222975   2.190   1.633  14.480 -0.4511 -0.2026 -0.7441
  495TIP3    H122976   2.217   1.541  14.476  1.0973  0.1578  0.4770
  495TIP3    H222977   2.247   1.672  14.546 -1.4416  1.5304 -0.8479
  496TIP3   OH222978   5.778   4.184  10.884 -0.2412  0.4664  0.1583
  496TIP3    H122979   5.743   4.270  10.861  0.9178  1.0214  0.3807
  496TIP3    H222980   5.866   4.202  10.918  0.1671 -0.8346 -0.1339
  497TIP3   OH222981   2.182   3.177   1.667 -0.0194  0.3431 -0.0952
  497TIP3    H122982   2.183   3.222   1.583 -0.2416 -1.3357 -1.0526
  497TIP3    H222983   2.271   3.187   1.701 -0.3318  2.3594  0.2645
  498TIP3   OH222984   2.914   5.442   2.326 -0.1096  0.4227  0.2419
  498TIP3    H122985   2.833   5.439   2.276  0.1052 -0.0419 -0.0848
  498TIP3    H222986   2.981   5.409   2.266  0.6527  2.4240 -0.1061
  499TIP3   OH222987   1.748   3.326  14.696 -0.2628 -0.5004  0.1099
  499TIP3    H122988   1.732   3.420  14.711  1.5862 -0.1112 -0.2133
  499TIP3    H222989   1.740   3.287  14.783  0.9436  0.2825  0.5942
  500TIP3   OH222990   3.768   0.813  12.294  0.4462 -0.0734  0.4058
  500TIP3    H122991   3.862   0.828  12.305  0.4698 -0.9592  1.5731
  500TIP3    H222992   3.733   0.899  12.269  1.7907 -0.1102 -1.8426
  501TIP3   OH222993   1.824   4.832   5.791 -0.2410 -0.5478  0.5276
  501TIP3    H122994   1.800   4.781   5.714 -0.2519 -0.6833  0.6218
  501TIP3    H222995   1.830   4.769   5.862 -1.1015 -0.2991  0.8338
  502TIP3   OH222996   3.512   6.154   6.255 -0.0827 -0.1449  0.1257
  502TIP3    H122997   3.588   6.168   6.311 -0.6553  1.0095  0.6616
  502TIP3    H222998   3.440   6.196   6.302 -0.7342  0.1691 -1.1036
  503TIP3   OH222999   1.634   3.243   5.221  0.0519 -0.0901 -0.2812
  503TIP3    H123000   1.728   3.257   5.219  0.0138  0.2187 -2.6661
  503TIP3    H223001   1.615   3.195   5.139 -1.6572 -1.6046  0.9132
  504TIP3   OH223002   0.456   0.740   0.414 -0.0513 -0.2408  0.5181
  504TIP3    H123003   0.467   0.828   0.380 -1.8179  0.0126  0.4997
  504TIP3    H223004   0.526   0.689   0.374 -0.7144  0.5330 -1.7410
  505TIP3   OH223005   4.537   1.679   0.273 -0.1229  0.3545  0.5224
  505TIP3    H123006   4.611   1.687   0.213 -0.7102  0.5025 -0.1845
  505TIP3    H223007   4.468   1.733   0.235 -1.0625 -0.8477  0.4620
  506TIP3   OH223008   1.291   5.169  16.715 -0.0158  0.5036 -0.5522
  506TIP3    H123009   1.368   5.226  16.706  1.1641 -1.0891 -0.9147
  506TIP3    H223010   1.227   5.224  16.759  1.4851  1.7504  0.2103
  507TIP3   OH223011   4.752   2.413  16.218 -0.0910  0.2133 -0.0693
  507TIP3    H123012   4.804   2.335  16.196  0.3055  0.0636  1.2862
  507TIP3    H223013   4.708   2.436  16.137  0.4745 -0.9065 -0.7246
  508TIP3   OH223014   2.426   3.371  12.757 -0.1472 -0.0759 -0.0614
  508TIP3    H123015   2.453   3.436  12.822 -1.0161 -1.6797  1.9898
  508TIP3    H223016   2.496   3.373  12.692 -0.2217  3.0085 -0.2137
  509TIP3   OH223017   4.518   4.969  11.739  0.2197 -0.6734  0.3806
  509TIP3    H123018   4.479   4.908  11.801 -0.7608 -0.4973 -0.0343
  509TIP3    H223019   4.522   5.053  11.786  1.7726 -1.0767  1.0266
  510TIP3   OH223020   2.847   0.207  14.868 -0.3210 -0.0608  0.6249
  510TIP3    H123021   2.827   0.115  14.885  0.3831  0.0269  2.1119
  510TIP3    H223022   2.935   0.206  14.830 -0.9883 -0.0925 -0.9920
  511TIP3   OH223023   1.463   2.822  12.194  0.3705  0.0031  0.1618
  511TIP3    H123024   1.450   2.765  12.270  0.8983 -2.4919 -1.5059
  511TIP3    H223025   1.533   2.780  12.144 -0.9066  0.7684 -2.4218
  512TIP3   OH223026   1.637   1.809   1.941  0.8693  0.4196 -0.0554
  512TIP3    H123027   1.606   1.736   1.995  2.6149 -1.0301 -0.8830
  512TIP3    H223028   1.558   1.844   1.900 -0.0683 -0.7297  0.6988
  513TIP3   OH223029   5.883   5.152  10.601 -0.2720  0.6883 -0.0305
  513TIP3    H123030   5.970   5.187  10.622 -0.4430  1.1991 -0.1451
  513TIP3    H223031   5.867   5.181  10.512  0.2341 -1.0354 -0.7212
  514TIP3   OH223032   6.818   5.418   6.267  0.1188 -0.2760 -0.0801
  514TIP3    H123033   6.816   5.455   6.179 -0.0127  0.7068  0.3176
  514TIP3    H223034   6.729   5.428   6.300  0.0870 -0.9472  0.0440
  515TIP3   OH223035   5.752   0.963  13.056 -0.0130 -0.1984  0.0905
  515TIP3    H123036   5.805   1.022  13.003  0.2139 -1.0279 -0.6292
  515TIP3    H223037   5.808   0.886  13.070 -1.0050 -1.0864 -0.6624
  516TIP3   OH223038   4.299   5.196   3.769  0.0601  0.3022 -1.0714
  516TIP3    H123039   4.391   5.212   3.790 -0.0658 -1.7032  1.4163
  516TIP3    H223040   4.261   5.284   3.762  1.4140  1.2179  1.5802
  517TIP3   OH223041   3.268   6.095   5.425  0.0532  0.0375  0.5797
  517TIP3    H123042   3.175   6.076   5.437 -0.1859  0.9912  0.2928
  517TIP3    H223043   3.284   6.173   5.478  0.6324  0.0383  0.4154
  518TIP3   OH223044   4.730   0.272  15.480 -0.4927  0.5327 -0.1693
  518TIP3    H123045   4.687   0.234  15.556  1.4470 -0.3206  0.5612
  518TIP3    H223046   4.731   0.201  15.415  0.3934  0.3254  0.0654
  519TIP3   OH223047   1.850   3.513  13.591 -0.2593 -0.5191  0.4875
  519TIP3    H123048   1.801   3.438  13.624 -1.1533 -0.0381  0.3166
  519TIP3    H223049   1.940   3.499  13.619 -0.6752 -0.9666  1.6210
  520TIP3   OH223050   5.577   1.775  12.933  0.2184 -0.0110 -0.3811
  520TIP3    H123051   5.545   1.732  13.012 -0.4186 -1.7148 -1.4990
  520TIP3    H223052   5.499   1.816  12.895  1.1056  4.0642  1.6603
  521TIP3   OH223053   1.347   2.498   0.045 -0.0254  0.0138 -0.3379
  521TIP3    H123054   1.351   2.431   0.113 -0.4120  2.0063  1.7459
  521TIP3    H223055   1.431   2.543   0.050 -0.3362  0.6418 -0.7048
  522TIP3   OH223056   1.507   1.522  17.040  0.4357  0.1350 -0.1688
  522TIP3    H123057   1.486   1.436  17.003 -1.9679  0.9831 -0.9217
  522TIP3    H223058   1.483   1.515  17.133 -1.5437  0.5002 -0.6172
  523TIP3   OH223059   3.185   4.879  14.619  0.0970  0.2004 -1.1915
  523TIP3    H123060   3.197   4.953  14.560 -0.4489  1.7931  0.5689
  523TIP3    H223061   3.240   4.900  14.695 -1.6278 -0.1362  0.2235
  524TIP3   OH223062   3.324   5.791   5.257 -0.7195 -0.2525  0.3197
  524TIP3    H123063   3.323   5.696   5.267 -2.1174 -0.2827  0.1041
  524TIP3    H223064   3.266   5.823   5.326  0.8948  0.5796  1.3573
  525TIP3   OH223065   2.770   2.133   0.773 -0.0423 -0.2411 -0.3069
  525TIP3    H123066   2.825   2.069   0.818  0.3445 -0.0017 -0.4322
  525TIP3    H223067   2.698   2.082   0.737  0.5641 -0.7045 -0.8997
  526TIP3   OH223068   5.416   1.480   0.568  0.6671 -0.3027 -0.1189
  526TIP3    H123069   5.436   1.554   0.511 -0.5353  0.1981  0.0808
  526TIP3    H223070   5.431   1.513   0.657  0.2718 -0.3314 -0.0380
  527TIP3   OH223071   4.606   6.814  15.962  0.2130  0.0816  0.2095
  527TIP3    H123072   4.623   6.730  15.919 -1.2318  0.1463 -0.5359
  527TIP3    H223073   4.693   6.851  15.976  0.8755 -1.4861  0.4710
  528TIP3   OH223074   5.346   5.402   5.404 -0.2729  0.2766 -0.3751
  528TIP3    H123075   5.253   5.419   5.394  0.0004  1.2942 -1.4587
  528TIP3    H223076   5.367   5.342   5.332 -0.1079 -0.0246 -0.0770
  529TIP3   OH223077   1.161   0.948  12.063 -0.0703 -0.2038 -0.1530
  529TIP3    H123078   1.145   0.915  12.152 -1.4714  0.0521 -0.2824
  529TIP3    H223079   1.255   0.940  12.051  0.3284  0.8765  1.7984
  530TIP3   OH223080   1.464   4.687   2.973 -0.2588  0.0465 -0.3103
  530TIP3    H123081   1.428   4.627   2.908  0.7211  0.2811 -1.0869
  530TIP3    H223082   1.535   4.733   2.928 -0.6101  1.3849  0.4451
  531TIP3   OH223083   3.850   2.348   2.740  0.8162 -0.5792 -0.3049
  531TIP3    H123084   3.785   2.418   2.751  0.6457  0.5479 -5.6936
  531TIP3    H223085   3.926   2.377   2.790 -0.3206  1.8888  0.1297
  532TIP3   OH223086   4.637   4.076   5.243  0.0650 -0.1938 -0.4235
  532TIP3    H123087   4.702   4.077   5.173  1.3164  0.1273  0.6925
  532TIP3    H223088   4.593   4.160   5.236 -1.4652 -1.0759 -2.2420
  533TIP3   OH223089   0.382   5.780   2.364  0.2067  0.4160 -0.0849
  533TIP3    H123090   0.374   5.702   2.309 -0.4897  0.6422 -0.3146
  533TIP3    H223091   0.323   5.763   2.438  1.4663 -0.0765  0.8376
  534TIP3   OH223092   5.052   1.197  16.135 -0.0644  0.2856 -0.5775
  534TIP3    H123093   5.107   1.140  16.189 -1.7270  0.1951  1.1679
  534TIP3    H223094   5.026   1.143  16.060 -0.8751 -1.0130  0.5839
  535TIP3   OH223095   5.974   2.499   4.891  0.0560  0.2942 -0.1072
  535TIP3    H123096   5.882   2.499   4.866  0.0931 -0.6026 -0.2530
  535TIP3    H223097   6.019   2.455   4.819  0.4251 -0.4880  0.5878
  536TIP3   OH223098   0.950   2.053   2.148 -0.4811  0.4933  0.7613
  536TIP3    H123099   0.905   2.086   2.226 -0.3647  1.5553  0.3918
  536TIP3    H223100   0.900   2.088   2.075 -0.4692 -0.3329  0.3429
  537TIP3   OH223101   4.393   2.679   6.711  0.8603  0.0117 -0.1018
  537TIP3    H123102   4.468   2.661   6.768  1.6850  2.3936 -0.3010
  537TIP3    H223103   4.429   2.677   6.622  0.6712  0.9028 -0.2141
  538TIP3   OH223104   2.608   6.743   2.406 -0.4517 -0.1957  0.1505
  538TIP3    H123105   2.534   6.788   2.446 -0.0594 -0.5867  1.3521
  538TIP3    H223106   2.618   6.663   2.457 -0.6293 -1.2872 -1.4287
  539TIP3   OH223107   6.719   2.586  11.875  0.0250  0.0306 -0.1889
  539TIP3    H123108   6.786   2.653  11.891  2.9212 -2.7594  0.3291
  539TIP3    H223109   6.692   2.601  11.785 -0.9559  3.0161  0.4579
  540TIP3   OH223110   1.813   2.161  10.519 -0.1152 -0.7475  0.1536
  540TIP3    H123111   1.786   2.172  10.611 -0.2884 -0.7273  0.1009
  540TIP3    H223112   1.740   2.197  10.468  0.5972  0.5973  0.0237
  541TIP3   OH223113   6.423   0.744  12.694 -0.4471  0.3473  0.1057
  541TIP3    H123114   6.354   0.681  12.715  0.0548 -1.1430 -2.3059
  541TIP3    H223115   6.378   0.815  12.649 -0.7483  0.8040  1.0946
  542TIP3   OH223116   0.390   3.599  12.844 -0.3690  0.3041 -0.2762
  542TIP3    H123117   0.296   3.612  12.857 -0.4391 -0.6497  0.3208
  542TIP3    H223118   0.398   3.575  12.752 -0.9812 -1.5621  0.1102
  543TIP3   OH223119   4.427   3.297   2.049  0.2561 -0.2717  0.1723
  543TIP3    H123120   4.423   3.257   2.136 -0.0187  0.5592  0.5576
  543TIP3    H223121   4.344   3.343   2.040  1.0258  1.2302  0.2828
  544TIP3   OH223122   4.693   3.383   4.897  0.4358  0.0125 -0.1420
  544TIP3    H123123   4.646   3.325   4.836  1.1547  0.4982 -1.1979
  544TIP3    H223124   4.720   3.326   4.968 -1.0132 -0.4427  0.0818
  545TIP3   OH223125   5.797   4.234   5.555  0.1336  0.5984  0.3506
  545TIP3    H123126   5.792   4.262   5.463  0.4747  1.2528  0.5271
  545TIP3    H223127   5.805   4.315   5.604  2.5976  0.1901  0.7758
  546TIP3   OH223128   6.464   3.707   4.456 -0.1036  0.3515 -0.1247
  546TIP3    H123129   6.506   3.788   4.486 -0.6238  0.3477  0.6326
  546TIP3    H223130   6.536   3.655   4.419  0.5447  0.4287  0.9880
  547TIP3   OH223131   2.930   6.096   5.727 -0.0693  0.3211  0.3831
  547TIP3    H123132   2.982   6.095   5.807  0.1357  0.7546  0.2577
  547TIP3    H223133   2.868   6.024   5.738  1.7084 -1.4023 -0.2199
  548TIP3   OH223134   3.728   3.471   1.497 -0.1536 -0.3435  0.4970
  548TIP3    H123135   3.682   3.424   1.566  0.2480  2.5372  2.9131
  548TIP3    H223136   3.803   3.511   1.541  0.7063  0.8163 -1.8456
  549TIP3   OH223137   6.064   2.834  11.091  0.3261 -0.3412  0.1547
  549TIP3    H123138   6.143   2.886  11.078  0.2988 -0.2972  0.1663
  549TIP3    H223139   6.091   2.744  11.072  0.7041 -0.5135  1.4275
  550TIP3   OH223140   6.470   1.429  14.632  0.4330  0.0345  0.2237
  550TIP3    H123141   6.501   1.397  14.547 -0.4646  1.6347 -0.7533
  550TIP3    H223142   6.375   1.426  14.625  0.3494  1.0825  0.8058
  551TIP3   OH223143   5.867   6.798  11.387 -0.4323 -0.4795  0.6417
  551TIP3    H123144   5.891   6.821  11.297  0.9681 -1.6809  0.6645
  551TIP3    H223145   5.867   6.881  11.434  2.1796 -0.1596  0.2467
  552TIP3   OH223146   2.162   2.193  17.206  0.0674 -0.2681 -0.0385
  552TIP3    H123147   2.169   2.275  17.254  0.6772 -1.1828  1.5167
  552TIP3    H223148   2.215   2.207  17.128 -0.0954  0.9129  0.0418
  553TIP3   OH223149   3.648   2.896   4.921  0.1698  0.5550 -0.3836
  553TIP3    H123150   3.577   2.926   4.978  0.9916  0.6634  0.6259
  553TIP3    H223151   3.716   2.963   4.930 -0.3428  1.5440 -2.9303
  554TIP3   OH223152   6.668   2.141   0.488  0.3042  0.0373  0.3627
  554TIP3    H123153   6.700   2.101   0.569  0.9217  2.4675  1.4071
  554TIP3    H223154   6.747   2.158   0.437 -0.0843 -1.5054 -0.8433
  555TIP3   OH223155   4.794   3.090  12.563  0.0056 -0.7068 -0.2391
  555TIP3    H123156   4.888   3.105  12.552  0.2587  0.0796  2.4631
  555TIP3    H223157   4.753   3.151  12.502  1.2111 -0.8359 -1.2235
  556TIP3   OH223158   5.785   5.534  16.210 -0.6072  0.0176 -0.3610
  556TIP3    H123159   5.870   5.534  16.254 -1.3260  1.3680  1.1366
  556TIP3    H223160   5.803   5.571  16.123  0.2847  0.6410  0.0768
  557TIP3   OH223161   1.903   4.340   0.385  0.0664  0.4249  0.1795
  557TIP3    H123162   1.881   4.248   0.368  1.8223  0.0494 -0.2724
  557TIP3    H223163   1.931   4.374   0.300 -0.2675  1.2964  0.4098
  558TIP3   OH223164   0.553   3.508   4.606 -0.1039  0.0015 -0.0351
  558TIP3    H123165   0.552   3.600   4.633 -0.7411  0.3120 -1.0622
  558TIP3    H223166   0.596   3.462   4.678 -1.2123  0.8697  1.2109
  559TIP3   OH223167   5.084   3.068   2.759 -0.5864 -0.3992 -0.3537
  559TIP3    H123168   5.119   3.138   2.815  0.6849 -0.2734 -1.2649
  559TIP3    H223169   5.155   3.005   2.751 -0.6116 -0.2644 -2.0679
  560TIP3   OH223170   6.605   3.406   2.091  0.4289 -1.1351  0.2010
  560TIP3    H123171   6.697   3.424   2.107  0.2937 -0.9095  0.7730
  560TIP3    H223172   6.575   3.364   2.172 -1.0517  2.9088  2.0198
  561TIP3   OH223173   2.698   2.548  14.780 -0.0710  0.1647  0.3017
  561TIP3    H123174   2.768   2.610  14.802  0.0821  0.0030  0.2721
  561TIP3    H223175   2.649   2.592  14.710 -0.1694  0.3985  0.5146
  562TIP3   OH223176   2.032   5.813   4.376  0.5915 -0.0734  0.2035
  562TIP3    H123177   2.010   5.838   4.286  1.2700 -1.2026 -0.2889
  562TIP3    H223178   2.123   5.785   4.371  0.6264 -0.1718  1.2442
  563TIP3   OH223179   6.272   0.452  15.118 -0.1765  0.1016  0.1809
  563TIP3    H123180   6.358   0.479  15.086  0.7136 -3.1464 -0.5238
  563TIP3    H223181   6.282   0.447  15.213 -0.6851  2.8853  0.4692
  564TIP3   OH223182   5.321   3.723   5.549 -0.0931 -0.3846  0.2213
  564TIP3    H123183   5.337   3.751   5.639  1.7130 -2.8754  0.7599
  564TIP3    H223184   5.226   3.732   5.538 -0.2793  0.5372  2.1305
  565TIP3   OH223185   1.487   3.730  16.435  0.0150 -0.6593 -0.1015
  565TIP3    H123186   1.563   3.678  16.461 -0.0335 -1.3401 -1.2338
  565TIP3    H223187   1.417   3.699  16.492  0.0263 -1.7526 -0.6440
  566TIP3   OH223188   2.407   5.068  11.992 -0.7401  0.2958 -0.4007
  566TIP3    H123189   2.472   4.998  11.988  0.3587  1.3310 -1.3359
  566TIP3    H223190   2.385   5.086  11.900 -3.0649 -0.6483 -0.0890
  567TIP3   OH223191   4.370   1.191   3.966 -0.7875  0.2665  0.5077
  567TIP3    H123192   4.356   1.097   3.974  1.6134 -0.1976  0.0434
  567TIP3    H223193   4.325   1.229   4.042 -1.2510 -1.3073  1.0544
  568TIP3   OH223194   1.278   2.464   2.380 -0.2328  0.1901 -0.4839
  568TIP3    H123195   1.323   2.436   2.459 -0.2495 -1.1552 -0.9185
  568TIP3    H223196   1.344   2.457   2.311 -0.3740  0.8158 -0.6954
  569TIP3   OH223197   3.775   4.781  15.221 -0.4117  0.1428 -0.1344
  569TIP3    H123198   3.756   4.688  15.208 -0.4880  0.1385  0.0137
  569TIP3    H223199   3.732   4.804  15.303  2.5256 -0.5433  1.7801
  570TIP3   OH223200   5.720   2.626   3.216 -0.3205 -0.2849 -0.3088
  570TIP3    H123201   5.762   2.561   3.159  1.5377  1.7786 -1.4038
  570TIP3    H223202   5.651   2.664   3.162  0.1410  0.2929 -0.4911
  571TIP3   OH223203   3.267   2.517   4.019  0.4411  0.0930  0.6087
  571TIP3    H123204   3.340   2.577   4.034 -1.6825  3.4537 -1.3344
  571TIP3    H223205   3.188   2.570   4.034 -1.6154 -2.3652 -0.7121
  572TIP3   OH223206   5.630   4.041  13.766  0.2256  0.5665  0.1760
  572TIP3    H123207   5.664   4.130  13.780 -0.1718  0.5624  1.1960
  572TIP3    H223208   5.618   4.036  13.671  0.7360  1.4228  0.0494
  573TIP3   OH223209   0.014   5.998  11.565 -0.7582  0.2799  0.0456
  573TIP3    H123210   0.091   6.034  11.520  0.3731  1.0893  2.3929
  573TIP3    H223211  -0.060   6.047  11.529  0.2483  1.8607  0.0169
  574TIP3   OH223212   0.270   0.798  16.790 -0.0409  0.5777  0.1781
  574TIP3    H123213   0.354   0.803  16.835 -0.3803  0.4972  0.8247
  574TIP3    H223214   0.214   0.862  16.835 -0.7977 -0.4809  0.7867
  575TIP3   OH223215   2.357   2.800  12.448 -0.6886 -0.0954 -0.4570
  575TIP3    H123216   2.355   2.704  12.445  2.0283 -0.2238 -1.0156
  575TIP3    H223217   2.270   2.827  12.417 -1.4686 -2.3524 -0.4488
  576TIP3   OH223218   0.107   3.053  15.503 -0.0663  0.8036 -0.6146
  576TIP3    H123219   0.043   3.052  15.575  1.2853 -1.5074  0.6606
  576TIP3    H223220   0.165   3.126  15.525 -0.7413  1.3046 -0.4221
  577TIP3   OH223221   5.886   1.499  17.266  0.0846 -0.8821  0.3525
  577TIP3    H123222   5.960   1.559  17.260 -1.1423  0.7774  0.9022
  577TIP3    H223223   5.907   1.443  17.341  0.8440 -0.5683  0.3863
  578TIP3   OH223224   0.910   1.290   0.074  0.5488  0.5050  0.2162
  578TIP3    H123225   0.888   1.381   0.094  2.6877  1.3138 -0.7774
  578TIP3    H223226   0.978   1.267   0.138  0.1273 -0.3654  0.3742
  579TIP3   OH223227   5.206   3.926  16.561 -0.5683  0.5792 -0.1976
  579TIP3    H123228   5.113   3.922  16.585 -0.1914  0.3857  1.3228
  579TIP3    H223229   5.220   4.018  16.537 -1.0090  0.7491  0.1757
  580TIP3   OH223230   5.932   0.909  13.388  0.5851  0.7418  0.1555
  580TIP3    H123231   5.904   0.926  13.298  0.6898  0.3901  0.0561
  580TIP3    H223232   5.960   0.818  13.388  1.0483  0.8830  0.4282
  581TIP3   OH223233   0.033   4.022   4.966  0.7080  0.6584 -0.3801
  581TIP3    H123234   0.099   4.091   4.962  0.4085  0.9541 -0.3159
  581TIP3    H223235   0.040   3.976   4.882  0.1890  1.4432 -0.8619
  582TIP3   OH223236   1.160   5.808  13.316 -0.6755 -0.4915 -0.3159
  582TIP3    H123237   1.217   5.873  13.359  0.6039 -0.7135 -1.5892
  582TIP3    H223238   1.219   5.737  13.291 -1.9389 -1.8440  0.4132
  583TIP3   OH223239   1.600   0.339  15.266 -0.0709 -0.2251 -0.3686
  583TIP3    H123240   1.665   0.387  15.215 -1.7571 -0.3779 -2.8310
  583TIP3    H223241   1.535   0.405  15.290  0.4139 -0.2681  1.1851
  584TIP3   OH223242   4.383   3.010  11.098  0.1362  0.0405 -0.6662
  584TIP3    H123243   4.313   3.012  11.032 -0.5667  0.7233  0.0782
  584TIP3    H223244   4.439   2.937  11.071 -1.0655 -0.7656 -1.0717
  585TIP3   OH223245   1.741   6.408  13.968 -1.0264 -1.1362 -0.3353
  585TIP3    H123246   1.691   6.490  13.960  0.1418 -0.4365 -0.8341
  585TIP3    H223247   1.719   6.374  14.054 -0.5953  0.3817  0.4141
  586TIP3   OH223248   6.621   0.200   0.743 -0.5696 -0.3168  0.7155
  586TIP3    H123249   6.658   0.267   0.686 -0.1925 -2.6699 -2.0183
  586TIP3    H223250   6.654   0.117   0.708 -2.2875 -2.0813  2.9224
  587TIP3   OH223251   4.190   5.421  13.119  0.1086 -0.0986  0.4529
  587TIP3    H123252   4.110   5.447  13.075 -0.4963  1.3516  2.2816
  587TIP3    H223253   4.259   5.432  13.053 -0.9542  0.4693 -0.5814
  588TIP3   OH223254   5.383   0.951   5.844  0.8270 -0.6599  0.2581
  588TIP3    H123255   5.441   0.900   5.901  1.5853  0.3927  0.4653
  588TIP3    H223256   5.440   0.984   5.775  0.8141  1.4666  1.1641
  589TIP3   OH223257   0.436   3.222   5.767  0.4215 -0.1002 -0.0402
  589TIP3    H123258   0.409   3.145   5.718  0.0045  0.5922 -0.9358
  589TIP3    H223259   0.530   3.228   5.753  0.4919 -0.5704  0.2184
  590TIP3   OH223260   6.105   6.455   3.795  0.2541  0.0424 -0.6665
  590TIP3    H123261   6.046   6.500   3.855  0.6337  0.5346 -0.6642
  590TIP3    H223262   6.070   6.366   3.790 -0.4577  0.3133 -0.6211
  591TIP3   OH223263   2.436   4.877   4.650  0.3166  0.1156  0.0852
  591TIP3    H123264   2.481   4.919   4.723  0.7636 -1.1342  0.5601
  591TIP3    H223265   2.502   4.870   4.581  0.4709 -0.4837  0.2868
  592TIP3   OH223266   0.336   2.012   3.166  0.1099  0.4847 -0.3457
  592TIP3    H123267   0.329   1.976   3.078  0.4484  1.2223 -0.6745
  592TIP3    H223268   0.374   1.940   3.218  0.3824  0.2240 -0.9028
  593TIP3   OH223269   3.520   4.098  12.455 -0.3338  0.6934 -1.0747
  593TIP3    H123270   3.492   4.151  12.530  0.6238  0.1454 -0.2998
  593TIP3    H223271   3.504   4.008  12.483 -0.2042  0.4918 -1.6396
  594TIP3   OH223272   6.153   4.345   2.069 -0.3881  0.3495  0.1740
  594TIP3    H123273   6.077   4.392   2.106 -1.6205 -0.4616 -1.2299
  594TIP3    H223274   6.181   4.399   1.996  0.4732  0.6872  0.7385
  595TIP3   OH223275   1.221   3.268  16.543 -0.5421  0.1114 -0.2424
  595TIP3    H123276   1.207   3.312  16.459 -2.1337  0.2907  0.0710
  595TIP3    H223277   1.314   3.280  16.561 -0.4339  1.2140 -1.3471
  596TIP3   OH223278   2.515   5.267   3.184 -0.4876  0.6815  0.0061
  596TIP3    H123279   2.488   5.221   3.105  1.4403  0.2016 -0.4256
  596TIP3    H223280   2.506   5.360   3.162  0.1893  0.5520 -0.8435
  597TIP3   OH223281   5.415   5.689  13.028 -0.1884 -0.3796  0.2883
  597TIP3    H123282   5.346   5.625  13.017 -1.6321  0.6399  2.7167
  597TIP3    H223283   5.377   5.771  12.997  0.8223 -0.2018 -0.5716
  598TIP3   OH223284   2.875   0.826   1.479  0.1841  0.3531 -0.1761
  598TIP3    H123285   2.947   0.799   1.537  0.0192 -0.1572 -0.2008
  598TIP3    H223286   2.888   0.920   1.467 -0.1531  0.5907  1.1973
  599TIP3   OH223287   2.060   0.352   1.219 -0.0621  0.7292 -0.6671
  599TIP3    H123288   2.007   0.289   1.267 -1.0198  1.8085 -0.2511
  599TIP3    H223289   2.013   0.366   1.137 -0.1634  1.2965 -0.5215
  600TIP3   OH223290   6.712   6.061   3.167 -0.0789  0.7653 -0.2355
  600TIP3    H123291   6.762   5.985   3.138  0.3367  1.0655 -0.3088
  600TIP3    H223292   6.770   6.107   3.227 -0.6253  0.5989  0.4406
  601TIP3   OH223293   6.173   1.395  12.178 -0.0095  0.6830  0.7005
  601TIP3    H123294   6.229   1.410  12.102  0.0888  0.9992  0.8309
  601TIP3    H223295   6.227   1.422  12.253  0.0002  0.1020  0.9092
  602TIP3   OH223296   1.470   3.729  13.607 -0.5818 -0.1472 -0.3909
  602TIP3    H123297   1.443   3.768  13.523  0.6362 -0.4323 -0.9410
  602TIP3    H223298   1.421   3.647  13.612  0.8372 -1.1624 -1.8692
  603TIP3   OH223299   4.527   5.105   2.720 -0.3402  0.1582 -0.1839
  603TIP3    H123300   4.599   5.128   2.779 -2.1658 -0.1419  2.3679
  603TIP3    H223301   4.529   5.170   2.651  0.3232  2.2490  1.7014
  604TIP3   OH223302   5.349   3.803   5.846 -0.0826 -0.0762 -0.1523
  604TIP3    H123303   5.323   3.781   5.935 -0.0011 -1.7364 -0.5139
  604TIP3    H223304   5.444   3.812   5.851  0.5055 -4.1577 -0.7540
  605TIP3   OH223305   2.351   3.759  13.341  0.2180 -0.1316  1.1346
  605TIP3    H123306   2.382   3.690  13.283 -0.5985  0.3492  0.0964
  605TIP3    H223307   2.420   3.825  13.339 -0.3659  0.4789 -0.3693
  606TIP3   OH223308   5.727   1.798   2.160  0.0994  0.2075  0.2366
  606TIP3    H123309   5.652   1.857   2.169 -1.9781 -2.1278 -0.6563
  606TIP3    H223310   5.742   1.792   2.066  0.8763  0.0041  0.3657
  607TIP3   OH223311   5.649   2.620  17.199 -0.4502  0.5495 -0.1450
  607TIP3    H123312   5.567   2.658  17.167 -0.6443  2.0117  1.8847
  607TIP3    H223313   5.657   2.653  17.288  3.1928  1.9167 -0.7884
  608TIP3   OH223314   4.860   1.020  14.428  0.2289  0.3789  0.4362
  608TIP3    H123315   4.917   0.994  14.356 -0.1797  1.0152 -0.1365
  608TIP3    H223316   4.792   0.953  14.430 -0.0667  0.6545 -0.1386
  609TIP3   OH223317   2.226   2.567  11.388  0.1518 -0.4362 -0.2125
  609TIP3    H123318   2.301   2.507  11.395  0.9607  0.5526 -0.2482
  609TIP3    H223319   2.257   2.650  11.423 -1.3140 -0.3110  0.8798
  610TIP3   OH223320   2.192   1.455   2.009 -0.3283  0.2294 -0.3240
  610TIP3    H123321   2.163   1.545   1.993 -0.6118  0.2125  0.0696
  610TIP3    H223322   2.236   1.458   2.094 -1.7286 -0.2797  0.4728
  611TIP3   OH223323   4.923   5.655   3.272  0.3874 -0.2679 -0.5220
  611TIP3    H123324   4.929   5.572   3.224 -3.3146 -1.0757  0.0496
  611TIP3    H223325   4.852   5.702   3.229  0.9696  1.6581  0.5354
  612TIP3   OH223326   2.456   5.823   0.328 -0.2057  0.0820 -0.0169
  612TIP3    H123327   2.389   5.782   0.383  0.8949  1.0422  2.1277
  612TIP3    H223328   2.539   5.794   0.366  0.6231  0.1638 -1.6732
  613TIP3   OH223329   0.297   3.204  11.470 -0.0103 -0.7546  0.4288
  613TIP3    H123330   0.377   3.207  11.418  1.4453  2.1778  2.5373
  613TIP3    H223331   0.325   3.225  11.559 -2.7058 -3.0979  2.0014
  614TIP3   OH223332   4.981   2.433   0.727 -0.0263 -0.0517 -0.1879
  614TIP3    H123333   4.948   2.345   0.712  0.6402 -0.3844  0.2529
  614TIP3    H223334   5.022   2.429   0.814 -1.4607  1.1207  0.5929
  615TIP3   OH223335   1.524   1.007   2.442  0.2467 -0.1871 -0.1981
  615TIP3    H123336   1.431   1.003   2.420  0.0865 -0.7724  0.5471
  615TIP3    H223337   1.568   1.027   2.359 -0.6859  2.0596 -0.2216
  616TIP3   OH223338   1.063   1.570  16.524  0.0919 -0.2874  0.0929
  616TIP3    H123339   1.053   1.611  16.438  1.5458  0.9665  0.4925
  616TIP3    H223340   0.979   1.527  16.539 -0.3421 -0.1774 -1.7616
  617TIP3   OH223341   1.142   2.593  11.665  0.1378  0.0519 -0.2993
  617TIP3    H123342   1.065   2.622  11.713 -0.6033 -0.5265 -1.1191
  617TIP3    H223343   1.175   2.518  11.714  0.1774  0.2813  0.0318
  618TIP3   OH223344   3.020   3.193   6.198 -0.5243 -0.1234 -0.5594
  618TIP3    H123345   2.934   3.233   6.185  0.1851  1.0408 -1.9917
  618TIP3    H223346   3.002   3.099   6.205 -2.1926  0.3074  2.4069
  619TIP3   OH223347   3.204   0.818   3.742 -0.8763 -0.3276 -0.1793
  619TIP3    H123348   3.231   0.795   3.653 -0.2394 -0.1955 -0.0281
  619TIP3    H223349   3.171   0.736   3.779  1.4616 -1.0895  0.3846
  620TIP3   OH223350   2.753   5.900   6.377 -0.6901  0.0553  0.3717
  620TIP3    H123351   2.827   5.957   6.397 -1.5144  2.0787 -1.8716
  620TIP3    H223352   2.707   5.890   6.460  1.4997 -0.4429  1.6003
  621TIP3   OH223353   2.571   2.453   4.387 -0.2349  0.3839  0.3369
  621TIP3    H123354   2.636   2.491   4.327  0.4668 -2.6963 -1.0716
  621TIP3    H223355   2.596   2.486   4.473  0.6070  2.5655 -0.6687
  622TIP3   OH223356   2.463   5.884  15.873  0.0432  0.0838  1.0203
  622TIP3    H123357   2.430   5.957  15.821 -0.6149 -2.0061 -1.7594
  622TIP3    H223358   2.388   5.858  15.928 -1.2818 -1.0960 -1.1676
  623TIP3   OH223359   2.609   5.075  12.866 -0.0940 -0.0482  0.5557
  623TIP3    H123360   2.516   5.064  12.848 -0.3506  2.8433 -0.5310
  623TIP3    H223361   2.653   5.043  12.787 -0.2237 -0.7330  0.7613
  624TIP3   OH223362   2.643   1.281  15.553  0.2895  0.0258  0.1943
  624TIP3    H123363   2.660   1.230  15.633  1.4761 -0.0778 -0.1091
  624TIP3    H223364   2.680   1.229  15.483 -1.4778 -0.2773 -0.5639
  625TIP3   OH223365   6.007   3.681   4.688 -0.5080  0.2393 -0.1921
  625TIP3    H123366   5.952   3.759   4.677 -1.5643 -0.3477  0.7200
  625TIP3    H223367   6.088   3.703   4.642  0.0679  2.7073  1.7562
  626TIP3   OH223368   2.247   3.184  12.573 -0.1994  0.0373  0.2928
  626TIP3    H123369   2.329   3.140  12.551  0.1061  0.0735  1.2779
  626TIP3    H223370   2.266   3.230  12.655 -0.5807  1.8359 -0.5868
  627TIP3   OH223371   2.566   5.090  15.987  0.2783  0.3876 -0.0769
  627TIP3    H123372   2.551   5.100  15.893 -1.6913  1.6534  0.2909
  627TIP3    H223373   2.554   4.997  16.004 -0.7578  0.3531 -0.8976
  628TIP3   OH223374   3.614   2.323   6.075  0.3832  0.7498  0.7123
  628TIP3    H123375   3.631   2.307   6.168  1.7603 -1.3981  0.1394
  628TIP3    H223376   3.649   2.411   6.060  3.4769 -0.2230  1.5078
  629TIP3   OH223377   1.071   0.298  16.342  0.1339  0.1498 -0.0621
  629TIP3    H123378   1.016   0.342  16.278 -0.0467  1.0025  0.6692
  629TIP3    H223379   1.063   0.350  16.421  0.8119 -0.5636  0.4966
  630TIP3   OH223380   3.787   6.734  15.436  0.9496 -0.1005  0.1835
  630TIP3    H123381   3.772   6.750  15.529  0.8040  0.7279  0.0270
  630TIP3    H223382   3.702   6.751  15.395  1.3953  1.1332 -0.2861
  631TIP3   OH223383   2.407   4.678  11.299  0.1435  0.0035  0.8086
  631TIP3    H123384   2.319   4.716  11.297  0.6959  1.3288  0.0971
  631TIP3    H223385   2.403   4.604  11.239 -0.2587  0.6279  0.0402
  632TIP3   OH223386   6.309   2.907   4.078 -0.1813  0.4122  0.8408
  632TIP3    H123387   6.335   2.923   3.988 -0.2821  1.0340  0.9118
  632TIP3    H223388   6.370   2.959   4.130  0.5601 -0.8034  1.1927
  633TIP3   OH223389   3.817   3.513  16.715  0.1422  0.3516  0.0967
  633TIP3    H123390   3.770   3.430  16.703 -3.1998  2.1802 -0.5943
  633TIP3    H223391   3.762   3.563  16.775  0.5519  3.1195 -1.6508
  634TIP3   OH223392   6.805   1.943   4.160  0.0412 -0.3039 -0.8598
  634TIP3    H123393   6.854   1.952   4.242 -2.3367 -0.7975  0.7230
  634TIP3    H223394   6.759   2.026   4.151 -0.1977 -0.4925 -1.3621
  635TIP3   OH223395   4.062   3.941   1.809  0.4754 -0.6288  0.5622
  635TIP3    H123396   4.155   3.941   1.832  0.1629  0.7196  1.9750
  635TIP3    H223397   4.017   3.916   1.890 -0.4563  0.2992  0.3548
  636TIP3   OH223398   1.442   1.153  15.552 -0.4183  0.0747  0.0151
  636TIP3    H123399   1.433   1.157  15.457  1.2938  1.7395 -0.1407
  636TIP3    H223400   1.513   1.090  15.567  0.5227  1.1066  0.0424
  637TIP3   OH223401   1.845   3.542   0.127  0.1812  0.0126  0.0913
  637TIP3    H123402   1.873   3.626   0.089 -0.9720  1.8544  2.9425
  637TIP3    H223403   1.785   3.567   0.197 -1.7168 -3.3565 -0.1434
  638TIP3   OH223404   1.177   2.195  15.044 -0.6534  0.4669  0.0703
  638TIP3    H123405   1.266   2.229  15.041 -0.5940  0.2619 -1.5903
  638TIP3    H223406   1.129   2.257  15.099  0.0399  1.7690 -0.7482
  639TIP3   OH223407   3.078   6.441   0.669 -0.0991  0.0998  0.0835
  639TIP3    H123408   3.008   6.393   0.624  1.0976 -2.4673  0.7927
  639TIP3    H223409   3.120   6.492   0.600 -1.2039 -0.1537 -0.8076
  640TIP3   OH223410   5.003   6.613   3.319  0.0943 -0.2915 -0.4458
  640TIP3    H123411   4.976   6.644   3.406 -0.1077 -1.2636 -0.1554
  640TIP3    H223412   4.926   6.569   3.284  0.1347  0.2043 -1.1834
  641TIP3   OH223413   1.534   1.037   0.372  0.2822 -0.7788 -0.6178
  641TIP3    H123414   1.594   1.107   0.347 -1.3790  1.2377  0.6646
  641TIP3    H223415   1.507   1.059   0.461 -0.5900 -2.8911 -0.2864
  642TIP3   OH223416   5.957   2.354  13.984  0.4957  0.1623 -0.2278
  642TIP3    H123417   6.033   2.395  14.025  0.4770 -0.3838  0.3776
  642TIP3    H223418   5.992   2.315  13.904  1.2042 -1.3655  0.7711
  643TIP3   OH223419   2.332   0.590  13.058 -0.3888  0.2581  0.8382
  643TIP3    H123420   2.247   0.631  13.043 -0.8701 -1.1261 -0.4517
  643TIP3    H223421   2.395   0.660  13.039 -1.1078  0.0191 -3.7318
  644TIP3   OH223422   3.616   4.172  12.884  0.3897 -0.3946  0.6614
  644TIP3    H123423   3.595   4.250  12.937 -2.2538 -2.0550  2.2545
  644TIP3    H223424   3.612   4.203  12.794 -2.5850  0.9948  1.1433
  645TIP3   OH223425   0.086   1.680   1.524 -0.1147 -0.1687  0.2589
  645TIP3    H123426   0.097   1.747   1.592 -1.9644 -0.6403  1.0894
  645TIP3    H223427   0.158   1.618   1.540  0.3833  0.5310  0.8022
  646TIP3   OH223428   4.048   4.815   1.796 -0.2055 -0.3124  0.6156
  646TIP3    H123429   4.126   4.764   1.816  0.4406  0.8741  1.2507
  646TIP3    H223430   4.077   4.876   1.728 -1.2068 -1.3667 -0.7991
  647TIP3   OH223431   3.234   2.464  17.097 -0.3825 -0.0871 -0.0776
  647TIP3    H123432   3.218   2.370  17.097 -2.5594  0.2185  0.8010
  647TIP3    H223433   3.252   2.486  17.006 -0.8690 -1.2106 -0.4595
  648TIP3   OH223434   4.799   3.503   2.870  0.5296  0.0876  0.7683
  648TIP3    H123435   4.732   3.452   2.825 -0.2284  2.3422 -0.8470
  648TIP3    H223436   4.882   3.466   2.841  0.0069 -0.6219  0.1563
  649TIP3   OH223437   5.977   5.180   1.561  0.4578 -0.1821 -0.8577
  649TIP3    H123438   5.980   5.212   1.471 -0.9322  1.0043 -0.5272
  649TIP3    H223439   5.989   5.085   1.553  0.9610 -0.0349 -2.2174
  650TIP3   OH223440   2.341   4.704   2.634 -0.0160  0.1218  0.5880
  650TIP3    H123441   2.345   4.789   2.678  0.3273 -0.8050  2.4451
  650TIP3    H223442   2.249   4.692   2.613 -0.2128  0.5621  1.1669
  651TIP3   OH223443   2.989   1.890   0.455  0.0872 -0.0516  0.4442
  651TIP3    H123444   3.068   1.860   0.500 -0.4014 -1.1246  0.6182
  651TIP3    H223445   2.918   1.868   0.515 -0.5024 -0.7851 -0.4997
  652TIP3   OH223446   5.902   4.932  11.523  0.1029 -0.0529 -0.1047
  652TIP3    H123447   5.967   4.879  11.570  0.5287  0.5021 -0.0634
  652TIP3    H223448   5.823   4.928  11.578  0.1906 -0.4880 -0.0070
  653TIP3   OH223449   5.926   2.537  13.297  0.6784  0.1668  0.1278
  653TIP3    H123450   5.882   2.529  13.213  0.7732  0.0779  0.0863
  653TIP3    H223451   5.979   2.458  13.304  0.5776  0.1167  0.3253
  654TIP3   OH223452   4.765   0.973  11.540  0.2192  0.1388  0.7085
  654TIP3    H123453   4.827   0.997  11.609 -0.4172  3.1675  0.3737
  654TIP3    H223454   4.681   1.009  11.569 -0.6459 -0.8354 -0.4511
  655TIP3   OH223455   0.112   5.579   1.564  0.6326 -0.0156  0.1516
  655TIP3    H123456   0.199   5.541   1.556  0.5226  0.1222 -2.2944
  655TIP3    H223457   0.125   5.655   1.622  2.0640 -0.1808  0.0827
  656TIP3   OH223458   3.813   0.484   4.294 -0.1304 -0.1567  0.2728
  656TIP3    H123459   3.761   0.419   4.247  0.2124  0.1698 -0.5663
  656TIP3    H223460   3.862   0.530   4.226 -0.4808  1.0870  0.8248
  657TIP3   OH223461   1.745   0.499   5.554 -1.0429  0.3411 -0.0538
  657TIP3    H123462   1.705   0.583   5.579 -1.3306 -0.4892  2.6365
  657TIP3    H223463   1.676   0.452   5.508 -1.4411  0.9274 -0.0645
  658TIP3   OH223464   3.111   2.078   2.233 -0.2132  0.2942  0.5791
  658TIP3    H123465   3.096   2.069   2.139  0.6463  2.4274  0.1751
  658TIP3    H223466   3.177   2.011   2.254 -1.1628 -0.8843 -0.0907
  659TIP3   OH223467   3.779   4.751   3.118  0.3578 -0.6225  0.0059
  659TIP3    H123468   3.843   4.794   3.062 -0.9871 -0.7864 -1.7276
  659TIP3    H223469   3.745   4.679   3.065 -0.8829 -0.8550  1.0715
  660TIP3   OH223470   2.883   3.390  17.105 -0.3574 -0.2912 -0.3789
  660TIP3    H123471   2.951   3.359  17.045 -1.6035 -2.5130 -0.7447
  660TIP3    H223472   2.823   3.439  17.049  0.3037  0.6984 -0.2538
  661TIP3   OH223473   1.414   6.412  14.127 -0.2875 -0.7752 -0.0736
  661TIP3    H123474   1.481   6.394  14.194 -0.2135 -1.9001 -0.4323
  661TIP3    H223475   1.464   6.427  14.047 -0.3866  0.3799  0.0629
  662TIP3   OH223476   4.211   0.231   1.577 -0.2106  0.3266  0.5494
  662TIP3    H123477   4.156   0.307   1.557 -0.8173 -0.2540  0.0198
  662TIP3    H223478   4.223   0.187   1.493 -0.9326 -0.8917  1.0754
  663TIP3   OH223479   2.972   1.300   6.611  0.1513 -0.3069 -0.3171
  663TIP3    H123480   3.042   1.242   6.641 -0.3381 -0.2864  0.9250
  663TIP3    H223481   2.920   1.246   6.552  0.9951 -0.4377 -0.9449
  664TIP3   OH223482   2.180   5.743  15.173  0.4665 -0.3343 -0.1125
  664TIP3    H123483   2.274   5.736  15.157  0.7548  1.8830  0.3039
  664TIP3    H223484   2.171   5.726  15.267  0.4422 -0.5226 -0.1481
  665TIP3   OH223485   3.509   1.039   1.112  0.1113  0.2154  0.6710
  665TIP3    H123486   3.522   1.114   1.054 -1.2715 -0.5029 -0.6504
  665TIP3    H223487   3.557   0.967   1.070 -2.1529 -0.7044 -0.5491
  666TIP3   OH223488   5.541   6.686   0.960  0.3920  0.3314  0.2887
  666TIP3    H123489   5.469   6.739   0.995  0.6649  1.2231 -0.4751
  666TIP3    H223490   5.589   6.657   1.037 -0.6435 -0.0930  0.8015
  667TIP3   OH223491   2.610   6.099  16.173  0.4951  0.2498 -0.5004
  667TIP3    H123492   2.636   6.187  16.202 -1.5954  1.0290 -0.7639
  667TIP3    H223493   2.573   6.058  16.251  0.8392 -0.1557 -0.5438
  668TIP3   OH223494   2.387   2.662   5.920 -0.4169  0.1232  0.3331
  668TIP3    H123495   2.312   2.621   5.963  0.1113  0.6755  1.8708
  668TIP3    H223496   2.352   2.744   5.884 -1.0218 -0.6748 -0.9644
  669TIP3   OH223497   3.047   0.238  16.454 -0.5418  0.3454 -0.1244
  669TIP3    H123498   2.976   0.177  16.475  1.3326 -1.5206  1.2471
  669TIP3    H223499   3.053   0.233  16.358 -2.2325  0.5692 -0.2811
  670TIP3   OH223500   4.623   2.075   6.323 -0.5947 -0.1580 -0.1966
  670TIP3    H123501   4.589   2.021   6.252 -0.1174 -0.0170 -0.5349
  670TIP3    H223502   4.594   2.030   6.403  1.2540 -1.9269 -0.4307
  671TIP3   OH223503   4.840   5.309   5.577 -0.0864  0.3416 -0.1102
  671TIP3    H123504   4.830   5.245   5.647  1.2386 -0.5552 -0.6933
  671TIP3    H223505   4.787   5.383   5.604  1.5072  0.6314  2.5608
  672TIP3   OH223506   1.386   3.457   1.835 -0.1470  0.5456  0.4583
  672TIP3    H123507   1.433   3.438   1.917  1.4896  2.4467  0.0377
  672TIP3    H223508   1.416   3.389   1.775  3.2599  2.4047 -0.1756
  673TIP3   OH223509   0.836   6.088   1.398 -0.0097 -0.0103  0.4162
  673TIP3    H123510   0.744   6.081   1.424 -0.1264 -0.2337 -0.0513
  673TIP3    H223511   0.834   6.139   1.317  0.4802  2.0651  1.6422
  674TIP3   OH223512   0.490   3.640   1.395 -0.2928 -0.5585  0.0233
  674TIP3    H123513   0.522   3.721   1.434  0.1355  0.1171 -1.6783
  674TIP3    H223514   0.439   3.668   1.319 -2.9212 -1.7215  1.2112
  675TIP3   OH223515   3.123   3.790   4.214 -0.0053  0.2528  0.7671
  675TIP3    H123516   3.193   3.833   4.165  0.6118 -1.0664  0.4419
  675TIP3    H223517   3.058   3.859   4.228  0.4072  1.0095 -0.7405
  676TIP3   OH223518   4.654   4.801   5.133  0.0923 -0.4118  0.5806
  676TIP3    H123519   4.634   4.841   5.049 -1.8292 -0.0637  1.1369
  676TIP3    H223520   4.734   4.844   5.162  1.0799 -0.9057 -1.2586
  677TIP3   OH223521   3.372   0.215  16.894  0.6672  0.6974  0.4613
  677TIP3    H123522   3.355   0.288  16.835  1.2190  0.4268 -0.0343
  677TIP3    H223523   3.462   0.188  16.875  0.3081 -0.4344  0.2819
  678TIP3   OH223524   5.916   2.268   0.826  0.1697  0.5246 -0.4911
  678TIP3    H123525   5.911   2.364   0.828  0.8268  0.5781 -0.9307
  678TIP3    H223526   5.931   2.243   0.917  0.5764  0.8763 -0.4585
  679TIP3   OH223527   0.905   1.800  14.190  0.1766 -0.2877 -0.1101
  679TIP3    H123528   0.987   1.848  14.177 -0.5529  1.4074  1.2127
  679TIP3    H223529   0.838   1.856  14.149 -0.7802  0.2329  2.0058
  680TIP3   OH223530   3.179   3.794   3.259 -0.2181 -0.7092  0.3459
  680TIP3    H123531   3.182   3.890   3.263  1.2638 -0.6941 -0.4439
  680TIP3    H223532   3.160   3.767   3.348  0.9470  0.2930  0.9252
  681TIP3   OH223533   1.541   5.653   3.965  0.9854  0.5545  0.7508
  681TIP3    H123534   1.594   5.675   3.889 -0.1731  2.2726  0.3742
  681TIP3    H223535   1.454   5.635   3.930  0.7952 -0.1726  1.5401
  682TIP3   OH223536   3.805   5.760   0.229  0.0942 -0.3415 -0.1184
  682TIP3    H123537   3.718   5.732   0.203  0.9201 -2.9964 -0.2924
  682TIP3    H223538   3.796   5.854   0.247 -2.8256 -0.5988  0.1662
  683TIP3   OH223539   5.255   3.122   4.526 -0.7481  0.8084  0.2131
  683TIP3    H123540   5.217   3.038   4.551 -0.1632  0.5323  0.1696
  683TIP3    H223541   5.333   3.100   4.476  1.0192  1.3534  2.5581
  684TIP3   OH223542   3.939   2.074   3.262  0.4020  0.3354 -0.0999
  684TIP3    H123543   4.020   2.058   3.311  0.0084  0.4115  0.5813
  684TIP3    H223544   3.918   2.166   3.279  0.5686  0.5241 -0.8773
  685TIP3   OH223545   1.949   2.013  17.171 -0.4392  0.1310 -0.1211
  685TIP3    H123546   1.926   1.982  17.258 -3.4343  1.6716 -0.2244
  685TIP3    H223547   2.016   2.079  17.186 -0.0433 -0.4837  0.8772
  686TIP3   OH223548   6.215   6.173  12.185 -0.5064  0.0157 -0.1350
  686TIP3    H123549   6.261   6.095  12.216  3.1035  2.2003  0.5842
  686TIP3    H223550   6.259   6.196  12.103 -0.6699  1.8869  0.2471
  687TIP3   OH223551   3.346   1.016  12.064  0.2134 -0.4233 -0.1548
  687TIP3    H123552   3.392   1.069  12.129  0.7063  1.3125 -1.8281
  687TIP3    H223553   3.415   0.971  12.016  0.0881  0.5903 -1.3375
  688TIP3   OH223554   5.780   6.769  16.288 -0.2418  0.6014 -0.1505
  688TIP3    H123555   5.875   6.781  16.292 -0.5048  2.9331  0.7386
  688TIP3    H223556   5.763   6.692  16.342  0.9976  1.2998  1.3081
  689TIP3   OH223557   1.245   6.013   0.666  0.1968 -0.6105 -0.2019
  689TIP3    H123558   1.263   5.993   0.757 -2.1063  0.5854  0.6142
  689TIP3    H223559   1.293   6.094   0.649 -1.1104  0.4053  0.7110
  690TIP3   OH223560   5.885   0.080  11.115 -0.2890  0.0263 -0.2426
  690TIP3    H123561   5.904   0.036  11.032 -1.7712  0.9368 -1.1179
  690TIP3    H223562   5.935   0.162  11.110  1.7554 -1.0458  0.9966
  691TIP3   OH223563   0.013   2.095   5.871 -0.0655 -0.0465 -0.1090
  691TIP3    H123564   0.070   2.161   5.912  0.9065 -0.3201 -0.9688
  691TIP3    H223565  -0.012   2.134   5.787 -0.2054 -0.4116 -0.2374
  692TIP3   OH223566   5.771   3.664   5.061 -0.4975 -0.4101 -0.1238
  692TIP3    H123567   5.841   3.729   5.067 -1.2607  0.3232  1.9041
  692TIP3    H223568   5.690   3.715   5.060 -1.0496 -1.2578 -1.7798
  693TIP3   OH223569   4.220   1.769   4.424 -0.3742  0.2440  0.1547
  693TIP3    H123570   4.170   1.850   4.428  1.7868  1.7891 -1.6141
  693TIP3    H223571   4.154   1.701   4.411 -2.2490  1.6963  1.4912
  694TIP3   OH223572   1.026   3.551   5.543 -0.0285  0.1475  0.4390
  694TIP3    H123573   1.097   3.520   5.487 -0.4107 -0.1896  0.1336
  694TIP3    H223574   1.015   3.483   5.609  0.5803  0.6527  1.0857
  695TIP3   OH223575   6.193   4.964  15.507 -0.0255 -0.2991  0.1184
  695TIP3    H123576   6.288   4.974  15.500 -0.1151  0.4202 -0.1029
  695TIP3    H223577   6.159   4.992  15.423 -0.4531 -0.3367  0.2764
  696TIP3   OH223578   0.862   6.297   3.500  1.0914 -0.3809 -0.0175
  696TIP3    H123579   0.929   6.345   3.451 -0.4009  1.0198 -0.7948
  696TIP3    H223580   0.805   6.261   3.432 -1.4159  2.1706  0.5402
  697TIP3   OH223581   3.898   1.600  13.747 -0.1044  0.2234 -0.2311
  697TIP3    H123582   3.960   1.589  13.674 -1.0374  0.4047 -1.0787
  697TIP3    H223583   3.937   1.666  13.802  0.4855  0.3023 -0.7325
  698TIP3   OH223584   4.146   4.422  12.680 -0.2398 -0.0177 -0.0336
  698TIP3    H123585   4.057   4.440  12.648 -0.1301  0.4727 -0.0784
  698TIP3    H223586   4.183   4.509  12.696  0.8286 -0.1259 -1.6461
  699TIP3   OH223587   6.638   4.644  14.977  0.1221 -0.3096 -0.4022
  699TIP3    H123588   6.664   4.604  14.894 -0.3769  0.3388 -0.8873
  699TIP3    H223589   6.543   4.654  14.969  0.3102  1.6128 -0.6017
  700TIP3   OH223590   6.293   6.064   0.834  0.2462 -0.1554  0.4984
  700TIP3    H123591   6.226   6.052   0.901 -2.1676  1.6815 -1.3725
  700TIP3    H223592   6.284   5.989   0.776 -1.7252  1.0090 -0.8355
  701TIP3   OH223593   6.157   1.233  16.673  0.0283  0.3849 -0.0808
  701TIP3    H123594   6.182   1.199  16.759 -0.2173  2.2801  0.7850
  701TIP3    H223595   6.121   1.157  16.627  1.2818 -0.9452  1.0167
  702TIP3   OH223596   0.404   4.734   3.043 -0.1379 -0.1960  0.6000
  702TIP3    H123597   0.446   4.688   3.115  0.0255 -0.9294  0.0435
  702TIP3    H223598   0.476   4.769   2.991 -0.1989 -1.2105 -0.1964
  703TIP3   OH223599   4.136   3.253  16.180 -0.6822 -0.4695  0.8060
  703TIP3    H123600   4.183   3.290  16.255 -2.0711 -0.7086  1.8329
  703TIP3    H223601   4.067   3.199  16.219  0.0954 -2.6398 -0.6507
  704TIP3   OH223602   3.109   3.984   0.992 -0.8203 -1.0405 -0.3215
  704TIP3    H123603   3.030   4.021   1.032 -0.5871  1.1254 -1.7113
  704TIP3    H223604   3.115   4.026   0.906  1.6601 -1.3889 -0.4060
  705TIP3   OH223605   4.863   5.517  11.900  0.2126  0.1533  0.3292
  705TIP3    H123606   4.796   5.467  11.947  1.5654 -0.1461  2.0706
  705TIP3    H223607   4.819   5.549  11.822 -1.5243 -1.2914  0.6449
  706TIP3   OH223608   0.369   1.592   2.858 -0.0891 -0.0016  0.2658
  706TIP3    H123609   0.396   1.664   2.801 -0.1589 -0.4983 -0.4083
  706TIP3    H223610   0.284   1.564   2.823 -0.8054  0.5861  1.4716
  707TIP3   OH223611   2.664   5.010  10.806  0.7075 -0.1692  0.5378
  707TIP3    H123612   2.583   4.980  10.766  1.8070 -0.9719 -1.2069
  707TIP3    H223613   2.640   5.092  10.850 -0.8588  0.0611 -0.6647
  708TIP3   OH223614   2.223   3.015  14.918  0.2455  0.2702 -0.5390
  708TIP3    H123615   2.189   3.101  14.941  0.6735  0.7059 -1.4828
  708TIP3    H223616   2.226   2.967  15.001 -2.8723  0.1092 -0.4127
  709TIP3   OH223617   4.702   0.331  15.860 -0.1798  0.4453 -0.0662
  709TIP3    H123618   4.613   0.300  15.842  0.6016 -0.8811 -2.0430
  709TIP3    H223619   4.743   0.258  15.907 -0.0626  0.9704  0.6562
  710TIP3   OH223620   4.715   6.035   0.569 -0.2014 -0.7018 -0.3678
  710TIP3    H123621   4.737   5.944   0.589 -0.7263 -0.7680 -0.0597
  710TIP3    H223622   4.791   6.069   0.522  0.5422 -0.9250  0.6320
  711TIP3   OH223623   5.973   6.647   3.946  0.3529 -0.7192  0.8855
  711TIP3    H123624   5.969   6.662   4.040  0.9460 -0.2287  0.8408
  711TIP3    H223625   6.015   6.725   3.911  0.0935 -0.8761  0.2054
  712TIP3   OH223626   2.414   6.077  12.774  0.0075  0.3412  0.6594
  712TIP3    H123627   2.346   6.010  12.781 -0.2641  0.6489  1.0158
  712TIP3    H223628   2.413   6.122  12.859  2.1633 -1.0796  1.5318
  713TIP3   OH223629   5.529   0.336   0.705 -0.4562  0.1396 -0.2014
  713TIP3    H123630   5.501   0.378   0.624  1.8582 -1.2358 -1.8266
  713TIP3    H223631   5.492   0.248   0.701 -0.7701  0.2284  0.5192
  714TIP3   OH223632   6.718   3.223  13.045  0.3790  0.0921 -0.2796
  714TIP3    H123633   6.780   3.169  13.095  2.1866  2.1579 -0.1392
  714TIP3    H223634   6.773   3.285  12.997 -1.5296  0.8564 -1.5954
  715TIP3   OH223635   1.336   0.922   3.783  0.1455 -0.3863 -0.0285
  715TIP3    H123636   1.252   0.905   3.742  1.3419 -0.2996 -2.7333
  715TIP3    H223637   1.318   0.990   3.849 -1.8706 -0.4292 -0.4795
  716TIP3   OH223638   3.662   4.674   1.765 -0.0750  0.4096  0.1512
  716TIP3    H123639   3.569   4.665   1.787  0.2724 -0.8458  1.3115
  716TIP3    H223640   3.701   4.590   1.791  1.2419  0.5737 -1.1391
  717TIP3   OH223641   3.735   1.521  14.429 -0.3050 -0.0465 -0.7788
  717TIP3    H123642   3.656   1.570  14.405  0.0413 -0.0024 -1.9164
  717TIP3    H223643   3.795   1.537  14.356  0.4688 -0.7193 -0.3010
  718TIP3   OH223644   3.658   4.328  13.382 -0.0400  0.5051 -0.0626
  718TIP3    H123645   3.590   4.368  13.329 -0.3640  1.2489  0.8898
  718TIP3    H223646   3.702   4.402  13.424  0.7762 -0.0186  0.0344
  719TIP3   OH223647   5.826   5.852   4.201 -0.2191  0.0824  0.6359
  719TIP3    H123648   5.861   5.921   4.145 -0.9485  0.2959  0.4231
  719TIP3    H223649   5.814   5.895   4.286 -1.6815  0.5590  0.2327
  720TIP3   OH223650   2.343   2.816   4.529 -0.5934 -0.3099 -0.5080
  720TIP3    H123651   2.360   2.767   4.609 -1.4989 -0.0699 -0.1561
  720TIP3    H223652   2.426   2.815   4.481  0.9119  2.1169  1.8037
  721TIP3   OH223653   2.724   1.654   0.237 -0.7159  0.5734 -0.2451
  721TIP3    H123654   2.714   1.590   0.308  1.1500 -0.3918 -0.7828
  721TIP3    H223655   2.710   1.602   0.158  0.9473  0.7610 -0.6954
  722TIP3   OH223656   5.051   4.687   0.855 -0.4114 -0.1364 -0.1717
  722TIP3    H123657   4.997   4.652   0.784 -0.8277  2.4208 -1.2582
  722TIP3    H223658   4.995   4.751   0.899  1.5059  2.4146 -1.1529
  723TIP3   OH223659   2.676   3.175  13.662  0.4562  0.5905  0.1653
  723TIP3    H123660   2.677   3.220  13.747  2.5240 -0.4028  0.7385
  723TIP3    H223661   2.614   3.224  13.610  1.8967  3.5805  1.0494
  724TIP3   OH223662   4.289   2.139  14.819 -0.5051  0.1338 -0.0685
  724TIP3    H123663   4.245   2.102  14.895 -0.0338  0.9029  0.6014
  724TIP3    H223664   4.365   2.082  14.805 -0.4210  0.1677  0.2380
  725TIP3   OH223665   4.999   5.639  12.545 -0.2551 -0.3132 -0.1365
  725TIP3    H123666   4.954   5.680  12.618  0.3927 -0.1373  0.1766
  725TIP3    H223667   5.080   5.604  12.583 -0.9542 -2.2318 -0.3127
  726TIP3   OH223668   2.365   0.567   4.347 -0.0679 -0.0009  0.1552
  726TIP3    H123669   2.434   0.598   4.288 -1.3454  1.6572 -0.5359
  726TIP3    H223670   2.323   0.495   4.299  0.8955 -0.7771  0.4282
  727TIP3   OH223671   2.826   6.688   3.345 -0.0804  0.0301 -0.0083
  727TIP3    H123672   2.835   6.781   3.325 -1.2232  0.1175 -0.1894
  727TIP3    H223673   2.916   6.656   3.350  0.3297  1.1640  0.1815
  728TIP3   OH223674   6.011   3.038  14.322 -0.3393  0.5834  0.2499
  728TIP3    H123675   6.020   3.127  14.290 -1.0259  0.5803  0.0317
  728TIP3    H223676   6.099   3.014  14.350 -0.1050  1.2501  0.1124
  729TIP3   OH223677   1.080   3.926  17.236 -0.0497  0.8117  0.2254
  729TIP3    H123678   1.122   3.917  17.321  0.2631 -0.8434 -0.0636
  729TIP3    H223679   1.105   3.846  17.189 -2.8557  0.0907 -0.2302
  730TIP3   OH223680   6.428   5.649  17.143  0.4741 -0.5082 -0.2668
  730TIP3    H123681   6.499   5.703  17.107  0.8811 -0.3133  0.7985
  730TIP3    H223682   6.386   5.705  17.208 -0.6529 -0.6392 -0.8559
  731TIP3   OH223683   0.862   6.279   1.207  0.5147  0.6952  0.8224
  731TIP3    H123684   0.944   6.322   1.233  0.5261  1.2502 -0.0826
  731TIP3    H223685   0.832   6.329   1.131  0.6161 -1.0192 -0.3987
  732TIP3   OH223686   4.986   3.156  13.476  0.4357  0.7664  0.1580
  732TIP3    H123687   5.010   3.159  13.383  0.1769  1.7675  0.1183
  732TIP3    H223688   4.900   3.196  13.480  0.8131  1.5178  0.9508
  733TIP3   OH223689   6.144   4.078  13.534  0.3431 -0.1275 -0.7547
  733TIP3    H123690   6.216   4.138  13.514 -0.8845  1.2610 -1.1756
  733TIP3    H223691   6.095   4.122  13.603  0.0078 -1.1599 -0.3293
  734TIP3   OH223692   4.319   5.702   3.426  0.0748 -0.0009 -0.5606
  734TIP3    H123693   4.406   5.682   3.460  0.2665 -0.7136 -1.4505
  734TIP3    H223694   4.324   5.793   3.398 -0.0061  0.5187  1.0235
  735TIP3   OH223695   0.508   3.908   1.082 -0.1051  0.3365 -0.1129
  735TIP3    H123696   0.551   3.839   1.031 -0.9782 -1.5094  1.4999
  735TIP3    H223697   0.570   3.927   1.153 -0.1826  0.6866 -0.1376
  736TIP3   OH223698   2.350   3.928   4.373 -0.6256 -0.2733 -0.1162
  736TIP3    H123699   2.416   3.905   4.439 -0.7435 -0.7036 -0.1437
  736TIP3    H223700   2.349   3.853   4.314 -2.0040 -0.8088  0.5611
  737TIP3   OH223701   3.476   5.856  13.236 -0.6319 -0.4672 -0.1486
  737TIP3    H123702   3.381   5.863  13.231 -0.5011  1.1512 -0.9743
  737TIP3    H223703   3.494   5.841  13.329 -1.6155  1.3305  0.3848
  738TIP3   OH223704   6.131   4.046   3.408  0.3969  0.0845 -0.3881
  738TIP3    H123705   6.044   4.059   3.445  0.8869  2.2072  0.1894
  738TIP3    H223706   6.152   3.954   3.426 -1.7484 -0.4986 -0.6724
  739TIP3   OH223707   6.282   3.349  14.068 -0.4466 -0.4063  0.1499
  739TIP3    H123708   6.330   3.430  14.051 -0.5012 -0.6753 -1.4591
  739TIP3    H223709   6.325   3.310  14.144  0.1535  0.6829  0.3801
  740TIP3   OH223710   5.773   4.172   2.552 -0.4450 -0.1779 -0.8582
  740TIP3    H123711   5.721   4.237   2.505 -1.0010 -0.2154 -0.3062
  740TIP3    H223712   5.779   4.206   2.642 -0.8047 -0.9248 -0.5441
  741TIP3   OH223713   2.613   2.074  12.011  0.3135  0.0760  0.9986
  741TIP3    H123714   2.592   2.128  11.935 -2.5392 -2.0066  0.1163
  741TIP3    H223715   2.677   2.125  12.060  0.7233  2.4285 -1.7145
  742TIP3   OH223716   4.637   3.924   6.518 -0.6229  0.1470  0.2914
  742TIP3    H123717   4.636   3.834   6.549  2.2795 -0.2627 -0.4645
  742TIP3    H223718   4.669   3.976   6.592 -3.0396  0.7511  0.9841
  743TIP3   OH223719   0.811   5.295   1.482  0.0677 -0.1364  0.4955
  743TIP3    H123720   0.743   5.243   1.525  0.8547  0.5239  2.6261
  743TIP3    H223721   0.775   5.313   1.395 -2.4076  0.0419  1.4761
  744TIP3   OH223722   2.044   3.165  16.963 -0.6922 -0.2681 -0.0631
  744TIP3    H123723   1.969   3.204  16.918  0.1953 -0.1925 -1.5595
  744TIP3    H223724   2.008   3.090  17.011 -1.5184 -1.1922 -2.0191
  745TIP3   OH223725   0.135   2.035  12.533  0.6127  0.1761  1.0152
  745TIP3    H123726   0.116   2.006  12.622  0.9048 -0.2430  0.9445
  745TIP3    H223727   0.052   2.028  12.487  0.9094 -1.6509  0.7058
  746TIP3   OH223728   5.773   6.222  16.497  0.2437 -0.8713  0.6551
  746TIP3    H123729   5.695   6.199  16.447  1.0134  1.1172 -1.6159
  746TIP3    H223730   5.739   6.250  16.582 -1.4319 -1.0080  0.0666
  747TIP3   OH223731   6.705   3.600  12.867  0.4993  0.4186 -0.2387
  747TIP3    H123732   6.686   3.569  12.955  1.3651  0.7213  0.0751
  747TIP3    H223733   6.665   3.687  12.863  0.4146  0.3833 -0.1533
  748TIP3   OH223734   2.245   3.183  12.981 -0.3965  0.1844 -0.4770
  748TIP3    H123735   2.223   3.112  13.041  1.4408  0.1257  0.2030
  748TIP3    H223736   2.173   3.245  12.990 -1.4284 -0.9985 -0.1573
  749TIP3   OH223737   1.687   0.217  17.141  0.2625 -0.2171 -0.1165
  749TIP3    H123738   1.722   0.258  17.062 -3.0153  3.6497  0.1076
  749TIP3    H223739   1.747   0.242  17.211  1.0807 -0.3280 -0.7600
  750TIP3   OH223740   0.318   5.245  15.101  0.0202  0.4534  0.6637
  750TIP3    H123741   0.260   5.313  15.068  0.1803  0.0292 -0.5440
  750TIP3    H223742   0.406   5.273  15.074  0.0682 -0.2977 -0.0197
  751TIP3   OH223743   0.453   4.820   5.654 -0.4533 -0.2599 -0.0367
  751TIP3    H123744   0.506   4.884   5.701  0.5043 -0.6163 -0.5980
  751TIP3    H223745   0.364   4.836   5.684  0.2693 -1.4103  2.9829
  752TIP3   OH223746   0.509   1.209  12.234 -0.5045 -0.7388 -0.4413
  752TIP3    H123747   0.427   1.227  12.281 -0.6511 -1.1227 -0.5407
  752TIP3    H223748   0.488   1.132  12.180  0.0361 -1.0806 -0.1715
  753TIP3   OH223749   3.532   4.187  10.946  0.3578 -0.6115  0.2268
  753TIP3    H123750   3.448   4.198  10.900  0.4040 -1.7760 -0.1735
  753TIP3    H223751   3.576   4.117  10.897  0.5858 -1.5963  1.7880
  754TIP3   OH223752   5.557   1.756   1.324  0.3511 -0.0232 -0.4476
  754TIP3    H123753   5.534   1.740   1.232  1.5607  0.9134 -0.9364
  754TIP3    H223754   5.473   1.767   1.368 -0.2553 -0.6506 -1.4049
  755TIP3   OH223755   0.136   4.873  11.117 -0.0242  0.0089 -0.4887
  755TIP3    H123756   0.104   4.961  11.139  1.8903  0.4257  0.9435
  755TIP3    H223757   0.212   4.889  11.060 -1.2146 -0.8679 -2.4034
  756TIP3   OH223758   6.537   2.965  12.438  0.3423 -0.6106 -0.3964
  756TIP3    H123759   6.447   2.973  12.406 -0.0461 -0.2698  0.7362
  756TIP3    H223760   6.532   2.902  12.510  0.8682 -0.0320  0.1669
  757TIP3   OH223761   5.455   0.021  15.147  0.5217 -0.1749 -0.0184
  757TIP3    H123762   5.470   0.112  15.121  1.2305 -0.5199 -0.8726
  757TIP3    H223763   5.543  -0.013  15.166  0.2740 -0.7222  0.1544
  758TIP3   OH223764   1.390   1.009  13.927  0.0646  0.8232  0.4220
  758TIP3    H123765   1.342   1.041  13.851  0.0827 -1.4435 -0.6151
  758TIP3    H223766   1.480   1.039  13.913  0.1217  0.2015 -0.6126
  759TIP3   OH223767   4.126   2.881  14.775  0.5280  0.0536  0.6003
  759TIP3    H123768   4.090   2.953  14.723 -1.0588 -1.0500  0.0806
  759TIP3    H223769   4.094   2.897  14.863 -0.9728 -0.6892  0.2230
  760TIP3   OH223770   1.999   2.774  11.356  0.5424 -0.3258 -0.5274
  760TIP3    H123771   1.965   2.710  11.293 -1.6498  1.3422 -1.1645
  760TIP3    H223772   1.950   2.757  11.436 -0.6117  0.9495 -0.9188
  761TIP3   OH223773   4.049   5.900  13.230 -0.5313  0.2697 -0.2373
  761TIP3    H123774   4.145   5.901  13.225 -0.4572 -1.7523  0.1899
  761TIP3    H223775   4.020   5.864  13.146 -1.1006  3.1588 -1.3974
  762TIP3   OH223776   1.964   3.318   3.898 -0.5182  0.2234  0.1547
  762TIP3    H123777   2.024   3.315   3.823 -1.0787  1.8612 -0.4003
  762TIP3    H223778   1.899   3.384   3.874 -2.0951 -0.9059  1.0847
  763TIP3   OH223779   2.955   0.813   0.859 -0.1386 -0.2742 -0.1315
  763TIP3    H123780   2.885   0.778   0.914 -1.2290  0.6645 -0.8747
  763TIP3    H223781   3.012   0.738   0.844 -0.9050 -1.0417  0.6008
  764TIP3   OH223782   2.619   4.281   5.064  0.0913 -0.5080 -0.2918
  764TIP3    H123783   2.622   4.216   5.134  0.3209 -0.4459 -0.2419
  764TIP3    H223784   2.599   4.363   5.109  0.3129 -0.4547 -0.2883
  765TIP3   OH223785   0.437   4.662  11.095  0.1216  0.0126  0.1269
  765TIP3    H123786   0.396   4.686  11.178  1.4379  0.2768  0.7161
  765TIP3    H223787   0.436   4.742  11.043 -0.7344 -0.1619 -0.1555
  766TIP3   OH223788   6.449   6.682   5.937 -0.1902  0.0040 -0.0217
  766TIP3    H123789   6.543   6.685   5.925 -0.1520  1.5182  0.4936
  766TIP3    H223790   6.433   6.600   5.984  0.7765 -0.5709 -0.6514
  767TIP3   OH223791   1.394   4.897  16.746  0.2332  0.1630  0.5849
  767TIP3    H123792   1.488   4.900  16.767  0.5340 -1.4870 -0.3194
  767TIP3    H223793   1.373   4.986  16.719  2.3795 -0.0571 -2.4200
  768TIP3   OH223794   2.940   0.663  15.602 -0.0487  0.0875 -0.0012
  768TIP3    H123795   2.912   0.605  15.531 -1.1490 -0.1819  0.6290
  768TIP3    H223796   3.023   0.626  15.632  0.1917 -0.0695 -0.8230
  769TIP3   OH223797   2.275   1.069   4.761  0.0032  0.0928  0.1467
  769TIP3    H123798   2.302   0.987   4.802 -1.0083  0.2030  1.1010
  769TIP3    H223799   2.180   1.062   4.755  0.0582  0.4629 -1.4231
  770TIP3   OH223800   2.065   2.810  11.867 -0.4481 -0.2494  0.5087
  770TIP3    H123801   1.972   2.789  11.871 -0.8408  1.4154  0.5754
  770TIP3    H223802   2.094   2.770  11.785 -1.0144 -1.5028  0.8953
  771TIP3   OH223803   1.587   6.205   6.479  0.0316 -0.1977  0.5823
  771TIP3    H123804   1.603   6.148   6.404 -1.2394  1.5878 -1.1468
  771TIP3    H223805   1.497   6.234   6.468  0.3603  1.4467  1.8876
  772TIP3   OH223806   5.003   3.451   2.363  0.2481  0.6261 -0.6590
  772TIP3    H123807   5.074   3.404   2.320  0.9340  1.5073 -0.5257
  772TIP3    H223808   5.035   3.542   2.369  0.6827  0.3950  2.6000
  773TIP3   OH223809   6.286   4.526   3.872  0.6357  0.0127  0.1514
  773TIP3    H123810   6.358   4.587   3.885 -0.0393  1.0729 -0.8189
  773TIP3    H223811   6.261   4.497   3.960  2.3045 -0.4849  0.4904
  774TIP3   OH223812   2.287   6.119   5.530  0.1791  0.1693 -0.0947
  774TIP3    H123813   2.212   6.060   5.522  0.6297 -0.3711 -0.4451
  774TIP3    H223814   2.281   6.155   5.618 -0.1685 -0.3134  0.0794
  775TIP3   OH223815   6.180   2.630  12.540 -0.0481 -0.1161  0.5395
  775TIP3    H123816   6.230   2.554  12.511 -1.1441 -0.4400 -0.6118
  775TIP3    H223817   6.229   2.665  12.615  1.7816 -0.5145 -0.4152
  776TIP3   OH223818   4.858   0.702  12.934  0.2714  0.2443 -0.0783
  776TIP3    H123819   4.845   0.625  12.879 -2.0784  0.0646  0.5905
  776TIP3    H223820   4.857   0.776  12.873 -0.0509 -0.0925 -0.4858
  777TIP3   OH223821   6.020   4.833   1.148  0.1099  0.3691  0.3500
  777TIP3    H123822   6.078   4.891   1.197  0.1647  0.6152 -0.0080
  777TIP3    H223823   6.057   4.746   1.161 -0.3863  0.3023  1.4963
  778TIP3   OH223824   4.091   5.654   5.271 -0.0097  0.0212  0.5711
  778TIP3    H123825   4.017   5.597   5.293 -1.0202  0.7975 -0.7078
  778TIP3    H223826   4.056   5.743   5.279  1.0261  0.4286  0.7431
  779TIP3   OH223827   4.907   4.071  13.353 -0.2524  0.1120  0.1598
  779TIP3    H123828   4.895   4.056  13.259 -1.1098 -0.6030  0.3732
  779TIP3    H223829   5.002   4.067  13.366 -0.2104 -2.3484 -0.3021
  780TIP3   OH223830   0.916   2.330  15.291  0.0061 -0.2662  0.3873
  780TIP3    H123831   0.873   2.249  15.263 -1.4689  0.3768  0.6883
  780TIP3    H223832   0.990   2.301  15.343 -1.5324 -1.4697  2.0190
  781TIP3   OH223833   0.913   0.512  15.461  0.0868 -0.1764 -0.1341
  781TIP3    H123834   0.916   0.492  15.367 -0.3558 -1.2300  0.0595
  781TIP3    H223835   0.825   0.546  15.475  0.2379  0.2177 -0.1459
  782TIP3   OH223836   5.647   6.697  16.984 -0.4080 -0.0112  0.1956
  782TIP3    H123837   5.706   6.763  17.022  0.9360 -1.1418  0.1739
  782TIP3    H223838   5.564   6.742  16.973  0.3397  1.5372  0.6295
  783TIP3   OH223839   1.955   1.470  11.721  0.5273 -0.1599 -0.5221
  783TIP3    H123840   1.980   1.508  11.805 -1.6642 -0.2824  0.2468
  783TIP3    H223841   1.998   1.385  11.720  1.5450  0.3271 -0.0851
  784TIP3   OH223842   4.473   5.971   3.120 -0.0481  0.7669 -0.5537
  784TIP3    H123843   4.397   5.919   3.144  0.4973 -0.4610 -1.4069
  784TIP3    H223844   4.468   5.981   3.025  0.3209  1.5439 -0.5042
  785TIP3   OH223845   0.497   3.789  15.569  0.6820 -0.4206  0.0555
  785TIP3    H123846   0.545   3.755  15.645  1.6271  0.5261 -0.0947
  785TIP3    H223847   0.551   3.765  15.494  1.3186  1.2389 -0.0681
  786TIP3   OH223848   5.816   5.047   0.374  0.6598 -0.2127  0.4560
  786TIP3    H123849   5.783   4.961   0.347 -1.4017  0.6421  0.0106
  786TIP3    H223850   5.880   5.028   0.442  1.0818 -2.1395 -0.4211
  787TIP3   OH223851   5.406   0.537  12.537  0.0474 -0.0455 -1.2454
  787TIP3    H123852   5.328   0.487  12.514  0.9145 -1.1262 -1.8819
  787TIP3    H223853   5.422   0.594  12.462 -1.0261  1.3567 -0.4595
  788TIP3   OH223854   5.267   0.202   2.863 -0.5181 -0.1422  0.4133
  788TIP3    H123855   5.333   0.270   2.876 -0.4906 -0.4131  1.7533
  788TIP3    H223856   5.259   0.159   2.947 -2.1073 -0.3979  0.1673
  789TIP3   OH223857   3.710   0.449   5.087  0.1159 -0.2009  0.0295
  789TIP3    H123858   3.739   0.409   5.170 -1.1658 -0.8731  0.1815
  789TIP3    H223859   3.769   0.412   5.021  1.8921  1.2005  0.7359
  790TIP3   OH223860   2.066   4.732  14.987  0.0806  0.1787 -0.0846
  790TIP3    H123861   2.102   4.810  15.031 -0.6701  0.3336  0.2638
  790TIP3    H223862   2.093   4.659  15.043  0.2123  0.2524 -0.0513
  791TIP3   OH223863   2.744   0.097  14.559  0.1989  0.4251  0.5976
  791TIP3    H123864   2.768   0.190  14.566  1.1888  0.2479 -0.1624
  791TIP3    H223865   2.825   0.054  14.531 -0.5430 -0.5175 -0.1505
  792TIP3   OH223866   1.785   0.882   1.915  0.1222  0.1404  0.0397
  792TIP3    H123867   1.704   0.907   1.871  0.6229  1.4280 -0.1998
  792TIP3    H223868   1.855   0.916   1.858  0.8702 -1.8045 -0.2717
  793TIP3   OH223869   2.413   4.161   5.630 -0.1835  0.5728 -0.4622
  793TIP3    H123870   2.450   4.101   5.694 -1.7875 -1.3905 -1.2797
  793TIP3    H223871   2.348   4.211   5.678 -0.6298 -0.1531 -0.2895
  794TIP3   OH223872   3.146   6.689  14.414  0.1156  0.1223 -0.2976
  794TIP3    H123873   3.209   6.622  14.439  0.8720  0.3051 -1.6269
  794TIP3    H223874   3.188   6.772  14.436  0.0508  0.2175 -0.5213
  795TIP3   OH223875   1.586   3.116   3.944  0.0459 -0.6337  0.2829
  795TIP3    H123876   1.638   3.057   3.998  0.7311 -0.8698 -0.6143
  795TIP3    H223877   1.498   3.077   3.944  0.6636 -2.1216 -0.9231
  796TIP3   OH223878   6.559   0.916   0.295  0.1737  0.1182 -0.5723
  796TIP3    H123879   6.589   0.930   0.385  1.4063 -2.6417 -0.4538
  796TIP3    H223880   6.597   0.988   0.245  0.0182  1.3279  0.9849
  797TIP3   OH223881   4.318   0.614   0.542  0.1228  0.1277  0.1706
  797TIP3    H123882   4.280   0.576   0.462  0.8631  0.2914 -0.2643
  797TIP3    H223883   4.255   0.681   0.568 -0.5782 -0.5433  0.2416
  798TIP3   OH223884   1.799   3.926  16.339  0.2730 -0.5787  0.1391
  798TIP3    H123885   1.782   3.891  16.426  0.1707 -1.2820 -0.1509
  798TIP3    H223886   1.716   3.964  16.311 -0.6824 -3.1560 -0.8946
  799TIP3   OH223887   0.698   6.536  11.372  0.1307  0.3874  0.1084
  799TIP3    H123888   0.672   6.536  11.464 -0.8234 -2.6862 -0.0373
  799TIP3    H223889   0.654   6.612  11.334  2.3605  3.1392  2.5084
  800TIP3   OH223890   0.975   6.584  11.358 -0.0447 -0.1820  0.3293
  800TIP3    H123891   0.899   6.536  11.393  0.3037 -0.7826  0.2728
  800TIP3    H223892   0.973   6.565  11.264 -0.6516  0.9709  0.0940
  801TIP3   OH223893   5.838   2.390   5.741 -0.0182 -0.3870  0.5212
  801TIP3    H123894   5.806   2.473   5.706  0.6846 -0.1698  0.3632
  801TIP3    H223895   5.902   2.416   5.808 -1.1795 -0.7949  1.8183
  802TIP3   OH223896   2.563   0.884   4.418  0.2317 -0.3039 -0.8646
  802TIP3    H123897   2.640   0.836   4.446  0.1391 -1.5780 -2.5982
  802TIP3    H223898   2.496   0.861   4.482  1.3412  1.1179  0.8699
  803TIP3   OH223899   4.005   3.029  13.775  0.0040 -0.2275  0.0297
  803TIP3    H123900   4.067   3.053  13.844 -1.1235  1.1424  0.6287
  803TIP3    H223901   3.921   3.018  13.820 -0.2024 -2.2085 -0.7393
  804TIP3   OH223902   2.746   0.713  11.278  0.1706 -0.0436  0.0706
  804TIP3    H123903   2.829   0.739  11.317  0.6928 -1.4753 -0.0221
  804TIP3    H223904   2.724   0.630  11.322 -1.1440  0.2430 -0.0035
  805TIP3   OH223905   4.198   0.801  13.793  0.0684  0.1206  0.4006
  805TIP3    H123906   4.218   0.715  13.831  2.1433  0.1365 -0.5447
  805TIP3    H223907   4.132   0.837  13.852 -0.3022 -1.8010  1.2558
  806TIP3   OH223908   2.379   1.919   5.889 -0.0402  0.1482 -0.4906
  806TIP3    H123909   2.311   1.916   5.956 -1.1935 -0.9525 -1.6444
  806TIP3    H223910   2.459   1.938   5.938 -1.0894  1.1465  0.9564
  807TIP3   OH223911   6.194   2.336  13.776  0.6466 -0.4037 -0.1439
  807TIP3    H123912   6.283   2.347  13.744  0.3391  0.7885 -0.6338
  807TIP3    H223913   6.152   2.420  13.759 -1.1030 -1.5059 -1.6500
  808TIP3   OH223914   1.927   3.684  12.667 -0.2102  0.3244  0.5305
  808TIP3    H123915   1.867   3.701  12.594 -0.4666 -0.1803  0.6169
  808TIP3    H223916   1.881   3.717  12.744 -0.9929 -1.2826  0.7889
  809TIP3   OH223917   5.870   3.128   2.072  0.4207  0.2694  0.2413
  809TIP3    H123918   5.859   3.036   2.047 -2.2057  1.1537 -2.4829
  809TIP3    H223919   5.860   3.129   2.167 -1.3944 -2.0730  0.1535
  810TIP3   OH223920   2.062   2.341  13.039  0.2350  0.2079  0.1827
  810TIP3    H123921   2.143   2.375  13.001 -0.3816  1.3872 -0.1422
  810TIP3    H223922   2.029   2.280  12.973 -0.5375  1.8173 -1.0219
  811TIP3   OH223923   6.498   2.200  12.751 -0.3267  0.1329  0.2116
  811TIP3    H123924   6.555   2.229  12.680 -1.2444  0.4350 -0.4273
  811TIP3    H223925   6.510   2.266  12.820 -1.0427  1.0648 -0.5251
  812TIP3   OH223926   4.896   0.940   2.957  0.0694 -0.7528  0.2973
  812TIP3    H123927   4.979   0.971   2.993 -0.7277 -0.1020  1.6512
  812TIP3    H223928   4.889   0.982   2.872  0.9362 -0.5062  0.3423
  813TIP3   OH223929   4.878   6.569  11.019  0.2215 -0.4466 -0.2779
  813TIP3    H123930   4.938   6.498  10.994  0.3385 -0.1891 -0.7447
  813TIP3    H223931   4.834   6.537  11.098  0.2232 -1.0713 -0.5228
  814TIP3   OH223932   1.382   1.344  13.120 -0.1552 -0.1617 -0.2247
  814TIP3    H123933   1.472   1.373  13.137 -0.5455  1.4036 -0.6456
  814TIP3    H223934   1.331   1.425  13.121 -1.2826 -0.8087 -1.7269
  815TIP3   OH223935   4.680   0.221   4.155 -0.5834 -0.3732 -0.1232
  815TIP3    H123936   4.618   0.290   4.176 -0.5613 -1.1980  3.3493
  815TIP3    H223937   4.692   0.226   4.061 -3.8960  1.4972 -0.5812
  816TIP3   OH223938   0.543   6.412  13.208  0.5529  0.3937  0.1446
  816TIP3    H123939   0.579   6.375  13.127  2.3321  0.4214  0.8907
  816TIP3    H223940   0.549   6.340  13.271 -0.0629  0.6305  0.4840
  817TIP3   OH223941   5.164   1.589  15.439 -0.3066 -0.2572 -0.5150
  817TIP3    H123942   5.160   1.556  15.350 -1.6439 -0.8458 -0.2636
  817TIP3    H223943   5.207   1.520  15.489 -2.4866 -1.4415 -0.1221
  818TIP3   OH223944   6.082   0.552   3.801 -0.4422 -0.0240 -0.5363
  818TIP3    H123945   6.018   0.533   3.732 -1.6908 -0.8113  0.8003
  818TIP3    H223946   6.034   0.606   3.864  0.7751  0.9434 -0.3933
  819TIP3   OH223947   0.403   4.481   5.329 -0.2584 -0.2450 -0.8436
  819TIP3    H123948   0.475   4.446   5.277 -0.3641 -1.6016 -0.1347
  819TIP3    H223949   0.445   4.523   5.404 -0.1786 -0.8107 -0.5631
  820TIP3   OH223950   5.767   6.175  12.815 -0.0987 -0.0028  0.1348
  820TIP3    H123951   5.709   6.236  12.768 -0.2941 -1.2538 -1.3183
  820TIP3    H223952   5.717   6.151  12.893  0.1265  1.9266  0.9325
  821TIP3   OH223953   5.343   0.115   1.934 -0.5453  0.4252  0.1793
  821TIP3    H123954   5.428   0.142   1.900 -0.5745 -0.6210 -0.7465
  821TIP3    H223955   5.363   0.067   2.014 -0.4675  2.7419  1.6417
  822TIP3   OH223956   3.766   5.525   1.151  0.5846 -0.2253  0.3392
  822TIP3    H123957   3.862   5.521   1.148  0.7484  1.2583  2.0686
  822TIP3    H223958   3.744   5.510   1.243 -0.8894 -0.9139 -0.1034
  823TIP3   OH223959   3.957   0.264  15.117 -0.3684  0.5231  0.0732
  823TIP3    H123960   3.870   0.233  15.142  0.1720 -0.3478  0.9293
  823TIP3    H223961   4.016   0.223  15.180  0.6434  1.2704 -0.3711
  824TIP3   OH223962   2.836   6.149  13.167 -0.2093 -0.2004 -0.7070
  824TIP3    H123963   2.875   6.097  13.238 -2.0567 -0.8743 -0.1200
  824TIP3    H223964   2.877   6.235  13.175 -0.1963 -0.3297  1.0515
  825TIP3   OH223965   5.719   5.904   2.869  0.1067 -0.1522 -0.1921
  825TIP3    H123966   5.772   5.979   2.896  1.0670 -0.7436 -0.3921
  825TIP3    H223967   5.776   5.829   2.880 -0.6410 -0.7937 -0.5849
  826TIP3   OH223968   4.441   4.956  16.545  0.3180 -0.4930 -0.1871
  826TIP3    H123969   4.370   5.015  16.567  0.5144  0.6148 -2.2524
  826TIP3    H223970   4.399   4.881  16.503  0.2580 -0.5727  0.0154
  827TIP3   OH223971   4.848   0.091  16.655  0.0763  0.0146 -0.0166
  827TIP3    H123972   4.930   0.056  16.690  0.0968  0.0911  0.0128
  827TIP3    H223973   4.850   0.184  16.679 -0.4125 -0.1610  0.7266
  828TIP3   OH223974   6.813   1.461   3.479  0.1067  0.3291  0.0068
  828TIP3    H123975   6.769   1.382   3.511 -1.4013  1.4424  0.8023
  828TIP3    H223976   6.753   1.532   3.500  2.9179  2.1917  2.6165
  829TIP3   OH223977   3.461   2.824  16.554  0.0574  0.2857 -0.3486
  829TIP3    H123978   3.518   2.901  16.552  1.6269 -0.8205 -0.9741
  829TIP3    H223979   3.502   2.766  16.617  0.2932 -0.9927 -1.6192
  830TIP3   OH223980   0.975   0.724   1.624 -0.5726  0.5833 -0.1423
  830TIP3    H123981   0.916   0.694   1.693  0.2163  0.1725  0.3655
  830TIP3    H223982   0.984   0.649   1.566  1.5924 -0.3291  1.2573
  831TIP3   OH223983   6.233   1.946  14.480 -0.6256  0.6145  0.4291
  831TIP3    H123984   6.152   1.943  14.532 -0.9101  1.1552  0.0236
  831TIP3    H223985   6.203   1.940  14.389 -0.2505  1.3907  0.2491
  832TIP3   OH223986   6.018   1.209   4.963  0.0435  0.2286  0.0438
  832TIP3    H123987   6.023   1.228   5.057 -0.8392 -2.0049  0.5947
  832TIP3    H223988   5.942   1.258   4.933  0.3164  0.9376  0.4710
  833TIP3   OH223989   5.616   2.259   4.213  0.3744  0.1265 -0.2246
  833TIP3    H123990   5.586   2.212   4.291 -0.8363 -0.2033 -0.8735
  833TIP3    H223991   5.711   2.244   4.211  0.1923 -1.1946  0.3076
  834TIP3   OH223992   2.427   3.994   3.146  0.1184  0.4842  0.3258
  834TIP3    H123993   2.349   3.966   3.098 -0.2977 -0.4017  1.4856
  834TIP3    H223994   2.442   4.084   3.115 -0.0488 -0.0704 -1.5355
  835TIP3   OH223995   2.098   1.580   3.847  0.0225 -0.2396 -0.3518
  835TIP3    H123996   2.072   1.497   3.808  1.0164 -0.9737  0.4977
  835TIP3    H223997   2.193   1.575   3.853  0.1413  1.1712 -0.7338
  836TIP3   OH223998   5.776   0.899   5.510 -0.2674 -0.6205  0.0996
  836TIP3    H123999   5.768   0.898   5.414  3.5004  0.2684 -0.3789
  836TIP3    H224000   5.843   0.833   5.529  1.5602  1.5173  1.6707
  837TIP3   OH224001   5.725   5.059  14.133 -0.1917  0.4654  0.1811
  837TIP3    H124002   5.814   5.028  14.117 -0.2803  0.1487  0.2949
  837TIP3    H224003   5.732   5.112  14.212 -0.0513  0.6812  0.0244
  838TIP3   OH224004   3.808   3.771  13.539  0.2548 -0.4215  0.2779
  838TIP3    H124005   3.736   3.793  13.598  1.2034 -0.7976  1.6324
  838TIP3    H224006   3.852   3.697  13.582  1.7970  0.1684 -0.2051
  839TIP3   OH224007   2.582   5.641  10.797  0.2667  0.2837 -0.0183
  839TIP3    H124008   2.627   5.587  10.862 -1.2694  0.1032  0.9597
  839TIP3    H224009   2.650   5.665  10.734  1.8280  0.4382  1.6338
  840TIP3   OH224010   4.335   5.803   5.541  0.4747  0.3603 -0.1576
  840TIP3    H124011   4.248   5.768   5.559 -0.0538  1.3982 -0.6616
  840TIP3    H224012   4.382   5.792   5.624 -0.3122  0.3245  0.2972
  841TIP3   OH224013   0.364   1.979  12.426 -0.2564 -0.5336  0.3706
  841TIP3    H124014   0.395   1.913  12.488  1.2152 -1.1192 -0.9105
  841TIP3    H224015   0.271   1.991  12.447  0.0332 -1.1897  2.2125
  842TIP3   OH224016   1.181   1.222  13.240  0.4358  0.1891  0.1377
  842TIP3    H124017   1.250   1.283  13.213 -0.8527  0.0849 -4.1634
  842TIP3    H224018   1.196   1.144  13.188 -2.0606 -0.3859  0.1499
  843TIP3   OH224019   1.439   0.485   6.208 -0.3603  0.3202  0.4634
  843TIP3    H124020   1.417   0.394   6.185 -2.3722  0.5817  1.2004
  843TIP3    H224021   1.431   0.488   6.303 -1.4216  1.5176  0.3674
  844TIP3   OH224022   3.968   3.857  12.662  0.1143 -0.3490 -0.3400
  844TIP3    H124023   4.063   3.873  12.657  0.3904 -1.8405 -0.3294
  844TIP3    H224024   3.955   3.776  12.613 -1.1885 -0.0907 -0.4431
  845TIP3   OH224025   4.652   6.515  13.455  0.1222  0.0541  0.1977
  845TIP3    H124026   4.640   6.442  13.394 -0.0657 -0.4511  0.8214
  845TIP3    H224027   4.565   6.532  13.490  0.2580  0.2004  0.4721
  846TIP3   OH224028   4.610   2.944  13.488 -0.4320 -0.6304  0.8050
  846TIP3    H124029   4.543   2.895  13.440 -0.7385 -0.1854  0.7803
  846TIP3    H224030   4.682   2.952  13.426 -0.3080 -1.2114  0.8702
  847TIP3   OH224031   0.708   4.438  14.764 -0.3926 -0.3762 -0.1513
  847TIP3    H124032   0.784   4.411  14.711  0.2018 -0.5527  0.7718
  847TIP3    H224033   0.633   4.399  14.720  0.2295 -1.7042 -0.0917
  848TIP3   OH224034   1.901   6.792   1.972 -0.4486  0.1621  0.0358
  848TIP3    H124035   1.831   6.730   1.953  1.0911 -1.4751 -0.5885
  848TIP3    H224036   1.953   6.794   1.892 -0.3263  2.1260  0.1313
  849TIP3   OH224037   1.993   0.735   5.484 -0.3648 -0.1053  0.3131
  849TIP3    H124038   1.986   0.640   5.495 -0.4134 -0.0627  0.6534
  849TIP3    H224039   1.997   0.747   5.389 -1.8912 -0.3395  0.2046
  850TIP3   OH224040   2.430   5.363  12.157 -0.5137  0.2852 -0.1683
  850TIP3    H124041   2.445   5.330  12.068  1.8347  0.9679 -0.0879
  850TIP3    H224042   2.467   5.297  12.215  1.8143  1.6909  0.0808
  851TIP3   OH224043   4.975   3.040   4.125 -0.5997 -0.5909  0.2255
  851TIP3    H124044   5.029   3.034   4.046 -1.1550 -0.9926 -0.1297
  851TIP3    H224045   4.896   2.991   4.104 -0.2585 -1.7371  1.4469
  852TIP3   OH224046   5.608   4.180   2.325  0.0080 -0.3829 -0.1147
  852TIP3    H124047   5.517   4.155   2.338 -0.2749  1.8794  4.4261
  852TIP3    H224048   5.658   4.120   2.381  0.8393  0.5915  0.2360
  853TIP3   OH224049   4.974   4.949   3.363  0.1429 -0.2167  0.1818
  853TIP3    H124050   4.931   4.873   3.323  0.7046 -0.4624  0.0245
  853TIP3    H224051   4.995   4.920   3.452 -0.3881  0.0476  0.3932
  854TIP3   OH224052   3.205   6.522   0.324  0.7451 -0.2877  0.3502
  854TIP3    H124053   3.146   6.454   0.291  0.3495 -0.5461  1.5288
  854TIP3    H224054   3.152   6.601   0.324  0.6681 -0.3375  0.5703
  855TIP3   OH224055   6.678   5.716   5.416  0.5130  0.0912  0.1246
  855TIP3    H124056   6.621   5.696   5.341  0.6119  0.3309 -0.0166
  855TIP3    H224057   6.680   5.635   5.467  0.5349 -0.1139 -0.1936
  856TIP3   OH224058   2.662   3.309  13.906  0.3045 -0.5593  0.1746
  856TIP3    H124059   2.731   3.373  13.890  1.5529 -1.9591 -0.3324
  856TIP3    H224060   2.672   3.286  13.999  0.2226 -0.4159  0.2189
  857TIP3   OH224061   4.356   6.660   2.034 -0.3111  0.3021  0.0204
  857TIP3    H124062   4.366   6.755   2.034  0.5500  0.2289  0.8308
  857TIP3    H224063   4.439   6.628   1.998 -0.5856 -0.1488 -0.2229
  858TIP3   OH224064   6.712   0.529   0.255 -0.0841  0.2562  0.4063
  858TIP3    H124065   6.682   0.542   0.345 -0.1533 -0.8280  0.5541
  858TIP3    H224066   6.672   0.446   0.228  2.2826 -0.9587  0.4077
  859TIP3   OH224067   6.600   0.355  11.041  0.0748 -0.5116  0.1911
  859TIP3    H124068   6.635   0.444  11.033  0.6660 -0.6854  0.8117
  859TIP3    H224069   6.587   0.326  10.950  2.5338 -0.8287 -0.1268
  860TIP3   OH224070   0.823   3.740   1.482 -0.0519  0.4788  0.5795
  860TIP3    H124071   0.761   3.706   1.548  0.1984  1.0353  1.1131
  860TIP3    H224072   0.874   3.806   1.529  1.1980 -0.2182  0.2406
  861TIP3   OH224073   1.763   3.735  12.458  0.4932  0.1281 -0.3299
  861TIP3    H124074   1.684   3.682  12.464 -0.1774  0.8941 -1.8353
  861TIP3    H224075   1.736   3.822  12.487  0.8908  0.2764 -0.3946
  862TIP3   OH224076   0.244   6.069   3.052  0.1533 -0.6050 -0.0241
  862TIP3    H124077   0.222   6.124   2.977 -1.4252  0.4403  1.1411
  862TIP3    H224078   0.297   6.125   3.108 -0.8630 -0.4751  0.8366
  863TIP3   OH224079   6.562   3.045   0.473  0.0115 -0.1206 -0.2189
  863TIP3    H124080   6.582   2.970   0.529 -1.0943  0.8584  1.5785
  863TIP3    H224081   6.469   3.061   0.488 -0.6126 -0.4145 -3.1669
  864TIP3   OH224082   3.483   0.403  13.926  0.5452 -0.3083  0.3820
  864TIP3    H124083   3.414   0.415  13.861  1.3404  2.0653 -0.1104
  864TIP3    H224084   3.444   0.345  13.992 -1.3416 -0.3204 -0.6840
  865TIP3   OH224085   6.543   0.726  13.278 -0.1031  0.7429 -0.3384
  865TIP3    H124086   6.604   0.668  13.233  0.7282  0.1390  1.4837
  865TIP3    H224087   6.458   0.707  13.238  0.3340 -0.9689 -0.5268
  866TIP3   OH224088   4.495   2.323  17.219  0.6238  0.7542 -0.5449
  866TIP3    H124089   4.482   2.346  17.127  0.9999  3.0151 -0.0924
  866TIP3    H224090   4.563   2.384  17.250  3.7646 -2.7314  0.1866
  867TIP3   OH224091   0.515   4.177   0.430  0.4488  0.0483 -0.2857
  867TIP3    H124092   0.607   4.170   0.401  1.2055  0.7992  1.7619
  867TIP3    H224093   0.520   4.172   0.525 -1.8027 -1.1397 -0.1887
  868TIP3   OH224094   5.734   4.879   4.097 -1.0743 -0.0806  0.1383
  868TIP3    H124095   5.774   4.850   4.015 -0.0147 -0.1188  0.6638
  868TIP3    H224096   5.644   4.845   4.093 -0.1701 -2.7194  0.3274
  869TIP3   OH224097   6.344   3.439  16.783  0.3664 -0.4831  0.4676
  869TIP3    H124098   6.415   3.399  16.833  0.0646 -0.5889  0.8155
  869TIP3    H224099   6.284   3.367  16.764 -0.0271 -0.2598  0.8356
  870TIP3   OH224100   5.201   3.012  16.826  0.5085  0.1280 -0.2601
  870TIP3    H124101   5.167   3.073  16.892 -1.6228 -1.1740 -0.0565
  870TIP3    H224102   5.255   3.066  16.768 -0.4419  1.9815  0.5055
  871TIP3   OH224103   6.350   2.851  16.573  0.3338 -0.1707  0.1259
  871TIP3    H124104   6.391   2.857  16.659  0.3685 -0.5216  0.1352
  871TIP3    H224105   6.416   2.812  16.517 -0.2657 -1.5734  0.3399
  872TIP3   OH224106   6.203   1.720   3.060 -0.3092  0.1662  0.1546
  872TIP3    H124107   6.118   1.702   3.099 -0.3825 -1.1786 -0.5580
  872TIP3    H224108   6.260   1.741   3.134 -1.0721  0.3287  0.7071
  873TIP3   OH224109   5.086   3.173  12.564 -0.3399  0.0065  0.1145
  873TIP3    H124110   5.156   3.138  12.618 -1.1369 -0.5290  0.8281
  873TIP3    H224111   5.102   3.267  12.560  0.3871 -0.1062  0.3014
  874TIP3   OH224112   0.469   4.267  15.628 -0.7895 -0.2098 -0.4996
  874TIP3    H124113   0.447   4.193  15.686  1.8296 -1.1613 -0.5636
  874TIP3    H224114   0.401   4.266  15.561 -1.5113 -1.8092  0.1953
  875TIP3   OH224115   2.101   6.682   0.402 -0.0350 -0.1009 -0.0997
  875TIP3    H124116   2.126   6.739   0.330  0.6548 -0.5150 -0.1907
  875TIP3    H224117   2.149   6.716   0.478 -1.1104  0.6211  0.2934
  876TIP3   OH224118   3.909   0.650  13.972  0.8183 -0.1493  0.0064
  876TIP3    H124119   3.839   0.672  14.033 -0.4950  0.1470 -1.5498
  876TIP3    H224120   3.971   0.723  13.981  0.9671 -0.4238  1.4088
  877TIP3   OH224121   3.485   2.519   5.383 -0.0017 -0.1636  0.3082
  877TIP3    H124122   3.528   2.598   5.414  1.6869 -0.2321 -1.6989
  877TIP3    H224123   3.523   2.449   5.437  0.0801  0.1283  0.6365
  878TIP3   OH224124   5.333   3.841  15.023 -0.0193 -0.0687 -0.1442
  878TIP3    H124125   5.415   3.811  14.984 -0.5783 -0.1679 -1.2835
  878TIP3    H224126   5.321   3.929  14.987 -0.3815 -0.0282  0.0739
  879TIP3   OH224127   5.599   4.011   3.254  0.0862  0.0149  0.9833
  879TIP3    H124128   5.674   3.958   3.283 -2.8177 -3.6952  2.6621
  879TIP3    H224129   5.587   3.987   3.162  1.0788  0.9222  0.5922
  880TIP3   OH224130   0.425   2.765  15.883 -0.0929 -0.3129  0.2376
  880TIP3    H124131   0.435   2.822  15.807 -0.9648  0.8142  0.9376
  880TIP3    H224132   0.331   2.763  15.900 -0.0218 -1.4946  0.5911
  881TIP3   OH224133   6.515   5.209   3.060 -0.5988  0.5377 -0.0913
  881TIP3    H124134   6.485   5.187   3.148 -1.3992  0.3174 -0.4093
  881TIP3    H224135   6.557   5.130   3.028 -1.8030  0.0409 -0.5237
  882TIP3   OH224136   6.415   3.150  13.005  0.2858  0.2874 -0.0020
  882TIP3    H124137   6.499   3.185  13.036 -0.9164  0.7328  3.1299
  882TIP3    H224138   6.407   3.065  13.049 -2.2491  1.6577  2.4442
  883TIP3   OH224139   6.511   5.056   2.708  0.1430 -0.3064 -0.6033
  883TIP3    H124140   6.437   5.056   2.769  1.6227 -0.0510  1.2866
  883TIP3    H224141   6.501   4.975   2.658 -0.5707 -1.0612  0.7106
  884TIP3   OH224142   6.711   6.300  15.286 -0.5047  0.1797  0.5660
  884TIP3    H124143   6.652   6.284  15.360  1.4148 -0.4355  2.0534
  884TIP3    H224144   6.788   6.247  15.305  1.2474  2.2501 -0.3796
  885TIP3   OH224145   4.628   1.900   0.886  0.1847 -0.3697 -0.0201
  885TIP3    H124146   4.689   1.934   0.951  0.4318  1.6830 -1.2403
  885TIP3    H224147   4.546   1.947   0.904  0.2529  0.2008 -1.1420
  886TIP3   OH224148   4.769   5.487  15.127 -0.4089  0.7317 -0.3010
  886TIP3    H124149   4.748   5.512  15.217 -0.2582 -0.2468  0.0188
  886TIP3    H224150   4.749   5.393  15.123 -0.8179  0.8453 -1.4133
  887TIP3   OH224151   6.179   3.202  15.839  0.1040  0.2027  0.5412
  887TIP3    H124152   6.242   3.261  15.798 -1.0562  0.3970 -1.0798
  887TIP3    H224153   6.101   3.256  15.851 -0.4121 -0.5531  0.6592
  888TIP3   OH224154   0.253   5.903  14.623  0.0562  0.0530  0.8251
  888TIP3    H124155   0.173   5.898  14.675  0.7492 -0.1751  1.8961
  888TIP3    H224156   0.324   5.910  14.688  0.9233  0.0233 -0.0936
  889TIP3   OH224157   3.349   2.401  16.570 -0.1460  0.0824 -0.5510
  889TIP3    H124158   3.401   2.415  16.649 -1.5063  2.3060  0.0666
  889TIP3    H224159   3.402   2.436  16.499 -0.8005  2.6285  0.1154
  890TIP3   OH224160   3.245   2.414   2.543  0.2898  0.3931  0.0858
  890TIP3    H124161   3.289   2.402   2.458  2.1527 -0.6265  1.1298
  890TIP3    H224162   3.299   2.479   2.588  0.6466 -0.7296  1.3191
  891TIP3   OH224163   4.394   5.402   1.655  0.1811 -0.3134  0.3086
  891TIP3    H124164   4.473   5.456   1.662  0.7507 -1.2488  1.4053
  891TIP3    H224165   4.333   5.440   1.718  1.4547 -2.3035  2.9415
  892TIP3   OH224166   5.256   1.450  13.996  0.2164 -0.0593 -0.2914
  892TIP3    H124167   5.316   1.400  13.940 -0.5443  0.1282 -1.2828
  892TIP3    H224168   5.170   1.410  13.981 -0.5010  1.7954 -1.4515
  893TIP3   OH224169   0.053   6.668   3.504 -0.0226 -0.2917 -0.4923
  893TIP3    H124170  -0.002   6.713   3.568 -1.1026 -0.9044 -0.9631
  893TIP3    H224171   0.051   6.723   3.426 -0.0760 -0.3746 -0.5504
  894TIP3   OH224172   2.218   1.274  11.130 -0.2419 -0.2602  0.1541
  894TIP3    H124173   2.302   1.319  11.124 -0.7793  0.6966 -0.3450
  894TIP3    H224174   2.158   1.327  11.078 -1.1331 -1.0008  0.3968
  895TIP3   OH224175   0.240   3.374   0.380 -0.0918  0.3179 -0.8567
  895TIP3    H124176   0.318   3.319   0.387  0.4135  1.2007  1.6826
  895TIP3    H224177   0.273   3.459   0.351 -0.2752  0.4062 -0.8073
  896TIP3   OH224178   6.508   3.529  15.552  0.4953  0.5808  0.1767
  896TIP3    H124179   6.516   3.624  15.560 -0.4473  0.7708 -0.7334
  896TIP3    H224180   6.537   3.510  15.462 -0.6142  0.2069 -0.1236
  897TIP3   OH224181   2.775   2.546   3.145  0.0804 -0.3163 -0.2586
  897TIP3    H124182   2.759   2.598   3.066  1.8689 -0.3034 -0.6488
  897TIP3    H224183   2.809   2.608   3.209  0.7188 -0.7061 -0.2084
  898TIP3   OH224184   6.432   0.081   3.513  0.0165  0.3297 -0.0535
  898TIP3    H124185   6.497   0.058   3.447  0.2918 -2.7706  1.1334
  898TIP3    H224186   6.479   0.133   3.578  1.6250 -2.3632  1.0948
  899TIP3   OH224187   4.349   2.766   6.158  0.0195 -0.1974 -0.1748
  899TIP3    H124188   4.319   2.812   6.236  0.3454  0.8842 -0.6609
  899TIP3    H224189   4.444   2.774   6.161  0.0347 -0.1778 -0.6558
  900TIP3   OH224190   2.703   1.935  14.476  0.0545 -0.2035 -0.3410
  900TIP3    H124191   2.766   1.873  14.513 -0.5309  0.2047  1.4497
  900TIP3    H224192   2.674   1.988  14.551 -0.3893  1.4182 -1.5897
  901TIP3   OH224193   4.379   2.839  14.940  0.4192  0.7894 -0.3254
  901TIP3    H124194   4.378   2.903  15.011 -0.1375  0.2613  0.1536
  901TIP3    H224195   4.319   2.875  14.874 -4.2972 -1.6265  2.1607
  902TIP3   OH224196   1.184   3.203   1.469 -0.4227 -0.2296 -0.2035
  902TIP3    H124197   1.093   3.221   1.490  0.1244  0.0176  2.2660
  902TIP3    H224198   1.229   3.286   1.485  0.3920 -0.5989 -0.5066
  903TIP3   OH224199   4.974   6.162   1.094 -0.0755 -0.3452  0.4465
  903TIP3    H124200   5.031   6.141   1.168  1.1710  0.1741 -0.3141
  903TIP3    H224201   5.003   6.249   1.065  0.1152 -0.9059 -1.1900
  904TIP3   OH224202   3.751   1.110   6.161 -0.0950 -0.0892  0.0032
  904TIP3    H124203   3.677   1.169   6.165 -0.2216  0.0237 -2.5248
  904TIP3    H224204   3.713   1.022   6.168 -0.4988 -0.0253 -1.1636
  905TIP3   OH224205   0.706   5.862   6.168 -0.3972  0.6435  0.1022
  905TIP3    H124206   0.725   5.950   6.200  0.0915  0.8734 -0.8041
  905TIP3    H224207   0.781   5.810   6.195 -0.2022  0.7355 -0.2571
  906TIP3   OH224208   2.631   2.053  13.945 -0.4277  0.2501  0.4162
  906TIP3    H124209   2.613   2.147  13.939 -2.7535  0.0850  2.8528
  906TIP3    H224210   2.641   2.036  14.038  0.0404 -1.9312  0.0321
  907TIP3   OH224211   2.313   5.404  12.536  0.6013  0.2625 -0.0717
  907TIP3    H124212   2.393   5.449  12.507 -0.0433  0.9053 -0.9214
  907TIP3    H224213   2.297   5.437  12.624  1.8388 -0.6738  0.5416
  908TIP3   OH224214   3.616   2.195   5.254  0.6321 -0.3360  0.1248
  908TIP3    H124215   3.606   2.104   5.280  1.2886 -0.7539 -1.0412
  908TIP3    H224216   3.537   2.215   5.203  0.4219 -0.2057  0.4988
  909TIP3   OH224217   6.501   4.142   3.417  0.2153  0.0471  0.5488
  909TIP3    H124218   6.423   4.116   3.466 -0.1219  0.6964  0.3701
  909TIP3    H224219   6.540   4.060   3.389 -1.0277 -0.2711 -0.3255
  910TIP3   OH224220   4.184   1.805   0.532 -0.1716 -0.1157 -0.0123
  910TIP3    H124221   4.273   1.795   0.500 -0.2108  2.7309 -1.3212
  910TIP3    H224222   4.163   1.721   0.573  2.2252 -1.6973 -1.7944
  911TIP3   OH224223   6.304   3.814  14.539 -0.0117 -0.2348  0.1107
  911TIP3    H124224   6.381   3.759  14.526 -0.9874 -1.5144 -0.5076
  911TIP3    H224225   6.277   3.839  14.451 -0.6163 -0.2430  0.2927
  912TIP3   OH224226   2.725   5.183  11.895  0.0795 -0.4442 -0.1157
  912TIP3    H124227   2.711   5.120  11.824 -2.7851 -1.6381  1.3429
  912TIP3    H224228   2.679   5.261  11.866 -1.2289 -0.9850  0.4171
  913TIP3   OH224229   0.349   4.111   4.048  0.1109  0.2765  0.5299
  913TIP3    H124230   0.326   4.022   4.073 -0.7250  0.3452  0.0192
  913TIP3    H224231   0.278   4.140   3.992  0.9023  0.8845 -0.1907
  914TIP3   OH224232   2.944   2.298  11.559 -0.0111 -0.2593  0.2946
  914TIP3    H124233   3.033   2.279  11.530  0.9049  1.3625  1.8898
  914TIP3    H224234   2.952   2.374  11.616 -2.5885  0.7134 -0.4652
  915TIP3   OH224235   4.278   2.566   5.963  0.0343  0.3489 -0.1051
  915TIP3    H124236   4.210   2.509   6.000  1.4040 -0.5196  1.1650
  915TIP3    H224237   4.292   2.633   6.030  1.1489 -0.0880  0.1213
  916TIP3   OH224238   5.240   2.167  15.746  0.0507 -0.4919  0.3089
  916TIP3    H124239   5.197   2.082  15.755 -1.6214  0.3793  0.8039
  916TIP3    H224240   5.315   2.150  15.689 -2.4149 -1.5897 -2.9057
  917TIP3   OH224241   6.086   0.610   1.558 -0.8350 -0.1845  0.0543
  917TIP3    H124242   6.060   0.687   1.610 -1.5646  0.0937 -0.6980
  917TIP3    H224243   6.007   0.556   1.555 -0.5837 -0.5356 -0.1708
  918TIP3   OH224244   2.023   3.059  10.597 -0.6899  0.0157 -0.2990
  918TIP3    H124245   1.940   3.057  10.644  0.2717 -1.8103  1.4725
  918TIP3    H224246   2.089   3.068  10.665  0.7098 -1.6472 -1.3552
  919TIP3   OH224247   1.768   1.406  13.779  0.4834  0.1325  0.3074
  919TIP3    H124248   1.695   1.359  13.738  1.2430 -0.4949 -0.3756
  919TIP3    H224249   1.767   1.377  13.871 -0.6002  0.7440  0.4943
  920TIP3   OH224250   4.658   2.709  13.211 -0.0569 -0.2194  0.5130
  920TIP3    H124251   4.740   2.718  13.259  0.5073 -3.5655  0.3621
  920TIP3    H224252   4.681   2.732  13.121  0.9969 -2.0013  0.2936
  921TIP3   OH224253   2.925   3.105  12.942  0.2691  0.4272  0.0839
  921TIP3    H124254   2.977   3.104  13.022 -0.6247  1.0676  0.6872
  921TIP3    H224255   2.961   3.034  12.889  0.7056 -0.1643  1.1551
  922TIP3   OH224256   3.533   5.221   2.979  0.1156 -0.0906  0.7729
  922TIP3    H124257   3.539   5.135   3.021  0.9681  1.1350  3.4145
  922TIP3    H224258   3.576   5.280   3.040  0.1781  2.1409 -1.2889
  923TIP3   OH224259   6.262   0.669  16.995 -0.2299  0.0182  0.0174
  923TIP3    H124260   6.278   0.668  17.089  1.5799 -1.2684 -0.2497
  923TIP3    H224261   6.173   0.637  16.985 -0.6181  0.6498  1.3082
  924TIP3   OH224262   0.057   3.540   2.431  0.2178 -0.0465  0.0803
  924TIP3    H124263  -0.019   3.566   2.380 -0.8441 -1.2100  1.0023
  924TIP3    H224264   0.066   3.608   2.498  0.4346  0.4729 -0.4770
  925TIP3   OH224265   2.980   3.272  14.377  0.2307 -0.2498 -0.5740
  925TIP3    H124266   2.991   3.300  14.286  2.0812  3.4504  0.5545
  925TIP3    H224267   2.890   3.295  14.399  0.3829  0.8260 -0.9767
  926TIP3   OH224268   1.483   0.165   1.947 -0.3086  0.3977  0.0632
  926TIP3    H124269   1.576   0.151   1.930 -0.5904  0.3769 -1.7291
  926TIP3    H224270   1.473   0.260   1.944 -0.4100  0.3803 -0.1487
  927TIP3   OH224271   5.454   2.322  11.483  0.0700 -0.1859 -0.1616
  927TIP3    H124272   5.538   2.366  11.467  0.0729 -0.6197 -1.5459
  927TIP3    H224273   5.388   2.385  11.455 -0.1072  0.3416  1.3855
  928TIP3   OH224274   1.668   5.787   3.444  0.1237  0.0254  0.3691
  928TIP3    H124275   1.675   5.842   3.521 -0.5550  0.1372  0.3533
  928TIP3    H224276   1.624   5.708   3.475 -1.1380  0.5135 -0.1157
  929TIP3   OH224277   6.313   2.853   3.055  0.1086  0.5876 -0.0192
  929TIP3    H124278   6.316   2.802   2.974  1.3636  1.5780 -0.6214
  929TIP3    H224279   6.355   2.936   3.034 -0.6422  1.3560  1.3254
  930TIP3   OH224280   4.558   0.560   5.048  0.1897  0.7841 -0.6608
  930TIP3    H124281   4.548   0.644   5.093 -0.0064 -0.0396  0.9051
  930TIP3    H224282   4.469   0.527   5.038  0.3417  0.1973 -0.1266
  931TIP3   OH224283   5.382   6.261  16.508  0.0492 -0.2577 -0.0292
  931TIP3    H124284   5.323   6.329  16.540  0.9968  2.5029 -3.5093
  931TIP3    H224285   5.324   6.188  16.485 -1.5399  0.8712  0.2440
  932TIP3   OH224286   1.880   3.052  10.909  0.3870  0.1027  0.3535
  932TIP3    H124287   1.891   3.135  10.955 -1.0342  0.4106  0.1687
  932TIP3    H224288   1.858   3.076  10.820 -1.4187 -0.4274  0.6199
  933TIP3   OH224289   6.642   1.988   1.307  0.2412 -0.2254 -0.0591
  933TIP3    H124290   6.579   1.916   1.311 -0.1747 -0.0654 -2.4413
  933TIP3    H224291   6.723   1.951   1.342 -0.8911 -0.6728  2.3098
  934TIP3   OH224292   3.700   3.013  12.532  0.0222 -0.0861  0.3753
  934TIP3    H124293   3.753   3.086  12.564  0.4842 -0.2684  0.0328
  934TIP3    H224294   3.638   2.996  12.602  1.2723 -0.7417  1.3765
  935TIP3   OH224295   4.908   1.912  16.409 -0.0050  1.0411 -0.1615
  935TIP3    H124296   4.932   2.005  16.411  0.1154  1.0105 -0.1713
  935TIP3    H224297   4.836   1.908  16.346  0.4392  1.0246 -0.6723
  936TIP3   OH224298   6.043   6.041  10.645  0.0372 -0.3754 -0.3642
  936TIP3    H124299   6.040   6.131  10.679 -0.8562 -0.6337  0.3082
  936TIP3    H224300   6.102   5.995  10.704  1.9901  0.1697 -1.8133
  937TIP3   OH224301   5.051   5.764  15.141 -0.0829 -0.7639 -0.4569
  937TIP3    H124302   5.047   5.836  15.204  1.1626 -0.7589 -0.3548
  937TIP3    H224303   5.057   5.807  15.056 -1.6301 -0.7711 -0.5969
  938TIP3   OH224304   5.390   2.179   4.073  0.0516  0.8124 -0.2604
  938TIP3    H124305   5.439   2.242   4.127  0.2913  0.5796 -0.2087
  938TIP3    H224306   5.453   2.110   4.053 -0.0445  0.8883 -0.8262
  939TIP3   OH224307   0.150   0.516   0.724 -0.1586 -0.3981 -0.0589
  939TIP3    H124308   0.056   0.515   0.705 -0.3674 -1.0241  0.9084
  939TIP3    H224309   0.178   0.605   0.702 -1.0357 -0.1221 -0.1000
  940TIP3   OH224310   1.094   1.962  10.492 -0.0917  0.6568 -0.0246
  940TIP3    H124311   1.165   1.899  10.508  1.0201  1.6353 -0.9392
  940TIP3    H224312   1.025   1.935  10.552  1.4074  0.2419  1.6209
  941TIP3   OH224313   0.492   5.800   0.019  0.2584  0.1766  0.2709
  941TIP3    H124314   0.400   5.828   0.009  0.3358  0.3594  0.0535
  941TIP3    H224315   0.500   5.725  -0.040 -0.0346 -0.5145  1.0957
  942TIP3   OH224316   3.093   6.033   4.127  0.3122  0.2750  0.6293
  942TIP3    H124317   2.998   6.020   4.125  0.0570  1.7092  1.6039
  942TIP3    H224318   3.116   6.021   4.219  1.3406 -1.5449  0.1773
  943TIP3   OH224319   3.556   0.916   5.241 -0.0049  0.2051 -0.2665
  943TIP3    H124320   3.622   0.867   5.191  0.2247  0.5397 -0.2943
  943TIP3    H224321   3.479   0.918   5.184  0.3743  0.8974 -0.7715
  944TIP3   OH224322   2.932   3.903   4.455  0.4576 -0.3222  0.4012
  944TIP3    H124323   2.884   3.835   4.408 -0.5617 -0.6286  1.8565
  944TIP3    H224324   2.880   3.921   4.533  0.2285  2.7643 -0.3346
  945TIP3   OH224325   4.239   5.724   4.718 -0.2998  0.5946 -0.0522
  945TIP3    H124326   4.304   5.677   4.667 -0.0733 -0.3437  1.0573
  945TIP3    H224327   4.168   5.743   4.656 -0.4506 -1.3170 -0.5272
  946TIP3   OH224328   5.654   2.546  11.500  0.0509  1.3302  0.2609
  946TIP3    H124329   5.596   2.573  11.571 -1.3159 -0.1230 -0.2363
  946TIP3    H224330   5.742   2.548  11.539 -0.5931  1.1707  1.8005
  947TIP3   OH224331   6.458   3.711  14.839  0.0538 -0.0612 -0.2561
  947TIP3    H124332   6.372   3.675  14.860  0.1614 -0.6523 -0.7796
  947TIP3    H224333   6.505   3.638  14.797  0.9526  0.1341  0.3863
  948TIP3   OH224334   1.587   5.368  15.674 -0.2043 -0.3146 -0.1205
  948TIP3    H124335   1.518   5.391  15.613  1.3836  1.1456 -1.4699
  948TIP3    H224336   1.615   5.452  15.712 -0.2466 -1.0488  1.6334
  949TIP3   OH224337   0.506   3.967  13.887 -0.0739  0.5364  0.0737
  949TIP3    H124338   0.444   4.024  13.931  0.8226  1.9846 -0.4675
  949TIP3    H224339   0.589   3.981  13.934 -0.1996 -1.7604  1.1324
  950TIP3   OH224340   1.064   4.715   1.647  0.6192 -0.5806  0.0626
  950TIP3    H124341   1.044   4.621   1.648  1.8044 -0.8728 -0.6647
  950TIP3    H224342   0.983   4.757   1.675 -0.6147 -1.7120 -1.5677
  951TIP3   OH224343   5.889   0.963   6.394  0.0532 -0.3232  0.0387
  951TIP3    H124344   5.815   0.912   6.428 -1.2548  2.3192  1.4593
  951TIP3    H224345   5.860   1.054   6.401  3.2381  0.7849  0.0901
  952TIP3   OH224346   5.957   2.830  14.110 -0.0629  0.0514 -0.7209
  952TIP3    H124347   5.979   2.911  14.155 -0.4752 -0.3638  0.2535
  952TIP3    H224348   5.927   2.859  14.023  0.8020  0.8520 -0.7748
  953TIP3   OH224349   1.014   0.639  11.552 -0.3604 -0.2014 -0.4746
  953TIP3    H124350   1.081   0.701  11.525 -0.3520  0.0957  0.2150
  953TIP3    H224351   1.015   0.572  11.483  0.2995  0.0529 -0.7248
  954TIP3   OH224352   2.431   3.291  13.559  0.2231 -0.2323 -0.3365
  954TIP3    H124353   2.440   3.291  13.463 -3.1998 -1.4082 -0.8017
  954TIP3    H224354   2.386   3.373  13.578  0.0510 -0.4309  0.1178
  955TIP3   OH224355   4.930   1.183   6.469 -0.3820  0.1027  0.0618
  955TIP3    H124356   4.870   1.159   6.539 -0.1403 -1.6283 -0.2957
  955TIP3    H224357   4.998   1.235   6.512 -1.3449  0.8540  0.7154
  956TIP3   OH224358   4.053   5.257   5.060 -0.4378 -0.1674  0.4667
  956TIP3    H124359   4.060   5.176   5.008 -0.3046 -1.1369  1.9393
  956TIP3    H224360   4.141   5.272   5.093 -0.1749  1.3347 -0.8372
  957TIP3   OH224361   3.301   1.372   1.225  0.8069  0.2286  0.7129
  957TIP3    H124362   3.369   1.419   1.176  0.7960  0.5947  1.0417
  957TIP3    H224363   3.279   1.297   1.170  0.1153  1.1375 -0.3010
  958TIP3   OH224364   6.661   1.290   4.072  0.3317  0.1547 -0.3466
  958TIP3    H124365   6.621   1.215   4.028  2.3881 -0.4188 -1.3231
  958TIP3    H224366   6.719   1.251   4.138  0.0836  0.9487  0.3608
  959TIP3   OH224367   5.466   5.077   5.951  0.0003 -0.0662 -0.2149
  959TIP3    H124368   5.483   5.171   5.949  0.1978 -0.1050 -0.3048
  959TIP3    H224369   5.488   5.051   6.041  1.6805 -0.3573 -0.6883
  960TIP3   OH224370   5.184   5.710  13.535  0.1700  0.0792  0.1987
  960TIP3    H124371   5.176   5.802  13.510  1.0921  0.0860 -0.1048
  960TIP3    H224372   5.136   5.704  13.618 -0.0976  0.7726  0.1047
  961TIP3   OH224373   2.768   1.640  13.478  0.3461  0.3994  0.4379
  961TIP3    H124374   2.730   1.696  13.409  0.0664  1.7032  1.6097
  961TIP3    H224375   2.693   1.595  13.516  0.4690 -0.1081  0.0893
  962TIP3   OH224376   5.388   0.741   3.233  0.9242  0.0990  0.3540
  962TIP3    H124377   5.421   0.651   3.235  1.1625  0.1876  0.3989
  962TIP3    H224378   5.466   0.796   3.228  0.8219  0.3478  1.2659
  963TIP3   OH224379   3.774   5.878  15.222 -0.3508  0.7458  0.2577
  963TIP3    H124380   3.723   5.870  15.142 -0.2088  1.4012  0.1013
  963TIP3    H224381   3.858   5.915  15.195  0.6223 -1.2336  0.3628
  964TIP3   OH224382   6.748   3.548   4.010  0.8951 -0.2916  0.2796
  964TIP3    H124383   6.683   3.515   4.072 -0.0596 -0.6476 -0.8720
  964TIP3    H224384   6.789   3.469   3.974  3.1904 -0.0634  2.1887
  965TIP3   OH224385   2.397   0.599   5.514 -0.2370  0.4777 -1.3642
  965TIP3    H124386   2.484   0.560   5.519 -1.2289 -1.7417 -0.0932
  965TIP3    H224387   2.383   0.639   5.600 -1.0119 -0.4368 -1.0576
  966TIP3   OH224388   1.045   0.276  13.109 -0.5703  0.3932  0.3884
  966TIP3    H124389   1.101   0.210  13.151 -1.8518 -0.8577  0.1945
  966TIP3    H224390   0.958   0.258  13.144 -1.3591  0.4647 -1.4797
  967TIP3   OH224391   5.617   4.628   1.768  0.2856 -0.2122 -0.0476
  967TIP3    H124392   5.653   4.714   1.745 -0.5792  0.2686  0.3467
  967TIP3    H224393   5.549   4.612   1.702  0.1813 -0.4128  0.1065
  968TIP3   OH224394   0.785   5.496   3.295 -0.1726  0.0929  0.1531
  968TIP3    H124395   0.807   5.407   3.322  0.1136  0.1505  0.1187
  968TIP3    H224396   0.739   5.485   3.212 -1.5835 -0.1193  0.9405
  969TIP3   OH224397   3.143   1.025  14.039 -0.0988 -0.4328 -0.3385
  969TIP3    H124398   3.137   0.932  14.015 -0.6768 -0.3556 -0.5178
  969TIP3    H224399   3.143   1.071  13.955 -1.9560 -0.1689 -0.2400
  970TIP3   OH224400   6.684   3.041  16.980 -0.1585  0.4508 -0.6080
  970TIP3    H124401   6.668   3.094  17.058  1.6563 -1.1105  0.9193
  970TIP3    H224402   6.684   2.950  17.012  1.8587 -0.1631 -2.1578
  971TIP3   OH224403   2.466   2.510  15.297 -0.4863 -0.5939  0.6551
  971TIP3    H124404   2.499   2.426  15.329  0.4675 -1.0993 -1.4760
  971TIP3    H224405   2.458   2.498  15.202 -2.9783  0.8504  0.5897
  972TIP3   OH224406   0.149   5.387   1.868  0.1755 -0.0359 -0.5731
  972TIP3    H124407   0.134   5.449   1.939  0.0217 -0.3358 -0.3426
  972TIP3    H224408   0.208   5.433   1.808  0.0631  0.3315 -0.4051
  973TIP3   OH224409   1.056   2.452  12.736 -0.4309 -0.3023  0.0350
  973TIP3    H124410   1.114   2.389  12.693 -0.1385 -0.3739  0.5146
  973TIP3    H224411   0.986   2.398  12.773 -2.0386 -0.0255 -2.3751
  974TIP3   OH224412   2.059   0.385   6.755 -0.1117  0.5012  0.0264
  974TIP3    H124413   1.993   0.419   6.695  0.8320 -0.5671 -1.7053
  974TIP3    H224414   2.109   0.461   6.782  0.5531  0.8266 -1.9789
  975TIP3   OH224415   1.242   1.267  17.162  0.2532  0.8541 -0.1966
  975TIP3    H124416   1.203   1.188  17.125  1.1985  0.2061  0.1706
  975TIP3    H224417   1.325   1.277  17.117  1.6776 -0.2512  2.0435
  976TIP3   OH224418   3.313   5.436  16.659  0.0646  0.2201  0.5702
  976TIP3    H124419   3.258   5.498  16.612 -0.0495  0.1491  0.6114
  976TIP3    H224420   3.252   5.382  16.710  0.2675  1.4708  2.2494
  977TIP3   OH224421   4.377   1.418   2.637  0.5888 -0.4650  0.2812
  977TIP3    H124422   4.429   1.481   2.685 -0.9228 -0.8301  2.5755
  977TIP3    H224423   4.440   1.367   2.587  2.0654  1.1625  0.4042
  978TIP3   OH224424   3.150   1.179   3.951 -0.7577 -0.1509 -0.4019
  978TIP3    H124425   3.138   1.172   3.856  0.5118  0.1592 -0.6023
  978TIP3    H224426   3.240   1.150   3.966 -0.6730  0.5934  0.6113
  979TIP3   OH224427   3.385   5.275  13.816  0.0155 -0.8167  0.1524
  979TIP3    H124428   3.305   5.315  13.851  0.0746 -0.2865 -0.3184
  979TIP3    H224429   3.454   5.339  13.835  0.0472 -0.5079 -0.9515
  980TIP3   OH224430   6.029   0.712   4.811 -0.2308 -0.5014  0.4446
  980TIP3    H124431   6.066   0.689   4.726  1.4733 -1.7873  1.4707
  980TIP3    H224432   6.055   0.803   4.824 -1.7880  0.2075 -1.0087
  981TIP3   OH224433   3.275   0.848   1.774  0.0982 -0.0883 -0.0427
  981TIP3    H124434   3.323   0.908   1.832 -0.7889 -0.4061  1.0337
  981TIP3    H224435   3.251   0.903   1.699 -1.4373  1.1747  1.3059
  982TIP3   OH224436   3.213   6.124  13.067 -0.2916 -0.3605 -0.0455
  982TIP3    H124437   3.177   6.158  13.149 -0.4588 -0.4762 -0.0684
  982TIP3    H224438   3.204   6.196  13.005  0.8053  0.0890  0.2974
  983TIP3   OH224439   1.549   6.115   4.711  0.1267 -0.5891 -0.3200
  983TIP3    H124440   1.623   6.175   4.703  0.5356 -0.9105  0.7942
  983TIP3    H224441   1.579   6.048   4.773 -1.0295 -0.8215  0.0170
  984TIP3   OH224442   2.339   5.454   5.343  0.6617  0.2660 -0.2049
  984TIP3    H124443   2.274   5.425   5.407 -0.0492 -0.7008 -1.3250
  984TIP3    H224444   2.289   5.468   5.263  2.0135 -2.3956 -1.6662
  985TIP3   OH224445   5.644   5.114  16.755  0.4147 -0.3853 -0.2641
  985TIP3    H124446   5.665   5.146  16.667  1.3256  0.6173  0.3100
  985TIP3    H224447   5.610   5.190  16.801  0.2246 -0.8401  0.3532
  986TIP3   OH224448   3.167   5.616   3.094 -0.5197 -0.0460 -0.0669
  986TIP3    H124449   3.230   5.553   3.059 -0.5020 -1.9245  2.9531
  986TIP3    H224450   3.092   5.563   3.120 -1.3814  1.4960  0.7204
  987TIP3   OH224451   2.942   5.217  14.323 -0.1324  0.0712 -0.3274
  987TIP3    H124452   2.936   5.213  14.227 -0.8710 -2.7059 -0.2538
  987TIP3    H224453   2.855   5.244  14.351  0.1815  1.2300 -0.4027
  988TIP3   OH224454   6.152   5.217   0.137  0.5717  0.5482  0.1346
  988TIP3    H124455   6.063   5.228   0.172  0.1001 -0.6493 -0.6214
  988TIP3    H224456   6.204   5.190   0.213  0.3317  1.3431  0.6044
  989TIP3   OH224457   4.848   3.732   3.066 -0.5449 -0.6702 -0.5806
  989TIP3    H124458   4.898   3.692   3.137 -0.9090 -0.6497 -0.3084
  989TIP3    H224459   4.813   3.813   3.104  0.2088 -0.0760 -1.1327
  990TIP3   OH224460   1.510   5.764   4.413  0.2039 -0.4061 -0.2971
  990TIP3    H124461   1.460   5.842   4.439  1.5244 -0.3282  2.4363
  990TIP3    H224462   1.564   5.793   4.340  0.3550  1.1659  0.3975
  991TIP3   OH224463   0.348   4.658   5.972 -0.5376  0.5933  0.1709
  991TIP3    H124464   0.435   4.643   5.933 -1.0630 -1.6895 -0.2321
  991TIP3    H224465   0.363   4.728   6.036  1.4323  0.7784 -0.4022
  992TIP3   OH224466   5.176   5.664  10.456  0.1294  0.1468 -0.4300
  992TIP3    H124467   5.111   5.670  10.525  0.3988  0.5141 -0.2046
  992TIP3    H224468   5.185   5.570  10.439 -2.4069  0.1544 -2.3500
  993TIP3   OH224469   2.180   6.265  13.833 -0.7868  0.1313  0.1380
  993TIP3    H124470   2.093   6.299  13.851 -0.2641  0.7562  1.6144
  993TIP3    H224471   2.238   6.341  13.841  0.0900 -0.5917  0.8277
  994TIP3   OH224472   3.545   2.882  11.472  0.8451 -0.3384  0.2936
  994TIP3    H124473   3.578   2.816  11.411 -0.1573 -0.3488 -0.2546
  994TIP3    H224474   3.590   2.962  11.447 -0.3201 -0.1020 -1.1713
  995TIP3   OH224475   0.527   5.217   3.594 -0.8766  0.2751  0.4239
  995TIP3    H124476   0.537   5.123   3.609 -0.2794  0.3323  0.4030
  995TIP3    H224477   0.435   5.235   3.616 -1.2302 -0.4626 -0.4096
  996TIP3   OH224478   3.863   5.495  15.172 -0.1465 -0.2791 -0.5633
  996TIP3    H124479   3.837   5.496  15.080 -0.8385 -2.6165 -0.4591
  996TIP3    H224480   3.954   5.468  15.171 -0.3366 -0.9462 -0.5619
  997TIP3   OH224481   5.878   6.124  16.880 -0.2165 -0.4202  0.0992
  997TIP3    H124482   5.858   6.031  16.876  0.4253 -0.5312 -1.1032
  997TIP3    H224483   5.801   6.167  16.842 -0.6423 -0.4246  0.9364
  998TIP3   OH224484   5.324   2.746   2.024 -0.3603  0.3795  0.2588
  998TIP3    H124485   5.372   2.826   2.003  0.5672 -0.2070  0.0724
  998TIP3    H224486   5.365   2.679   1.969 -1.2782 -0.1798  0.2432
  999TIP3   OH224487   3.902   3.955   0.912  0.0181 -0.1627  0.4000
  999TIP3    H124488   3.949   4.006   0.977  2.4474 -2.3456  0.5135
  999TIP3    H224489   3.864   3.882   0.962 -2.2924  0.7212  0.0559
 1000TIP3   OH224490   2.545   3.790  16.842  0.4631  0.4153  1.1111
 1000TIP3    H124491   2.592   3.733  16.902  1.0499  0.9216  1.1453
 1000TIP3    H224492   2.472   3.737  16.810  1.5553 -0.7072  0.3706
 1001TIP3   OH224493   4.178   5.369  14.148  0.1711 -0.1610 -0.0277
 1001TIP3    H124494   4.147   5.385  14.059  2.4114  0.3841 -0.7783
 1001TIP3    H224495   4.220   5.451  14.174  1.0400 -0.8552  0.8661
 1002TIP3   OH224496   1.847   2.983   5.882  0.0094 -0.0322 -0.7803
 1002TIP3    H124497   1.792   2.929   5.825  0.0264 -0.2752 -0.5686
 1002TIP3    H224498   1.915   2.923   5.913 -1.3459 -0.5454  1.4000
 1003TIP3   OH224499   0.786   2.266   4.354 -0.5258  0.5771 -0.0781
 1003TIP3    H124500   0.839   2.208   4.299  1.6351  2.5258 -0.1628
 1003TIP3    H224501   0.778   2.347   4.304 -0.9716  1.4032  1.2645
 1004TIP3   OH224502   2.569   6.775  15.371 -0.1666  0.3027 -0.0022
 1004TIP3    H124503   2.489   6.805  15.412  0.5148  1.4933  0.5007
 1004TIP3    H224504   2.639   6.823  15.415  0.6957  0.6523 -1.6504
 1005TIP3   OH224505   1.805   5.453   4.052 -0.9334  0.6112  0.3378
 1005TIP3    H124506   1.723   5.408   4.031 -1.3265  1.2346  0.5119
 1005TIP3    H224507   1.849   5.464   3.967 -0.6915 -0.3489  0.3247
 1006TIP3   OH224508   1.184   0.841  14.331 -0.1334 -0.3902  0.5061
 1006TIP3    H124509   1.186   0.930  14.296  1.1539 -0.2588  0.8662
 1006TIP3    H224510   1.179   0.852  14.426 -0.3750 -0.7017  0.5290
 1007TIP3   OH224511   1.119   5.152   1.425  0.5610 -0.0686  0.1906
 1007TIP3    H124512   1.099   5.245   1.432 -0.4009 -0.3203  0.9587
 1007TIP3    H224513   1.081   5.126   1.340  1.1742  0.3131 -0.2059
 1008TIP3   OH224514   0.229   5.732  14.080 -0.3303 -0.1239  0.3424
 1008TIP3    H124515   0.154   5.791  14.075 -0.8427 -0.6480  1.5045
 1008TIP3    H224516   0.281   5.753  14.002 -0.4281  1.9474  0.7754
 1009TIP3   OH224517   2.290   6.159   5.821  0.1549  0.0757  0.1206
 1009TIP3    H124518   2.375   6.154   5.864 -0.2974  1.3055  1.2241
 1009TIP3    H224519   2.252   6.072   5.832 -0.4047  0.6040  3.3176
 1010TIP3   OH224520   5.831   5.991  10.858 -0.0911  0.6887  0.2484
 1010TIP3    H124521   5.867   6.064  10.808 -0.9656  2.1393  1.6497
 1010TIP3    H224522   5.758   6.029  10.907  0.1099 -0.8678  1.8661
 1011TIP3   OH224523   0.504   5.319  15.567 -0.4405 -1.4234  0.3229
 1011TIP3    H124524   0.505   5.328  15.662  1.5730 -0.2172  0.2337
 1011TIP3    H224525   0.414   5.291  15.547 -1.2920 -0.4518  2.4594
 1012TIP3   OH224526   4.411   6.026  12.557  0.2266  0.4948  0.5166
 1012TIP3    H124527   4.466   5.969  12.503 -0.1460  0.0174  0.6357
 1012TIP3    H224528   4.341   6.055  12.498 -1.3287 -1.6081  1.1891
 1013TIP3   OH224529   3.586   0.435  15.696 -0.3110  0.4386 -0.0766
 1013TIP3    H124530   3.609   0.486  15.773  0.1645  0.6492 -0.3579
 1013TIP3    H224531   3.655   0.454  15.632 -0.3718 -0.2004 -0.3438
 1014TIP3   OH224532   0.494   1.184   5.437 -0.0966  0.2445 -0.0402
 1014TIP3    H124533   0.413   1.229   5.462  0.5573  1.5661 -0.2401
 1014TIP3    H224534   0.552   1.197   5.512 -0.5782 -2.1296  0.8253
 1015TIP3   OH224535   6.634   6.729  12.228  0.3281  0.1742  0.2526
 1015TIP3    H124536   6.675   6.682  12.155  2.7527  0.5198  1.2833
 1015TIP3    H224537   6.562   6.777  12.189  1.0819 -0.2587 -1.7823
 1016TIP3   OH224538   4.828   0.135  11.708 -0.1714 -0.3945  0.1653
 1016TIP3    H124539   4.870   0.111  11.791  1.9980  2.4028 -0.0090
 1016TIP3    H224540   4.869   0.078  11.643 -0.4952 -1.2670  0.7006
 1017TIP3   OH224541   5.552   6.484   3.975  0.1518  0.0743 -0.5889
 1017TIP3    H124542   5.557   6.449   3.886 -0.8452 -1.1133 -0.2114
 1017TIP3    H224543   5.471   6.534   3.978 -0.1533 -0.4257 -0.1907
 1018TIP3   OH224544   2.215   2.220  11.273 -0.4855  0.1586 -0.3640
 1018TIP3    H124545   2.270   2.253  11.344  0.1895 -3.3354  0.9660
 1018TIP3    H224546   2.157   2.157  11.315 -2.2803  0.2788 -2.5007
 1019TIP3   OH224547   4.480   5.678  13.815  0.2535  0.2219  0.2219
 1019TIP3    H124548   4.394   5.711  13.788  0.3253  0.0933 -0.1785
 1019TIP3    H224549   4.467   5.584  13.829  0.2351  0.2752  0.5589
 1020TIP3   OH224550   2.974   6.388   4.679 -0.2128 -0.0662 -0.5650
 1020TIP3    H124551   2.899   6.438   4.647 -0.2193 -0.0992 -0.6020
 1020TIP3    H224552   2.946   6.297   4.673 -1.4760 -0.0080  2.5975
 1021TIP3   OH224553   5.096   1.106  15.346 -0.0876 -0.4289  0.2440
 1021TIP3    H124554   5.052   1.023  15.366  0.1613 -0.5190  0.4218
 1021TIP3    H224555   5.181   1.080  15.311  0.6565 -0.2441  1.8200
 1022TIP3   OH224556   5.343   5.581   6.046 -0.1697 -0.2186  0.0436
 1022TIP3    H124557   5.423   5.558   6.093  0.0715 -1.2292 -0.8331
 1022TIP3    H224558   5.285   5.506   6.057  0.4324 -1.1568 -2.4142
 1023TIP3   OH224559   0.449   1.011  14.887  0.2369 -0.0696  0.5818
 1023TIP3    H124560   0.406   0.927  14.874 -0.2465  0.3508 -0.6731
 1023TIP3    H224561   0.498   1.027  14.806  1.3328  0.2940  1.2887
 1024TIP3   OH224562   3.212   5.309   5.484 -0.3859  0.5533 -0.2250
 1024TIP3    H124563   3.172   5.301   5.397 -0.1744 -0.6437 -0.2391
 1024TIP3    H224564   3.283   5.244   5.482 -0.0144  0.9331  0.6414
 1025TIP3   OH224565   6.701   6.638   5.456  0.5726  0.1080 -0.4446
 1025TIP3    H124566   6.738   6.642   5.368 -2.7120 -0.3571 -2.0188
 1025TIP3    H224567   6.758   6.577   5.503  2.6363  0.6294 -2.0805
 1026TIP3   OH224568   0.820   4.330   4.776  0.1382  0.4393 -0.4606
 1026TIP3    H124569   0.860   4.332   4.689 -2.4103 -2.5195 -1.8788
 1026TIP3    H224570   0.883   4.283   4.831 -0.2541 -2.1773 -2.0816
 1027TIP3   OH224571   5.205   6.093  15.887 -0.0399 -0.4477  0.4862
 1027TIP3    H124572   5.247   6.176  15.867 -1.1875  0.1479  0.4800
 1027TIP3    H224573   5.264   6.051  15.951  1.2005 -0.2325 -0.4792
 1028TIP3   OH224574   6.118   4.964  13.550 -0.9008 -0.1635 -0.7892
 1028TIP3    H124575   6.057   5.006  13.611 -0.2976  1.6345 -1.3652
 1028TIP3    H224576   6.199   4.953  13.601 -1.2623 -1.3187 -0.4306
 1029TIP3   OH224577   4.640   3.156  14.594  0.1850  0.4758  0.6993
 1029TIP3    H124578   4.632   3.251  14.598 -2.1165  0.4732 -1.2603
 1029TIP3    H224579   4.688   3.140  14.513 -0.6519 -0.0212  0.2872
 1030TIP3   OH224580   2.565   1.783   2.237 -0.0823 -0.2030 -0.6065
 1030TIP3    H124581   2.644   1.815   2.195 -0.1140  0.8322  0.0801
 1030TIP3    H224582   2.518   1.863   2.264 -1.3983 -0.7891 -1.0781
 1031TIP3   OH224583   2.106   4.952  13.048  0.2425  0.6152  0.1323
 1031TIP3    H124584   2.049   4.955  13.125  0.1794 -1.6309  0.2401
 1031TIP3    H224585   2.057   4.900  12.984  0.8523  1.3412 -0.9608
 1032TIP3   OH224586   0.177   2.959   6.479  0.9330  0.8509  0.4576
 1032TIP3    H124587   0.092   2.917   6.489  1.4830 -0.3415  0.2748
 1032TIP3    H224588   0.188   3.010   6.559 -1.0983  3.2242 -0.6495
 1033TIP3   OH224589   6.802   3.933  15.808 -0.2352  0.0597 -0.5728
 1033TIP3    H124590   6.829   4.024  15.820 -1.1850  0.4261 -1.0464
 1033TIP3    H224591   6.811   3.918  15.714 -0.8644 -0.0577 -0.6207
 1034TIP3   OH224592   5.400   1.827   0.131  0.3060  0.5704  0.1516
 1034TIP3    H124593   5.337   1.873   0.185  1.5653  1.2333  1.1196
 1034TIP3    H224594   5.413   1.883   0.055 -1.7986 -0.5713 -1.1519
 1035TIP3   OH224595   0.475   3.525  12.590  0.1741 -0.3047 -0.0162
 1035TIP3    H124596   0.445   3.447  12.544 -0.0051 -0.3171  0.1191
 1035TIP3    H224597   0.498   3.587  12.521 -0.3662 -0.2175 -0.1280
 1036TIP3   OH224598   3.480   0.524   2.827  0.4281  0.6133 -0.0399
 1036TIP3    H124599   3.526   0.440   2.831 -2.7443 -1.3666 -1.2782
 1036TIP3    H224600   3.512   0.573   2.903  2.7436 -1.4761  0.4519
 1037TIP3   OH224601   3.927   0.601   4.056 -0.4393  0.4702 -0.1516
 1037TIP3    H124602   3.878   0.562   3.985 -0.0974  0.9283 -0.6553
 1037TIP3    H224603   4.010   0.629   4.016 -0.2081  0.6657  0.4368
 1038TIP3   OH224604   1.531   4.354  14.484  0.1999 -0.3667 -0.5282
 1038TIP3    H124605   1.549   4.392  14.570 -1.4793 -1.1138  0.2068
 1038TIP3    H224606   1.489   4.270  14.503  1.2797 -1.3150 -2.1006
 1039TIP3   OH224607   4.353   1.066   2.148  0.2430 -0.2245  0.1258
 1039TIP3    H124608   4.376   0.974   2.137 -1.9925 -0.9740  1.3279
 1039TIP3    H224609   4.389   1.108   2.069  1.4025 -2.0590 -0.3988
 1040TIP3   OH224610   2.129   0.888   0.599  0.0892  0.1841  0.3402
 1040TIP3    H124611   2.198   0.954   0.610  0.9902 -0.7893  0.6123
 1040TIP3    H224612   2.098   0.872   0.687 -0.2070  0.3096  0.2608
 1041TIP3   OH224613   5.749   4.894  15.092 -0.0335  0.2394  0.5933
 1041TIP3    H124614   5.656   4.912  15.076 -0.7452 -3.5843 -0.5918
 1041TIP3    H224615   5.794   4.927  15.015 -0.7478  0.0963  0.1030
 1042TIP3   OH224616   5.531   5.588  16.756  0.2911 -0.4743 -0.1227
 1042TIP3    H124617   5.579   5.586  16.673 -1.6171  0.2038 -1.3339
 1042TIP3    H224618   5.568   5.662  16.804 -0.0966  0.5930 -1.4104
 1043TIP3   OH224619   4.146   0.746   6.604  0.1902  0.0362 -0.5908
 1043TIP3    H124620   4.120   0.673   6.660 -0.0250  0.3895 -0.2159
 1043TIP3    H224621   4.106   0.823   6.645  0.4405  0.3699 -0.9566
 1044TIP3   OH224622   6.782   2.748  13.329  0.3509 -0.2219 -0.4315
 1044TIP3    H124623   6.844   2.820  13.314 -1.3532  1.6038  0.7408
 1044TIP3    H224624   6.709   2.767  13.270  0.2807 -1.5696 -0.8069
 1045TIP3   OH224625   2.964   5.628  13.696  0.8621 -0.2027 -0.5996
 1045TIP3    H124626   2.973   5.712  13.650  1.2215  0.7230  1.0698
 1045TIP3    H224627   2.870   5.622  13.716 -0.0121 -2.3517 -4.4420
 1046TIP3   OH224628   4.019   6.788   4.159  0.0047 -0.0259 -0.0884
 1046TIP3    H124629   4.068   6.754   4.233 -1.4452 -2.2893 -0.0440
 1046TIP3    H224630   3.940   6.827   4.198 -0.7167 -1.1397 -0.3798
 1047TIP3   OH224631   1.872   3.672   2.990 -0.0508  0.5290 -0.1320
 1047TIP3    H124632   1.878   3.748   2.933  0.9019  0.9780  0.5389
 1047TIP3    H224633   1.830   3.605   2.936 -1.7516  1.7708 -0.4524
 1048TIP3   OH224634   0.788   2.774  15.401  0.2498  0.2098  0.2646
 1048TIP3    H124635   0.786   2.714  15.326 -1.5799  1.2829 -0.6387
 1048TIP3    H224636   0.821   2.856  15.364  0.2286  0.4909  0.8631
 1049TIP3   OH224637   2.404   6.158  14.318  0.2276 -0.0844 -1.0260
 1049TIP3    H124638   2.378   6.240  14.360 -1.4566 -0.9812 -0.2113
 1049TIP3    H224639   2.419   6.181  14.227  1.7623  1.4894 -0.4291
 1050TIP3   OH224640   3.689   5.630   4.170 -0.2569 -0.1327  0.0994
 1050TIP3    H124641   3.753   5.584   4.114 -0.2816 -1.2510  0.9719
 1050TIP3    H224642   3.674   5.571   4.243 -0.4877  1.1696  1.1362
 1051TIP3   OH224643   1.800   2.533  14.519 -0.3941 -0.1366 -0.0936
 1051TIP3    H124644   1.882   2.487  14.538 -2.1574 -3.3125  0.3465
 1051TIP3    H224645   1.818   2.579  14.436  1.9973 -0.1343  0.3389
 1052TIP3   OH224646   1.136   2.164  15.360  0.1524 -0.4933  0.1760
 1052TIP3    H124647   1.151   2.096  15.426 -0.1784 -0.3060  0.4522
 1052TIP3    H224648   1.222   2.204  15.346  0.1445 -0.2377  0.8270
 1053TIP3   OH224649   2.234   1.556  12.416  0.1382 -0.1990 -0.0262
 1053TIP3    H124650   2.148   1.517  12.402  0.7636 -1.4097 -0.6946
 1053TIP3    H224651   2.296   1.490  12.384  1.4517 -0.3619  2.5631
 1054TIP3   OH224652   6.594   1.533  13.929 -0.0306 -0.1947  0.7532
 1054TIP3    H124653   6.592   1.512  13.836 -0.2007 -1.5325  1.0422
 1054TIP3    H224654   6.509   1.504  13.962 -0.6387  1.7808  1.0420
 1055TIP3   OH224655   5.945   4.607  12.380  0.1540 -0.1218 -0.0662
 1055TIP3    H124656   5.963   4.615  12.286 -2.4260 -0.4717 -0.6580
 1055TIP3    H224657   6.024   4.641  12.422  1.3228  0.1971 -2.3478
 1056TIP3   OH224658   4.619   3.702  16.288  0.5865  0.7322 -0.3453
 1056TIP3    H124659   4.544   3.758  16.271 -0.3185 -0.6523 -1.1267
 1056TIP3    H224660   4.630   3.705  16.383 -2.7829 -1.7598  0.3148
 1057TIP3   OH224661   5.322   5.293   0.277  0.2551 -0.1039  0.2551
 1057TIP3    H124662   5.341   5.371   0.225 -1.0024  0.3515  0.4428
 1057TIP3    H224663   5.407   5.265   0.311  0.6532  1.5293  0.6663
 1058TIP3   OH224664   4.702   2.156  17.268 -0.3520  0.6355 -0.0109
 1058TIP3    H124665   4.722   2.164  17.174  0.3372  0.0417  0.0737
 1058TIP3    H224666   4.607   2.168  17.273 -0.3410  1.1443 -0.7250
 1059TIP3   OH224667   5.494   6.442  15.796  0.1673 -1.4031  0.7276
 1059TIP3    H124668   5.459   6.402  15.716  0.7085 -2.2795  0.9145
 1059TIP3    H224669   5.554   6.377  15.831  2.1966  0.1170  0.2885
 1060TIP3   OH224670   4.994   0.722   2.129 -0.3336  0.1465  0.0583
 1060TIP3    H124671   4.901   0.701   2.119 -0.2499  0.7553 -3.2049
 1060TIP3    H224672   5.040   0.647   2.091  0.4840  0.3334  0.6412
 1061TIP3   OH224673   4.285   0.359  12.126  0.2112  0.1534  0.2861
 1061TIP3    H124674   4.328   0.274  12.128  1.0443  0.4301 -2.2696
 1061TIP3    H224675   4.193   0.339  12.113  0.4984 -0.3760 -1.0524
 1062TIP3   OH224676   1.743   2.656   1.138  0.0263  0.0367 -0.4583
 1062TIP3    H124677   1.828   2.617   1.158 -1.2582 -2.2793  0.9323
 1062TIP3    H224678   1.686   2.582   1.118 -1.7328  1.4952 -1.1502
 1063TIP3   OH224679   5.331   4.382  16.214 -0.3185 -0.1275  0.9020
 1063TIP3    H124680   5.237   4.362  16.207 -0.4461  0.7792 -0.1045
 1063TIP3    H224681   5.334   4.474  16.240  0.3022  0.0364  0.2624
 1064TIP3   OH224682   3.185   3.923  15.022 -0.0292  0.0513 -0.1636
 1064TIP3    H124683   3.148   3.935  14.934  1.3808  0.3933 -0.7447
 1064TIP3    H224684   3.223   4.008  15.043  0.1228 -0.1891  0.5550
 1065TIP3   OH224685   2.563   2.377   0.286 -0.3701  0.1132  0.2367
 1065TIP3    H124686   2.531   2.359   0.375  0.6169  0.5796  0.7015
 1065TIP3    H224687   2.597   2.292   0.256 -2.4102 -0.5026 -0.4477
 1066TIP3   OH224688   6.213   4.251   1.541 -0.3198  0.2137 -0.3176
 1066TIP3    H124689   6.191   4.318   1.605  0.0582 -0.2380  0.2895
 1066TIP3    H224690   6.146   4.259   1.473 -1.9126 -0.6520  1.1110
 1067TIP3   OH224691   0.111   3.739  13.611  0.2079 -0.0946 -0.9349
 1067TIP3    H124692   0.172   3.669  13.588  0.7155  0.8242 -2.5784
 1067TIP3    H224693   0.043   3.734  13.544 -1.3889 -0.8941  0.6861
 1068TIP3   OH224694   4.543   3.377   5.375  0.5797  0.0713 -0.3502
 1068TIP3    H124695   4.527   3.369   5.469 -0.6112  1.0068 -0.4575
 1068TIP3    H224696   4.622   3.432   5.370 -1.5386  3.4800  0.1355
 1069TIP3   OH224697   0.114   5.580  14.826 -0.2291 -0.1016  0.4916
 1069TIP3    H124698   0.090   5.672  14.812 -0.3331 -0.0016  1.2517
 1069TIP3    H224699   0.209   5.581  14.831 -0.1503 -0.2241 -0.6926
 1070TIP3   OH224700   4.333   1.560  12.013 -0.2941  0.6211 -0.0333
 1070TIP3    H124701   4.334   1.604  11.928 -0.0533  0.0360 -0.3377
 1070TIP3    H224702   4.389   1.484  12.002 -3.1394 -1.5839 -0.5151
 1071TIP3   OH224703   3.979   2.706  12.088 -0.0316  0.5444  0.0668
 1071TIP3    H124704   3.884   2.709  12.083 -0.1592 -1.6894 -0.1647
 1071TIP3    H224705   3.997   2.661  12.171  0.8925  2.3019  0.8660
 1072TIP3   OH224706   3.760   1.689  16.110 -0.7467  0.4589 -0.2531
 1072TIP3    H124707   3.741   1.610  16.059 -0.2167 -0.4756  0.9422
 1072TIP3    H224708   3.855   1.690  16.119 -0.8428  0.4110  0.9807
 1073TIP3   OH224709   1.153   2.838   3.416 -0.3907  0.6570 -0.4839
 1073TIP3    H124710   1.063   2.830   3.384 -1.1310  0.6200  1.4463
 1073TIP3    H224711   1.187   2.748   3.412 -1.4849  0.0909  1.4887
 1074TIP3   OH224712   0.967   2.338   2.374 -0.3947  0.4021  0.1329
 1074TIP3    H124713   0.889   2.283   2.384 -0.5366  0.3990 -0.8911
 1074TIP3    H224714   1.040   2.277   2.372 -0.5320  0.2471 -0.7554
 1075TIP3   OH224715   6.625   3.419  11.670  0.0390  0.2189 -0.0441
 1075TIP3    H124716   6.706   3.383  11.705 -0.8127 -0.6159  1.1366
 1075TIP3    H224717   6.576   3.447  11.747 -1.2417 -0.2824 -0.6446
 1076TIP3   OH224718   5.444   5.871  15.048 -0.8021 -0.0408 -0.2791
 1076TIP3    H124719   5.454   5.809  15.120  1.7373  1.3922  0.7170
 1076TIP3    H224720   5.364   5.842  15.003 -1.6913 -1.8527  2.2067
 1077TIP3   OH224721   3.373   4.387  11.145  0.6747 -0.3291  0.0183
 1077TIP3    H124722   3.319   4.367  11.068  0.3785 -1.6016  0.5268
 1077TIP3    H224723   3.457   4.347  11.125  1.7969  2.4166 -1.1628
 1078TIP3   OH224724   1.805   3.305   2.893  0.0780 -0.7440  0.0879
 1078TIP3    H124725   1.777   3.226   2.846 -0.2346  0.0859 -1.1762
 1078TIP3    H224726   1.894   3.285   2.922 -0.5410 -2.1275  1.1426
 1079TIP3   OH224727   6.747   2.215  16.888 -0.0099 -0.3726  0.7210
 1079TIP3    H124728   6.679   2.266  16.844  0.5921 -1.1811 -1.2504
 1079TIP3    H224729   6.727   2.124  16.866 -0.5327 -0.9952  3.4216
 1080TIP3   OH224730   6.457   6.448  12.535  0.1297 -0.1886  0.5392
 1080TIP3    H124731   6.503   6.365  12.524  1.4183  0.6248 -0.4463
 1080TIP3    H224732   6.522   6.507  12.572 -0.1821  0.8879 -0.5482
 1081TIP3   OH224733   2.867   3.717   2.611 -0.6286 -0.0295  0.1545
 1081TIP3    H124734   2.912   3.632   2.612 -0.2918  0.1533  0.5398
 1081TIP3    H224735   2.933   3.780   2.642 -0.1619  0.7319 -2.1724
 1082TIP3   OH224736   0.218   1.781  10.827  0.0946  0.6357 -0.3949
 1082TIP3    H124737   0.136   1.744  10.794  0.0881  0.2037  0.0878
 1082TIP3    H224738   0.273   1.705  10.844  0.0123  0.8335  0.8059
 1083TIP3   OH224739   3.593   2.043   3.886 -0.4398  0.0313 -0.1813
 1083TIP3    H124740   3.622   2.134   3.880  1.6635 -0.5762  0.0390
 1083TIP3    H224741   3.586   2.014   3.795  3.0370 -0.7424 -0.3362
 1084TIP3   OH224742   0.166   0.559  15.106  0.1245 -0.5647 -0.4450
 1084TIP3    H124743   0.253   0.565  15.067  0.3292 -1.3307 -0.1340
 1084TIP3    H224744   0.110   0.528  15.035 -0.0466  0.5970 -0.8349
 1085TIP3   OH224745   2.826   3.087   4.128  0.1260  0.2252  0.4886
 1085TIP3    H124746   2.896   3.149   4.151  0.6619  0.0063 -0.5156
 1085TIP3    H224747   2.753   3.143   4.103  0.1077  0.4557  1.0452
 1086TIP3   OH224748   1.132   2.365   2.921 -0.8020 -0.5117 -0.4476
 1086TIP3    H124749   1.060   2.316   2.961 -0.2374 -0.1011  1.0962
 1086TIP3    H224750   1.089   2.438   2.876 -1.3017  0.2669  1.2410
 1087TIP3   OH224751   2.015   1.145   3.277 -0.2245  0.5609 -0.1404
 1087TIP3    H124752   1.970   1.096   3.346  1.5307  1.3672  1.6759
 1087TIP3    H224753   2.102   1.106   3.274 -0.2467  0.5961 -1.8945
 1088TIP3   OH224754   1.305   2.066  14.573  0.2131 -0.3248 -0.6251
 1088TIP3    H124755   1.307   1.999  14.504 -0.3663  0.4212 -1.3865
 1088TIP3    H224756   1.396   2.091  14.585  0.2601  0.0098 -1.6011
 1089TIP3   OH224757   2.511   1.196  14.150  0.2918  0.3483  0.3585
 1089TIP3    H124758   2.529   1.290  14.145  2.6974 -0.1151 -2.3195
 1089TIP3    H224759   2.526   1.164  14.061 -0.6622 -2.5535  1.1457
 1090TIP3   OH224760   2.492   2.181  13.162  0.4068 -0.9120 -0.1767
 1090TIP3    H124761   2.572   2.201  13.212  0.8418  0.4556 -1.3644
 1090TIP3    H224762   2.522   2.174  13.071 -0.7022 -1.2601 -0.5235
 1091TIP3   OH224763   3.371   6.060   4.888 -0.2879 -0.0071 -0.1219
 1091TIP3    H124764   3.312   6.125   4.850 -0.9351  0.0569  0.9622
 1091TIP3    H224765   3.453   6.107   4.900 -0.8006  0.6718  0.8117
 1092TIP3   OH224766   6.136   0.380  10.365 -0.1894 -0.4921  0.1207
 1092TIP3    H124767   6.075   0.321  10.409 -0.3564 -1.5732 -1.4451
 1092TIP3    H224768   6.180   0.427  10.435 -1.1196 -1.4224  1.3733
 1093TIP3   OH224769   0.992   0.389   1.786  0.7125 -0.4835  0.0603
 1093TIP3    H124770   0.908   0.435   1.795  0.9665 -0.1726  0.9303
 1093TIP3    H224771   1.054   0.443   1.835  1.7401  0.0822 -1.7679
 1094TIP3   OH224772   1.746   3.283  11.578 -0.2223  0.0973  0.3184
 1094TIP3    H124773   1.665   3.303  11.531  0.8700  0.1170 -1.6302
 1094TIP3    H224774   1.786   3.212  11.529  0.3215 -0.8215  2.0306
 1095TIP3   OH224775   1.560   0.775   4.243  0.2511  0.5340 -0.0961
 1095TIP3    H124776   1.569   0.845   4.308  1.3015  0.0887  0.2441
 1095TIP3    H224777   1.590   0.815   4.161  1.8219  0.2102  0.2904
 1096TIP3   OH224778   5.064   2.166  12.460  0.5304  0.0441 -0.0550
 1096TIP3    H124779   5.015   2.237  12.418 -0.2586  0.5865  1.6659
 1096TIP3    H224780   5.100   2.115  12.388 -2.3686 -0.2376 -1.4602
 1097TIP3   OH224781   4.717   2.993   0.815  0.2740 -0.3932 -0.1423
 1097TIP3    H124782   4.689   3.015   0.904  2.1016  0.8121  0.1770
 1097TIP3    H224783   4.642   2.945   0.778 -0.5182 -0.9775  2.0332
 1098TIP3   OH224784   4.712   3.946   5.783 -0.4482  0.3600 -0.0790
 1098TIP3    H124785   4.770   3.997   5.727 -0.6428 -1.4192 -2.0662
 1098TIP3    H224786   4.626   3.987   5.772 -0.2868  0.6412 -0.2980
 1099TIP3   OH224787   4.998   2.928   0.898  0.1728  0.0939  0.1051
 1099TIP3    H124788   4.920   2.960   0.853  0.4830  0.0573 -0.4575
 1099TIP3    H224789   5.032   3.004   0.945 -0.8823 -0.1625  1.3580
 1100TIP3   OH224790   1.728   3.843   2.618 -0.3473  0.0271 -0.5374
 1100TIP3    H124791   1.691   3.925   2.652 -0.1967  0.0303 -0.3763
 1100TIP3    H224792   1.689   3.833   2.532 -0.0838  0.4620 -0.7134
 1101TIP3   OH224793   0.373   1.881  14.327 -0.1278  0.1636  0.1541
 1101TIP3    H124794   0.353   1.891  14.420 -0.1985  1.2362  0.0291
 1101TIP3    H224795   0.372   1.786  14.313  1.3499 -0.1076  1.5728
 1102TIP3   OH224796   2.402   2.806  16.041  0.0523 -0.2983  0.0566
 1102TIP3    H124797   2.320   2.845  16.071 -0.2080 -0.0201 -0.9934
 1102TIP3    H224798   2.429   2.859  15.967  0.9825 -0.6342  0.1323
 1103TIP3   OH224799   6.310   4.862   0.319 -0.1378 -0.0279  0.8916
 1103TIP3    H124800   6.286   4.921   0.390 -0.9312  0.2331  0.4150
 1103TIP3    H224801   6.398   4.831   0.342  0.1397  1.0496  1.3379
 1104TIP3   OH224802   0.904   1.194   1.116 -0.0200  0.2463 -0.0212
 1104TIP3    H124803   0.857   1.143   1.050  0.4781 -0.5101  0.2039
 1104TIP3    H224804   0.909   1.282   1.079  0.5958 -0.2521 -1.1816
 1105TIP3   OH224805   0.060   4.764  14.757  0.1083  0.8586 -0.2128
 1105TIP3    H124806   0.003   4.688  14.745 -0.4797  1.2834 -0.1692
 1105TIP3    H224807   0.003   4.831  14.797  0.8183  1.0450  0.5280
 1106TIP3   OH224808   5.053   3.051  14.421 -0.4931  0.4391 -1.0061
 1106TIP3    H124809   5.019   3.118  14.481  0.4536 -0.0574  0.1070
 1106TIP3    H224810   4.986   2.982  14.421  0.0973 -0.1583  0.5289
 1107TIP3   OH224811   0.428   0.345   2.380 -0.0011  0.1552  0.1959
 1107TIP3    H124812   0.425   0.273   2.317  2.2620  0.4857 -0.3687
 1107TIP3    H224813   0.462   0.305   2.460  1.2064  0.5503 -0.1012
 1108TIP3   OH224814   6.452   6.701  11.941 -0.0839  0.2929 -0.7918
 1108TIP3    H124815   6.361   6.728  11.939 -0.1580  0.0591 -0.6296
 1108TIP3    H224816   6.449   6.609  11.967  0.1603  0.1154 -1.3683
 1109TIP3   OH224817   2.648   4.316  11.928 -0.0561 -0.3151  0.0880
 1109TIP3    H124818   2.668   4.248  11.863  0.9776  1.2773 -1.3397
 1109TIP3    H224819   2.680   4.280  12.011  0.4726 -1.5648 -0.6259
 1110TIP3   OH224820   5.605   5.313   5.158  0.2075  0.3681 -0.0847
 1110TIP3    H124821   5.512   5.297   5.141  0.3233 -1.0716  0.4381
 1110TIP3    H224822   5.628   5.386   5.101 -1.3905  1.1782  0.2536
 1111TIP3   OH224823   5.896   5.808  13.406 -0.4679  0.0288  0.9414
 1111TIP3    H124824   5.893   5.827  13.312 -0.0387  1.4476  1.1955
 1111TIP3    H224825   5.988   5.793  13.425 -0.5726 -0.4111  1.1195
 1112TIP3   OH224826   3.412   0.666  12.663 -0.4963 -0.1155  0.1663
 1112TIP3    H124827   3.384   0.575  12.669 -0.3389 -0.3008 -1.4008
 1112TIP3    H224828   3.505   0.661  12.642 -0.6970  0.3718 -0.8833
 1113TIP3   OH224829   1.371   1.998  11.634  0.0420 -0.0242  0.0300
 1113TIP3    H124830   1.276   2.006  11.621  0.2624 -1.0848 -2.6685
 1113TIP3    H224831   1.408   1.994  11.546  2.7392  1.3484  0.9765
 1114TIP3   OH224832   1.607   3.550  14.086 -0.3040 -0.1853 -0.4560
 1114TIP3    H124833   1.568   3.562  14.173  1.0521  0.5648  0.0804
 1114TIP3    H224834   1.567   3.619  14.033 -1.1872 -0.6870 -0.4717
 1115TIP3   OH224835   4.780   2.226   0.954 -0.1299 -0.1109  0.4286
 1115TIP3    H124836   4.861   2.238   1.003 -0.6979 -0.1800  1.4102
 1115TIP3    H224837   4.732   2.308   0.965 -1.2757 -0.9225  1.9521
 1116TIP3   OH224838   2.379   5.449  13.058  0.0995  0.7348  0.1625
 1116TIP3    H124839   2.457   5.413  13.015  0.4877  2.1936 -0.4135
 1116TIP3    H224840   2.413   5.493  13.136 -0.1149  1.5247 -0.1830
 1117TIP3   OH224841   0.934   1.273  14.378 -0.2094  0.7512  0.4977
 1117TIP3    H124842   0.964   1.356  14.414 -0.8947  0.6881  1.2642
 1117TIP3    H224843   1.005   1.211  14.398  0.3733  1.1656 -0.2208
 1118TIP3   OH224844   1.015   2.099   5.633 -0.2311  0.0068  0.3800
 1118TIP3    H124845   0.939   2.156   5.622  0.3775  0.4060 -3.0166
 1118TIP3    H224846   1.060   2.133   5.710 -2.6331  0.7220  1.5591
 1119TIP3   OH224847   2.546   5.085  13.662  0.1987 -0.4905  0.3044
 1119TIP3    H124848   2.539   5.142  13.739  1.0366 -1.2058  0.9204
 1119TIP3    H224849   2.542   5.146  13.587  1.3147  0.4210  0.9460
 1120TIP3   OH224850   5.078   6.512  17.067 -0.4839  0.5397 -0.2395
 1120TIP3    H124851   5.170   6.520  17.091 -0.4437 -3.3756  1.7513
 1120TIP3    H224852   5.031   6.561  17.134  0.0813 -0.0420  0.5947
 1121TIP3   OH224853   4.684   5.595  17.305  0.2062 -0.2194 -0.0876
 1121TIP3    H124854   4.620   5.529  17.278 -0.2678  0.9195 -1.9015
 1121TIP3    H224855   4.714   5.565  17.391 -1.8041 -1.4741  0.2448
 1122TIP3   OH224856   1.616   5.827   0.645  0.1658 -0.6063  0.1287
 1122TIP3    H124857   1.590   5.756   0.586  0.7975  0.9830 -2.1861
 1122TIP3    H224858   1.551   5.896   0.630  0.0918 -0.3088  1.6582
 1123TIP3   OH224859   0.169   0.341   2.021  0.1817 -0.0911  0.4281
 1123TIP3    H124860   0.130   0.335   1.934  1.4640  0.4827 -0.2132
 1123TIP3    H224861   0.210   0.256   2.035  0.0460 -0.1558  0.4315
 1124TIP3   OH224862   5.148   5.251   5.832 -0.1225  0.5660  0.0838
 1124TIP3    H124863   5.171   5.163   5.801 -0.3324  0.9005 -1.0961
 1124TIP3    H224864   5.208   5.309   5.784  0.9585  0.9954  1.8706
 1125TIP3   OH224865   4.460   2.530  13.687  0.3865  0.3756  0.4066
 1125TIP3    H124866   4.415   2.603  13.644 -2.3608  0.2978  2.8203
 1125TIP3    H224867   4.547   2.564  13.707 -0.4906  2.7049  0.5869
 1126TIP3   OH224868   6.309   5.975  13.483 -0.1686  0.3315  0.2356
 1126TIP3    H124869   6.265   6.014  13.559 -0.0464  0.5160  0.2124
 1126TIP3    H224870   6.380   5.923  13.521  0.5390  1.2519  0.2035
 1127TIP3   OH224871   6.129   5.249  10.656 -0.0113  0.4939  0.7122
 1127TIP3    H124872   6.155   5.217  10.569 -0.8847 -1.5177  1.1243
 1127TIP3    H224873   6.205   5.233  10.711 -0.1248 -0.0935  0.7115
 1128TIP3   OH224874   2.215   2.034  14.848 -0.7188 -0.5067 -0.5609
 1128TIP3    H124875   2.142   2.008  14.904 -0.1796 -0.7186  0.0647
 1128TIP3    H224876   2.279   2.073  14.909  0.0164 -1.0352 -0.9790
 1129TIP3   OH224877   3.486   5.470   1.324  0.0831  0.3144 -0.1677
 1129TIP3    H124878   3.515   5.378   1.323 -0.4600  0.1186  0.9471
 1129TIP3    H224879   3.498   5.499   1.234  1.9670 -0.3048 -0.1572
 1130TIP3   OH224880   2.499   0.577  17.033 -0.3904  0.2150  0.5110
 1130TIP3    H124881   2.436   0.646  17.053 -0.0613  1.2739 -1.9053
 1130TIP3    H224882   2.448   0.496  17.041 -1.2667  0.8379  1.5052
 1131TIP3   OH224883   3.728   3.942   1.397 -0.2646 -0.6741  0.4147
 1131TIP3    H124884   3.642   3.952   1.438 -0.4996 -0.9726  0.0147
 1131TIP3    H224885   3.708   3.924   1.305  0.2298 -0.6499  0.3003
 1132TIP3   OH224886   1.171   4.985   0.550 -0.1733 -0.1295  0.5883
 1132TIP3    H124887   1.100   4.924   0.572 -2.2430  2.1354  0.5177
 1132TIP3    H224888   1.127   5.059   0.508  2.5150  0.3814 -1.5826
 1133TIP3   OH224889   0.261   0.897  12.902  0.2913  0.3792  0.4848
 1133TIP3    H124890   0.188   0.870  12.959  0.9669 -0.2524  1.0713
 1133TIP3    H224891   0.340   0.877  12.952  0.8740  2.5408  0.5268
 1134TIP3   OH224892   5.722   1.483  16.262 -0.4188  1.1199  0.7184
 1134TIP3    H124893   5.736   1.572  16.230  0.9357  0.4105 -0.7816
 1134TIP3    H224894   5.632   1.462  16.237 -0.3022  1.6037 -0.1496
 1135TIP3   OH224895   1.621   4.985  14.307 -0.5703 -0.0167  0.3091
 1135TIP3    H124896   1.620   5.040  14.229 -3.7975  0.3448  0.4740
 1135TIP3    H224897   1.607   5.045  14.380 -0.0478 -0.6366  0.9463
 1136TIP3   OH224898   0.711   6.355  15.923 -0.4350 -0.1050 -0.5238
 1136TIP3    H124899   0.725   6.415  15.849  0.4219 -0.1014 -0.3698
 1136TIP3    H224900   0.719   6.268  15.885  3.2835 -0.1623  0.0553
 1137TIP3   OH224901   4.402   1.684  13.950 -0.3294 -0.1696  0.6810
 1137TIP3    H124902   4.492   1.715  13.966  0.2465 -2.5566  2.5758
 1137TIP3    H224903   4.348   1.735  14.010 -0.2632  1.1177 -0.3065
 1138TIP3   OH224904   5.974   5.121  15.823 -0.0368  0.3692 -0.8166
 1138TIP3    H124905   5.958   5.063  15.748  0.6317  0.1362 -0.7844
 1138TIP3    H224906   5.953   5.068  15.900 -1.7743  0.9441 -0.8476
 1139TIP3   OH224907   1.870   2.390  13.215 -0.1849  0.3049 -0.2377
 1139TIP3    H124908   1.886   2.484  13.203  0.9387  0.1557  0.0069
 1139TIP3    H224909   1.941   2.347  13.168 -1.1728 -0.4542 -1.0650
 1140TIP3   OH224910   1.722   0.301  15.734  0.0917 -0.1376  0.3421
 1140TIP3    H124911   1.642   0.251  15.750  0.2668 -0.4988  0.1077
 1140TIP3    H224912   1.783   0.270  15.801  0.5025 -0.9304 -0.3632
 1141TIP3   OH224913   4.170   0.088   3.034  0.2556  0.4940  0.2260
 1141TIP3    H124914   4.178  -0.004   3.011  0.3419  0.2027  1.3494
 1141TIP3    H224915   4.196   0.136   2.955  0.3264 -0.4361 -0.3218
 1142TIP3   OH224916   2.250   6.814  11.636  0.4664  0.2521  0.1018
 1142TIP3    H124917   2.208   6.893  11.600 -0.8291 -0.3332  0.2585
 1142TIP3    H224918   2.212   6.742  11.585 -2.6968 -0.7976  3.5067
 1143TIP3   OH224919   0.917   4.907   2.266 -0.0660  0.4665  0.1252
 1143TIP3    H124920   0.913   4.943   2.355 -0.9179  1.5108 -0.3240
 1143TIP3    H224921   0.859   4.962   2.215  0.7969  0.1850 -1.2001
 1144TIP3   OH224922   2.805   1.535  10.885 -0.6654  0.2323 -0.3223
 1144TIP3    H124923   2.866   1.608  10.873  2.1134 -1.7088  0.7371
 1144TIP3    H224924   2.794   1.498  10.797 -0.3743  0.6748 -0.5498
 1145TIP3   OH224925   5.931   3.817   6.109 -0.1130  0.6012 -0.2373
 1145TIP3    H124926   6.004   3.839   6.051 -0.2180  0.7087 -0.3281
 1145TIP3    H224927   5.972   3.796   6.193 -0.0905  2.4101  0.2463
 1146TIP3   OH224928   1.514   3.303  15.035  0.4500  0.5069 -0.3513
 1146TIP3    H124929   1.568   3.245  14.981  0.5873 -0.0229  0.3472
 1146TIP3    H224930   1.427   3.297  14.996  0.6106  0.3693 -0.7005
 1147TIP3   OH224931   0.125   3.559   5.279 -0.8871  0.3877 -0.2043
 1147TIP3    H124932   0.052   3.498   5.273 -0.4205 -0.1437 -0.5440
 1147TIP3    H224933   0.111   3.621   5.207 -1.0067  0.2952 -0.2604
 1148TIP3   OH224934   2.719   4.984   1.743  0.1496 -0.2823 -0.4616
 1148TIP3    H124935   2.694   5.027   1.661  0.8307 -0.2937 -0.6852
 1148TIP3    H224936   2.647   5.002   1.802  0.2184  0.8350 -0.6789
 1149TIP3   OH224937   1.307   0.591  14.370 -0.0080  0.1262  0.0046
 1149TIP3    H124938   1.266   0.678  14.367  0.9936  0.7061  1.5348
 1149TIP3    H224939   1.361   0.594  14.449  1.7036 -1.1577 -1.0681
 1150TIP3   OH224940   5.364   4.772  14.610 -0.2168  0.6389  0.1201
 1150TIP3    H124941   5.287   4.718  14.591  0.4261 -0.3672  0.3097
 1150TIP3    H224942   5.357   4.792  14.703  0.1035 -0.0352  0.2937
 1151TIP3   OH224943   3.463   4.740   1.283  0.2320  0.2163 -0.4283
 1151TIP3    H124944   3.465   4.835   1.296  0.8268  0.4364 -1.9427
 1151TIP3    H224945   3.517   4.706   1.354  1.1421  1.1353 -0.6397
 1152TIP3   OH224946   2.969   5.616   1.508 -0.0937 -0.3006  0.8925
 1152TIP3    H124947   2.883   5.596   1.470 -0.4849  1.6401  0.6294
 1152TIP3    H224948   3.025   5.544   1.480 -1.1857 -0.6458 -0.5462
 1153TIP3   OH224949   1.256   3.801  15.881  0.2366 -0.6816 -0.4003
 1153TIP3    H124950   1.275   3.727  15.939 -0.3190 -0.4171  0.1274
 1153TIP3    H224951   1.166   3.826  15.902 -0.0125 -0.6397 -1.4470
 1154TIP3   OH224952   1.100   6.107  13.257 -0.1249 -0.1526 -0.3222
 1154TIP3    H124953   1.118   6.032  13.315 -0.8736 -0.8710 -1.0071
 1154TIP3    H224954   1.182   6.119  13.208  0.2444 -0.0459  0.3051
 1155TIP3   OH224955   0.703   1.425   3.619  0.3069  0.1593  0.1036
 1155TIP3    H124956   0.610   1.428   3.599  0.0469 -0.5396  1.1544
 1155TIP3    H224957   0.707   1.423   3.715  1.3651 -0.8011  0.0578
 1156TIP3   OH224958   1.002   5.775   5.364 -0.2313 -0.0147  0.5012
 1156TIP3    H124959   1.047   5.731   5.292  0.0699  0.7684  0.2084
 1156TIP3    H224960   0.967   5.855   5.325  0.1471  0.5386  1.2870
 1157TIP3   OH224961   3.101   5.376   4.557  0.1106  0.6130 -0.3292
 1157TIP3    H124962   3.159   5.397   4.483  0.9761  0.1076  0.1932
 1157TIP3    H224963   3.095   5.457   4.607  0.0371  0.7775 -0.6036
 1158TIP3   OH224964   0.824   2.469   0.466  0.2483 -0.1921  0.2412
 1158TIP3    H124965   0.817   2.433   0.378  0.9587  2.7915 -1.1408
 1158TIP3    H224966   0.894   2.419   0.507  1.9154  0.2483 -1.9393
 1159TIP3   OH224967   0.403   2.353  13.208 -0.4567 -0.2920 -0.1786
 1159TIP3    H124968   0.476   2.415  13.212 -1.7298  1.4410 -1.7725
 1159TIP3    H224969   0.331   2.404  13.171 -1.3428 -2.9688 -2.4827
 1160TIP3   OH224970   4.744   0.891  16.241 -0.1804 -0.1143  0.1038
 1160TIP3    H124971   4.776   0.979  16.221 -0.1257 -0.1407  0.0730
 1160TIP3    H224972   4.693   0.901  16.321  0.5622 -0.2107  0.6065
 1161TIP3   OH224973   4.364   1.968   3.707  0.1279  0.1785 -0.6753
 1161TIP3    H124974   4.396   2.058   3.693 -0.1688  0.1628 -1.5451
 1161TIP3    H224975   4.404   1.941   3.789  0.9902  0.7723 -0.8814
 1162TIP3   OH224976   0.501   1.950   3.562  0.0531 -0.7946 -0.1615
 1162TIP3    H124977   0.444   1.885   3.521 -0.8986  0.2306 -0.5123
 1162TIP3    H224978   0.483   2.031   3.515 -1.0538  0.4446  2.2364
 1163TIP3   OH224979   6.056   1.656  14.657  0.3106 -0.2949 -0.0755
 1163TIP3    H124980   6.092   1.741  14.682  0.1890 -0.6454  1.3729
 1163TIP3    H224981   5.971   1.676  14.619  0.6134  0.2787 -0.4801
 1164TIP3   OH224982   5.573   5.379  16.279  0.1399  0.0596  0.0452
 1164TIP3    H124983   5.612   5.440  16.216 -0.9906  0.9723  0.2072
 1164TIP3    H224984   5.479   5.385  16.264 -0.0670 -0.7346  0.9027
 1165TIP3   OH224985   6.676   5.457   5.552  0.0954 -0.6137  0.2485
 1165TIP3    H124986   6.601   5.399   5.559 -0.2034 -0.1443  1.1656
 1165TIP3    H224987   6.694   5.484   5.643  2.3430 -1.9296  0.2824
 1166TIP3   OH224988   5.282   2.862   2.743 -0.2224 -0.2363 -0.0397
 1166TIP3    H124989   5.258   2.772   2.763  1.2139 -0.3371  1.5273
 1166TIP3    H224990   5.351   2.855   2.677 -0.7459 -0.2249 -0.5936
 1167TIP3   OH224991   0.440   1.944  14.057  0.3919  0.0129 -0.0235
 1167TIP3    H124992   0.402   1.953  14.144  1.3228 -4.2350  1.0090
 1167TIP3    H224993   0.529   1.978  14.066 -0.0395  1.1622  0.1374
 1168TIP3   OH224994   3.453   0.405   0.518 -0.0831 -0.0191  0.0615
 1168TIP3    H124995   3.538   0.373   0.489  0.1136  0.7001 -0.1693
 1168TIP3    H224996   3.412   0.440   0.440 -0.5323 -0.2108  0.2044
 1169TIP3   OH224997   0.372   2.873  13.675 -0.4641  0.1321  0.0763
 1169TIP3    H124998   0.406   2.786  13.696 -0.2291 -0.1034 -1.1880
 1169TIP3    H224999   0.290   2.856  13.629 -0.2956  0.5571 -0.3922
 1170TIP3   OH225000   3.389   1.047   0.022 -0.0657 -0.2233  0.2106
 1170TIP3    H125001   3.375   1.072   0.113 -0.6496  2.7573 -0.5841
 1170TIP3    H225002   3.461   1.102  -0.008 -1.1590  0.3030 -1.6172
 1171TIP3   OH225003   3.756   3.545   5.169  0.8191 -0.2851 -0.2549
 1171TIP3    H125004   3.680   3.590   5.131  1.2185  0.5521 -0.0780
 1171TIP3    H225005   3.830   3.600   5.145  1.3679 -1.0526 -0.3429
 1172TIP3   OH225006   0.479   0.092   2.856 -0.5085  0.1161 -0.5073
 1172TIP3    H125007   0.434   0.022   2.809  0.2255 -0.1863 -0.7755
 1172TIP3    H225008   0.420   0.167   2.849 -0.7833 -0.1515 -1.2194
 1173TIP3   OH225009   2.279   2.190  13.456  0.1579  0.4479  0.7478
 1173TIP3    H125010   2.204   2.148  13.500 -0.1938  0.7064  0.4050
 1173TIP3    H225011   2.286   2.276  13.497 -1.0852  1.2741 -0.6443
 1174TIP3   OH225012   5.725   2.561   4.785  0.1552 -0.1804  0.1523
 1174TIP3    H125013   5.650   2.503   4.781 -0.1653  0.0696  1.7999
 1174TIP3    H225014   5.737   2.591   4.695 -0.9687 -1.1416 -0.3470
 1175TIP3   OH225015   5.930   2.284  12.877  0.1855  0.1091 -0.3440
 1175TIP3    H125016   6.018   2.322  12.874  0.5220 -0.7092 -1.1985
 1175TIP3    H225017   5.881   2.332  12.810 -0.8056  2.3443  1.8108
 1176TIP3   OH225018   6.312   3.760  11.246 -0.2015  0.1839 -0.2536
 1176TIP3    H125019   6.229   3.750  11.291  0.1873 -1.4124  0.1683
 1176TIP3    H225020   6.376   3.714  11.301  0.7827  0.5324 -1.0550
 1177TIP3   OH225021   1.229   6.353   4.369  0.1515  0.4463 -1.3934
 1177TIP3    H125022   1.252   6.379   4.458  0.0143 -0.0482 -1.2105
 1177TIP3    H225023   1.192   6.266   4.378  2.9910 -0.9748 -2.2604
 1178TIP3   OH225024   2.811   0.578  14.860 -0.1114 -0.5905 -0.4986
 1178TIP3    H125025   2.726   0.590  14.817 -1.4044 -0.1502  2.0035
 1178TIP3    H225026   2.812   0.485  14.883 -1.4161 -0.0288  2.2121
 1179TIP3   OH225027   5.823   0.268  15.628 -0.6286 -0.7686 -0.1119
 1179TIP3    H125028   5.769   0.196  15.660  0.3387 -0.5150  2.2529
 1179TIP3    H225029   5.821   0.333  15.698 -1.6157  1.6612 -2.2327
 1180TIP3   OH225030   5.006   5.229  15.194  0.5354  0.1536 -0.6002
 1180TIP3    H125031   4.962   5.211  15.277  0.2704 -3.1328 -1.2855
 1180TIP3    H225032   5.045   5.315  15.205 -0.0245  0.1115  2.6927
 1181TIP3   OH225033   1.396   0.533  11.680 -0.2878 -0.3260 -0.0779
 1181TIP3    H125034   1.349   0.614  11.698  0.0081 -0.0779 -0.3988
 1181TIP3    H225035   1.328   0.467  11.670 -0.5204 -0.1751  0.4632
 1182TIP3   OH225036   5.130   4.010   0.384 -0.0035 -0.0139 -0.5754
 1182TIP3    H125037   5.134   4.085   0.444 -0.8775  0.1336 -0.6888
 1182TIP3    H225038   5.048   4.021   0.337  0.8675  0.0905 -2.1182
 1183TIP3   OH225039   2.071   2.920   1.724  0.0516  0.2482  0.5617
 1183TIP3    H125040   2.084   3.014   1.713 -1.5316  0.5483  0.9723
 1183TIP3    H225041   2.142   2.893   1.782  0.8544  1.0621  0.0026
 1184TIP3   OH225042   5.978   6.270   2.691  0.0132  0.2218 -0.1119
 1184TIP3    H125043   5.905   6.302   2.637  0.1755  0.5454 -0.1432
 1184TIP3    H225044   6.004   6.188   2.649  1.1513  1.2290 -1.4765
 1185TIP3   OH225045   0.748   1.512   0.184  0.4660 -0.0121  0.2497
 1185TIP3    H125046   0.720   1.463   0.261  0.6591 -1.3326 -0.4777
 1185TIP3    H225047   0.669   1.556   0.153  0.0391 -0.7255  0.3175
 1186TIP3   OH225048   0.930   2.092  14.339 -0.1415  0.0506  0.2432
 1186TIP3    H125049   0.885   2.109  14.422 -0.5103 -2.0891  0.5280
 1186TIP3    H225050   1.015   2.137  14.348  0.2522 -1.0038  2.2139
 1187TIP3   OH225051   0.828   6.155  11.879  0.5633 -0.5427  0.1768
 1187TIP3    H125052   0.904   6.124  11.829  0.5487  0.0932 -0.2499
 1187TIP3    H225053   0.789   6.076  11.915  3.0760 -0.7342  2.8372
 1188TIP3   OH225054   5.779   1.888   5.257 -0.2446 -0.1770  0.2429
 1188TIP3    H125055   5.741   1.904   5.343 -0.1709 -0.9086  0.4173
 1188TIP3    H225056   5.771   1.793   5.244  0.6091 -0.2102 -0.1386
 1189TIP3   OH225057   3.931   6.571  11.731  0.0822 -0.3622  0.7351
 1189TIP3    H125058   3.909   6.664  11.741 -0.1783 -0.2378 -0.7369
 1189TIP3    H225059   3.853   6.525  11.761 -0.3250 -0.0517  0.1797
 1190TIP3   OH225060   1.441   1.768   5.682  0.0607  0.0742 -0.3341
 1190TIP3    H125061   1.430   1.738   5.592  0.2856 -1.6795  0.1834
 1190TIP3    H225062   1.415   1.861   5.680  0.8948  0.3130 -2.3550
 1191TIP3   OH225063   2.255   4.660   4.759  0.2416 -0.9249  0.3623
 1191TIP3    H125064   2.327   4.688   4.702  0.0765 -1.2808 -0.0259
 1191TIP3    H225065   2.184   4.721   4.739  0.3854 -0.6604  0.6448
 1192TIP3   OH225066   6.546   4.140   5.782 -0.1246 -0.1399  0.0169
 1192TIP3    H125067   6.564   4.191   5.862 -1.3573 -0.3100  0.4204
 1192TIP3    H225068   6.625   4.150   5.729 -0.0264  1.5775  0.4193
 1193TIP3   OH225069   6.313   0.463  16.474 -0.0588  0.7725 -0.0315
 1193TIP3    H125070   6.357   0.399  16.529  0.8205  1.2259 -0.1950
 1193TIP3    H225071   6.368   0.541  16.477  0.9290  0.3161 -2.7964
 1194TIP3   OH225072   0.735   2.124  16.552  0.4179  0.0401  0.0453
 1194TIP3    H125073   0.773   2.212  16.554  0.7051 -0.0839  0.0398
 1194TIP3    H225074   0.798   2.069  16.599 -0.9679  0.3088  2.4006
 1195TIP3   OH225075   3.021   1.560  14.052  0.0936 -0.0031 -0.2460
 1195TIP3    H125076   2.966   1.600  14.120  1.4984  0.7759  0.4809
 1195TIP3    H225077   3.054   1.634  14.002  0.2732 -0.4844 -0.8490
 1196TIP3   OH225078   6.005   6.237  14.059  0.2506 -0.3220 -0.0187
 1196TIP3    H125079   5.983   6.304  13.995 -0.0586 -0.6390 -0.2528
 1196TIP3    H225080   6.099   6.248  14.075  0.7810 -1.5151 -2.0349
 1197TIP3   OH225081   1.049   0.636  12.018  0.2913 -0.2753  0.1465
 1197TIP3    H125082   1.028   0.587  11.939 -0.2599 -1.3997  0.9575
 1197TIP3    H225083   1.068   0.568  12.084 -1.8266  0.5019  1.6725
 1198TIP3   OH225084   0.217   0.659  10.651 -0.2468 -0.5390  0.0442
 1198TIP3    H125085   0.150   0.684  10.715 -0.4294 -0.7965 -0.0440
 1198TIP3    H225086   0.166   0.631  10.575 -0.0686 -2.0934  0.4717
 1199TIP3   OH225087   3.252   2.386   0.548 -0.1188  0.0632  0.4950
 1199TIP3    H125088   3.203   2.304   0.548  0.5963 -0.3796 -0.6506
 1199TIP3    H225089   3.196   2.447   0.596 -0.5735 -1.1303  1.5348
 1200TIP3   OH225090   1.717   3.235   4.876 -0.0132 -0.0860  0.3413
 1200TIP3    H125091   1.684   3.197   4.795 -1.0181  0.0861  0.6585
 1200TIP3    H225092   1.675   3.321   4.882  1.0107  0.4315  0.4293
 1201TIP3   OH225093   0.272   1.763   2.474  0.5774  0.6320  0.5065
 1201TIP3    H125094   0.227   1.716   2.404 -1.0866  1.6582  0.8233
 1201TIP3    H225095   0.249   1.855   2.459  0.5270  0.9131  2.1445
 1202TIP3   OH225096   1.276   1.424   1.400  0.4716  0.5261 -0.3552
 1202TIP3    H125097   1.187   1.429   1.366 -0.1123  2.3271  1.2374
 1202TIP3    H225098   1.332   1.438   1.324 -0.5821 -0.2177 -1.3071
 1203TIP3   OH225099   3.100   0.760  13.451  0.0782 -0.0812  0.4396
 1203TIP3    H125100   3.138   0.796  13.531  0.7878 -1.2495  0.6490
 1203TIP3    H225101   3.155   0.685  13.430  3.0897  2.8996 -3.9043
 1204TIP3   OH225102   4.296   5.614   4.253  0.3158  0.3111 -0.0788
 1204TIP3    H125103   4.258   5.663   4.180 -1.1262 -0.2332  0.2605
 1204TIP3    H225104   4.229   5.549   4.275  0.2262  1.1186  2.3909
 1205TIP3   OH225105   1.160   5.098   4.865 -0.0521 -0.4521 -0.5056
 1205TIP3    H125106   1.131   5.105   4.774  2.5631  1.9829 -1.3117
 1205TIP3    H225107   1.098   5.152   4.914 -0.3341 -0.1428 -1.1892
 1206TIP3   OH225108   2.117   3.587  15.226  0.1835 -0.6586  0.5381
 1206TIP3    H125109   2.186   3.629  15.174  0.6872 -2.0752  0.0159
 1206TIP3    H225110   2.161   3.513  15.268 -1.1287 -1.9278 -0.2436
 1207TIP3   OH225111   4.781   2.857   4.091  0.6420 -0.4930  0.4004
 1207TIP3    H125112   4.692   2.892   4.095 -0.2964 -2.6869 -0.2142
 1207TIP3    H225113   4.791   2.808   4.172  1.3343 -0.2220  0.4886
 1208TIP3   OH225114   3.058   6.246   2.540 -0.2220 -0.0021  0.0380
 1208TIP3    H125115   3.047   6.160   2.499  0.7288 -1.0679  1.8733
 1208TIP3    H225116   3.149   6.246   2.571 -0.6512  1.0391  1.4100
 1209TIP3   OH225117   3.651   0.012  14.555 -0.4912 -0.1219  0.4935
 1209TIP3    H125118   3.729  -0.036  14.582  0.0570  0.6184  0.2612
 1209TIP3    H225119   3.684   0.097  14.526 -1.4141  0.3060  0.6599
 1210TIP3   OH225120   1.838   2.249  12.582  0.1598 -0.1298  0.5298
 1210TIP3    H125121   1.874   2.220  12.666  1.0854 -1.2749 -0.2188
 1210TIP3    H225122   1.894   2.206  12.516 -0.7483  0.4625 -0.6691
 1211TIP3   OH225123   0.848   1.977  14.641  0.4117  0.0575  0.1385
 1211TIP3    H125124   0.812   1.893  14.669  0.0506  0.0670 -0.2787
 1211TIP3    H225125   0.771   2.033  14.628  0.6748  0.6499  1.0089
 1212TIP3   OH225126   4.714   4.598   4.704 -0.0084 -0.0257 -0.1249
 1212TIP3    H125127   4.639   4.556   4.746  0.7090 -0.0157  1.2313
 1212TIP3    H225128   4.676   4.666   4.649 -1.0261 -0.4768 -0.0023
 1213TIP3   OH225129   5.490   4.987  12.989  0.3323 -0.7210 -0.5147
 1213TIP3    H125130   5.567   5.044  13.002  0.4055 -1.2034  1.5117
 1213TIP3    H225131   5.457   5.011  12.903  0.6512  2.0795  0.0404
 1214TIP3   OH225132   3.377   3.167   2.778 -0.1331  0.6340 -0.4069
 1214TIP3    H125133   3.288   3.158   2.744  0.0274 -1.3546 -0.3941
 1214TIP3    H225134   3.382   3.258   2.808 -1.8325  1.0586 -1.2929
 1215TIP3   OH225135   0.430   6.463   5.881 -0.0526  0.3128 -0.4206
 1215TIP3    H125136   0.392   6.435   5.798 -0.8842  0.4514 -0.0937
 1215TIP3    H225137   0.475   6.385   5.915 -0.5427 -0.0194 -0.5314
 1216TIP3   OH225138   4.369   1.817  12.178 -0.1018  0.1894 -0.7960
 1216TIP3    H125139   4.364   1.734  12.131  0.4420  0.3237 -1.1025
 1216TIP3    H225140   4.331   1.798  12.264 -1.7653  0.1341 -1.5190
 1217TIP3   OH225141   2.856   1.941   3.688 -0.1078  0.0492 -0.2014
 1217TIP3    H125142   2.832   1.868   3.745  1.0207 -1.1366 -1.1998
 1217TIP3    H225143   2.948   1.958   3.708  0.5345 -0.8878 -2.1431
 1218TIP3   OH225144   6.234   6.380   0.269 -0.0172 -0.4628  0.1874
 1218TIP3    H125145   6.221   6.359   0.176 -1.2929 -1.6224  0.6111
 1218TIP3    H225146   6.300   6.318   0.299  0.9803  0.4221 -0.1026
 1219TIP3   OH225147   6.138   0.662   2.545  0.0787  0.0036 -0.0423
 1219TIP3    H125148   6.092   0.726   2.490  0.8180  0.0217 -0.6723
 1219TIP3    H225149   6.109   0.681   2.634 -0.9192  0.1733 -0.3928
 1220TIP3   OH225150   3.608   0.962  14.264 -0.4431  0.5434  0.3345
 1220TIP3    H125151   3.518   0.942  14.238 -0.4325  0.5444  0.2966
 1220TIP3    H225152   3.605   0.965  14.360 -0.3765  0.0320  0.3537
 1221TIP3   OH225153   0.456   2.037   4.698  0.1602  0.2427 -0.1429
 1221TIP3    H125154   0.492   1.997   4.619 -0.8668 -1.3486  0.1541
 1221TIP3    H225155   0.377   2.082   4.669  0.3035  0.4867 -0.1631
 1222TIP3   OH225156   4.684   3.255   4.349 -0.1803  0.1384 -0.2697
 1222TIP3    H125157   4.602   3.240   4.301 -0.2376  0.8415 -0.4090
 1222TIP3    H225158   4.678   3.346   4.377  0.3086  0.0241  0.2117
 1223TIP3   OH225159   0.209   3.901   4.110 -0.3103  0.7348 -0.1938
 1223TIP3    H125160   0.274   3.833   4.098  1.0356  2.0543 -0.6957
 1223TIP3    H225161   0.134   3.874   4.057  1.1823  0.8704 -2.4555
 1224TIP3   OH225162   6.176   1.714   4.017  0.5994  0.0831 -0.1225
 1224TIP3    H125163   6.232   1.791   4.008 -0.9454  1.1407 -1.2011
 1224TIP3    H225164   6.141   1.700   3.929 -1.1836 -0.2282  0.5880
 1225TIP3   OH225165   3.650   4.816  12.993  0.2168 -0.4223 -0.0127
 1225TIP3    H125166   3.648   4.894  12.938 -0.8928  0.0432  0.6560
 1225TIP3    H225167   3.559   4.804  13.021  0.6360 -1.0631  1.1372
 1226TIP3   OH225168   6.530   1.013  13.886 -0.1367 -0.3021  0.5130
 1226TIP3    H125169   6.482   1.052  13.814  0.6182 -1.2484 -0.5372
 1226TIP3    H225170   6.613   1.059  13.888  0.8019 -1.8263 -0.8018
 1227TIP3   OH225171   6.467   1.753  16.372 -0.0535  0.0124 -0.7314
 1227TIP3    H125172   6.455   1.744  16.278  0.0213 -0.4135 -0.7023
 1227TIP3    H225173   6.550   1.708  16.390  2.3575  3.8821 -1.1087
 1228TIP3   OH225174   3.166   2.358  14.932  0.6976 -0.5605  0.1820
 1228TIP3    H125175   3.108   2.391  15.002  0.7905 -1.2049  0.5736
 1228TIP3    H225176   3.120   2.281  14.898  0.6961 -0.2973 -0.4146
 1229TIP3   OH225177   5.916   3.510  12.143  0.1709  0.3252 -0.1519
 1229TIP3    H125178   5.849   3.501  12.075 -0.1085  0.8219  0.0502
 1229TIP3    H225179   5.871   3.554  12.215  0.5301  0.0264  0.2604
 1230TIP3   OH225180   5.638   5.017   4.901 -0.1356 -0.0785  0.4286
 1230TIP3    H125181   5.685   5.047   4.823 -0.1844 -0.9443  0.0578
 1230TIP3    H225182   5.658   4.924   4.907 -0.6680 -0.1603  1.0770
 1231TIP3   OH225183   1.792   6.068  16.190 -0.5635  0.2979  0.4353
 1231TIP3    H125184   1.797   5.999  16.124  0.5946  1.0891 -0.3457
 1231TIP3    H225185   1.725   6.128  16.157  1.0909  1.5173 -0.9093
 1232TIP3   OH225186   2.527   0.576  12.693 -0.2180 -0.0263  0.0037
 1232TIP3    H125187   2.562   0.561  12.781  0.6604  2.9863  0.3038
 1232TIP3    H225188   2.603   0.602  12.641 -1.2457  2.2681 -0.4962
 1233TIP3   OH225189   2.838   2.249  13.020  0.4226  0.4340  0.1298
 1233TIP3    H125190   2.911   2.285  12.969  0.4135 -1.0883 -1.0239
 1233TIP3    H225191   2.850   2.287  13.108  2.0733  0.9181 -0.2576
 1234TIP3   OH225192   1.774   4.890  15.977 -0.0939  0.0372  0.2041
 1234TIP3    H125193   1.699   4.879  16.037 -1.0160 -1.0541 -1.0918
 1234TIP3    H225194   1.816   4.804  15.977 -0.3120 -0.0747 -0.9688
 1235TIP3   OH225195   5.722   1.885  17.213  0.0790  0.1776 -0.4909
 1235TIP3    H125196   5.709   1.968  17.258  0.6973  0.3737 -0.6547
 1235TIP3    H225197   5.800   1.847  17.255 -0.4191 -0.4963 -0.1613
 1236TIP3   OH225198   5.945   2.046  14.516 -0.3718 -0.6976 -0.0588
 1236TIP3    H125199   5.895   1.967  14.499 -1.0200 -0.4147  0.4796
 1236TIP3    H225200   5.887   2.100  14.570 -0.1071  0.3121 -0.7418
 1237TIP3   OH225201   2.431   1.714   4.439 -0.8347  0.2885  0.0814
 1237TIP3    H125202   2.376   1.639   4.459 -0.2638  0.0888  0.9441
 1237TIP3    H225203   2.496   1.680   4.377 -0.6874  0.1056  0.3320
 1238TIP3   OH225204   1.317   0.827   2.213 -0.2717  0.3382  0.3418
 1238TIP3    H125205   1.327   0.894   2.145  0.8438 -1.5193 -1.4665
 1238TIP3    H225206   1.353   0.748   2.173 -1.1453 -1.2581  2.5268
 1239TIP3   OH225207   1.840   5.459  10.510 -0.0106 -0.4915 -0.4042
 1239TIP3    H125208   1.925   5.493  10.539  0.0521  0.1765 -1.3486
 1239TIP3    H225209   1.780   5.484  10.581  0.5879 -1.0477  0.3108
 1240TIP3   OH225210   2.569   2.777   4.360  0.2203 -0.2013  0.0228
 1240TIP3    H125211   2.595   2.688   4.387  1.0518  0.2140  0.6519
 1240TIP3    H225212   2.580   2.777   4.265 -2.9895 -1.7759 -0.5001
 1241TIP3   OH225213   0.426   2.683  16.705 -0.2832 -0.4466  0.3616
 1241TIP3    H125214   0.427   2.735  16.625  2.7604 -1.7300 -0.5554
 1241TIP3    H225215   0.439   2.747  16.775  0.4458  0.3409 -0.4703
 1242TIP3   OH225216   4.026   3.422   4.438  0.6044 -0.1898 -0.3336
 1242TIP3    H125217   4.010   3.361   4.510 -2.4521 -0.1215 -0.8061
 1242TIP3    H225218   4.044   3.505   4.482 -0.1423 -0.3816  0.3825
 1243TIP3   OH225219   6.247   2.744  14.199  0.1431 -0.3788  0.3772
 1243TIP3    H125220   6.233   2.819  14.257 -1.3259  0.1845 -0.6476
 1243TIP3    H225221   6.181   2.754  14.131 -0.0684 -2.5955  0.1837
 1244TIP3   OH225222   1.366   2.874   4.739 -0.1749 -0.0455  0.8437
 1244TIP3    H125223   1.340   2.957   4.780 -0.9488  0.4764 -0.6212
 1244TIP3    H225224   1.415   2.828   4.807  0.8740  1.9023  1.5013
 1245TIP3   OH225225   6.280   2.224  12.587  0.4255 -0.2051  0.0537
 1245TIP3    H125226   6.333   2.192  12.660  0.9257 -2.8924 -1.3516
 1245TIP3    H225227   6.196   2.178  12.596  0.8487 -1.4060 -1.5449
 1246TIP3   OH225228   4.020   6.737  16.438 -0.3232  0.2488 -0.4637
 1246TIP3    H125229   4.078   6.735  16.361  0.8683 -1.2324  0.4140
 1246TIP3    H225230   3.977   6.652  16.438  0.0232  0.0559  0.7400
 1247TIP3   OH225231   6.109   4.468  11.413 -0.6769 -0.8811 -0.6949
 1247TIP3    H125232   6.072   4.383  11.435 -1.1363 -0.7727 -1.0375
 1247TIP3    H225233   6.049   4.505  11.348 -1.0616  0.1514  0.2141
 1248TIP3   OH225234   4.969   5.207  14.667  0.1691 -0.3841  0.3480
 1248TIP3    H125235   4.911   5.229  14.594 -0.6496 -0.4902  0.9559
 1248TIP3    H225236   5.048   5.259  14.651  0.6532 -1.5486 -1.4397
 1249TIP3   OH225237   2.599   1.534   2.379  0.0030  0.2920 -0.2927
 1249TIP3    H125238   2.675   1.492   2.339 -0.2326 -0.2615 -0.1802
 1249TIP3    H225239   2.600   1.623   2.345  0.8937  0.3905 -0.0239
 1250TIP3   OH225240   6.552   4.049  14.025  0.5692 -0.1636 -0.0126
 1250TIP3    H125241   6.556   4.082  14.115 -0.1779  0.9321 -0.3563
 1250TIP3    H225242   6.463   4.015  14.016  0.4043  0.3999 -0.5473
 1251TIP3   OH225243   1.620   4.269   2.744  0.4364  0.8325  0.5058
 1251TIP3    H125244   1.658   4.357   2.736  0.0690  0.9760  0.3289
 1251TIP3    H225245   1.551   4.278   2.809 -0.0731  0.8392 -0.0253
 1252TIP3   OH225246   3.016   4.560  10.445  0.3189  0.1752  0.1533
 1252TIP3    H125247   3.099   4.577  10.490  0.1550  1.0765  0.1483
 1252TIP3    H225248   2.950   4.562  10.515  0.1332  0.9977 -0.0250
 1253TIP3   OH225249   4.735   1.797  14.168  0.0307 -0.2152  0.2038
 1253TIP3    H125250   4.663   1.834  14.117  0.8561  0.5112 -0.4628
 1253TIP3    H225251   4.779   1.737  14.107  0.2308 -0.3520  0.4795
 1254TIP3   OH225252   1.075   3.464   3.446 -0.3784  0.1704  0.2559
 1254TIP3    H125253   1.014   3.526   3.406  0.4960  0.0741 -1.2935
 1254TIP3    H225254   1.115   3.418   3.372  2.3756  0.9861  1.1193
 1255TIP3   OH225255   0.015   1.954  16.091 -1.0021 -0.7635  0.0363
 1255TIP3    H125256  -0.040   2.016  16.139 -1.4575 -0.2000 -1.1736
 1255TIP3    H225257  -0.013   1.963  16.000  0.4615 -1.1502 -0.4713
 1256TIP3   OH225258   4.766   3.691   4.166 -0.4788  0.3374  0.1338
 1256TIP3    H125259   4.753   3.631   4.093  0.8066 -0.6478  0.6752
 1256TIP3    H225260   4.839   3.747   4.139 -1.5842  1.6005 -0.3130
 1257TIP3   OH225261   3.969   6.781   5.610 -0.2236 -0.2017 -0.3006
 1257TIP3    H125262   3.929   6.861   5.645 -0.2818  0.0481 -0.9292
 1257TIP3    H225263   4.055   6.809   5.580 -0.1656 -0.4186 -0.3356
 1258TIP3   OH225264   0.049   4.318   4.645  0.1931  0.3892  0.4553
 1258TIP3    H125265   0.098   4.312   4.728  1.4364 -0.0515 -0.2860
 1258TIP3    H225266   0.049   4.228   4.611 -0.7942  0.4588  0.2210
 1259TIP3   OH225267   4.043   0.267  12.666 -0.0124 -0.0680  0.3256
 1259TIP3    H125268   4.112   0.289  12.603  0.3640  1.5695  1.2737
 1259TIP3    H225269   4.067   0.179  12.697 -0.1604 -0.8912 -1.6930
 1260TIP3   OH225270   3.313   5.058  13.339  0.1857  0.2703 -0.4277
 1260TIP3    H125271   3.224   5.070  13.305 -0.3229  1.8715  1.2841
 1260TIP3    H225272   3.304   4.993  13.408  0.0392  1.4303  0.6832
 1261TIP3   OH225273   0.702   1.268   3.274 -0.0034 -0.3148 -0.6846
 1261TIP3    H125274   0.751   1.350   3.270 -1.0113  0.2762 -1.2323
 1261TIP3    H225275   0.616   1.294   3.305 -0.6478 -1.0183 -1.8347
 1262TIP3   OH225276   3.057   0.292   4.602  0.0246  0.4583  0.1570
 1262TIP3    H125277   3.064   0.212   4.550 -3.4419 -0.0902  0.3303
 1262TIP3    H225278   3.091   0.360   4.544 -0.2533 -0.6421 -1.3633
 1263TIP3   OH225279   4.505   2.933   0.399  0.5312 -0.5145 -0.4130
 1263TIP3    H125280   4.452   2.891   0.331 -0.9488  0.9715 -0.2288
 1263TIP3    H225281   4.467   2.903   0.482 -0.0102  0.4834 -0.2813
 1264TIP3   OH225282   6.780   3.452   5.798  0.6982  0.2191  0.2957
 1264TIP3    H125283   6.749   3.364   5.778  1.8180 -0.5402  1.6579
 1264TIP3    H225284   6.876   3.445   5.796  0.8441  0.9193  2.1986
 1265TIP3   OH225285   6.206   0.985  14.565  0.0704  0.0813 -0.2597
 1265TIP3    H125286   6.283   1.025  14.525 -0.8968  2.5364  0.0951
 1265TIP3    H225287   6.133   1.041  14.537 -1.0466  0.2135  2.5047
 1266TIP3   OH225288   4.935   6.068   2.263 -0.2689 -0.5063 -0.1406
 1266TIP3    H125289   4.953   5.988   2.214 -1.5031  0.0148 -1.5570
 1266TIP3    H225290   4.840   6.078   2.257 -0.2532  0.4831  0.9519
 1267TIP3   OH225291   5.868   0.467  11.468  0.1795 -0.6437  0.4914
 1267TIP3    H125292   5.865   0.436  11.558 -0.9955 -1.5671  0.1685
 1267TIP3    H225293   5.809   0.409  11.421 -0.9448  1.1591 -0.4566
 1268TIP3   OH225294   5.486   0.378   2.895  0.2100 -0.6967 -0.0788
 1268TIP3    H125295   5.481   0.453   2.835  1.6730 -0.8954 -0.4741
 1268TIP3    H225296   5.527   0.413   2.974  0.8918 -1.0597 -0.2608
 1269TIP3   OH225297   1.804   3.548   5.063  0.2300 -0.3666  0.5994
 1269TIP3    H125298   1.891   3.516   5.088  0.0460 -0.1583  1.5668
 1269TIP3    H225299   1.812   3.643   5.062  0.4182 -0.3834 -0.9074
 1270TIP3   OH225300   5.235   4.916   0.828 -0.5092 -0.7865 -0.1783
 1270TIP3    H125301   5.275   4.898   0.743 -0.8570 -1.2964 -0.2366
 1270TIP3    H225302   5.216   4.829   0.864  0.0201 -0.5866  0.6050
 1271TIP3   OH225303   3.713   5.520   5.493  0.4370  0.5417  0.2418
 1271TIP3    H125304   3.795   5.512   5.541  0.2878  2.5959  0.9748
 1271TIP3    H225305   3.665   5.589   5.540 -0.9143  0.6780 -1.2362
 1272TIP3   OH225306   0.179   4.693   4.616  0.1641  0.2504  0.3472
 1272TIP3    H125307   0.153   4.624   4.555  0.2183 -0.1193  0.7383
 1272TIP3    H225308   0.274   4.688   4.620  0.1314 -0.0282  0.8113
 1273TIP3   OH225309   1.480   6.211  14.805 -0.2155 -0.0908  0.2697
 1273TIP3    H125310   1.441   6.139  14.855 -1.3406 -0.6004 -1.2610
 1273TIP3    H225311   1.574   6.193  14.807 -0.3929 -1.0581  0.7351
 1274TIP3   OH225312   1.455   6.739  16.972 -0.3496 -0.0322  0.7307
 1274TIP3    H125313   1.367   6.770  16.951 -0.6061 -1.0755  0.1749
 1274TIP3    H225314   1.501   6.739  16.888  1.3150  3.7183  1.4566
 1275TIP3   OH225315   0.052   5.483   4.071 -0.0481  0.2825 -0.6511
 1275TIP3    H125316  -0.041   5.479   4.096 -0.1167 -1.6366 -1.0946
 1275TIP3    H225317   0.071   5.397   4.034  1.9116  0.6549 -0.6148
 1276TIP3   OH225318   3.240   2.206   4.851 -0.0683  0.2422 -0.2152
 1276TIP3    H125319   3.248   2.285   4.796  1.1242  1.5439  1.7127
 1276TIP3    H225320   3.190   2.145   4.797 -0.9165  2.2475 -1.8587
 1277TIP3   OH225321   3.709   3.798   3.085 -0.2554 -0.2191 -0.1893
 1277TIP3    H125322   3.632   3.817   3.031  0.0715 -0.1624 -0.6408
 1277TIP3    H225323   3.712   3.702   3.090  0.5124 -0.2749 -1.4516
 1278TIP3   OH225324   0.278   1.137  11.472  0.1409  0.4115 -0.5042
 1278TIP3    H125325   0.323   1.211  11.431  0.8041  0.1674 -0.2313
 1278TIP3    H225326   0.309   1.137  11.562 -1.7836  1.3365  0.2251
 1279TIP3   OH225327   1.118   0.764  10.943 -0.2815  0.6235  0.2997
 1279TIP3    H125328   1.147   0.682  10.983 -2.1273 -1.2675 -1.9852
 1279TIP3    H225329   1.200   0.811  10.924  0.7516  0.2684  3.3119
 1280TIP3   OH225330   6.491   1.408   1.064 -0.5194 -0.5192  0.0950
 1280TIP3    H125331   6.500   1.406   1.159  0.0749  1.4898  0.1193
 1280TIP3    H225332   6.480   1.500   1.042 -0.6093 -0.9268 -1.8017
 1281TIP3   OH225333   6.253   2.519   1.294  0.0791 -0.1773 -0.0832
 1281TIP3    H125334   6.340   2.560   1.297 -0.3278  0.9580 -1.9591
 1281TIP3    H225335   6.268   2.430   1.325  1.8649  0.0929 -0.0567
 1282TIP3   OH225336   4.158   1.966  14.397 -0.2435  0.1177  0.0764
 1282TIP3    H125337   4.087   1.946  14.335 -1.6627  1.9192  1.0031
 1282TIP3    H225338   4.150   1.899  14.465 -1.6355  0.7696  0.5905
 1283TIP3   OH225339   6.688   3.203  11.082  0.2321 -0.4812 -0.4725
 1283TIP3    H125340   6.758   3.246  11.033 -0.9225  2.0818 -0.0308
 1283TIP3    H225341   6.670   3.123  11.033  3.5460 -1.3565 -0.4754
 1284TIP3   OH225342   0.800   2.571  14.934  0.1476 -0.1470  0.1247
 1284TIP3    H125343   0.795   2.568  15.030  1.9749 -1.8734  0.2388
 1284TIP3    H225344   0.817   2.480  14.908 -2.0914 -0.0507 -2.0280
 1285TIP3   OH225345   3.740   6.329   2.872 -0.1651  0.0671  0.0226
 1285TIP3    H125346   3.769   6.420   2.871 -0.3801  0.1398  0.2942
 1285TIP3    H225347   3.645   6.334   2.864 -0.0272 -0.2151 -2.2675
 1286TIP3   OH225348   6.767   2.203   4.085  0.0626  0.1453 -0.3316
 1286TIP3    H125349   6.797   2.274   4.142 -0.5869 -0.9325  1.4227
 1286TIP3    H225350   6.723   2.248   4.013  0.5310  1.5477  0.2091
 1287TIP3   OH225351   3.299   3.505   2.581  0.1352 -0.6844 -0.5004
 1287TIP3    H125352   3.278   3.519   2.489 -0.6003  1.0885 -0.1028
 1287TIP3    H225353   3.326   3.413   2.586  0.1339 -0.8244 -2.4552
 1288TIP3   OH225354   3.117   0.248   6.094  0.3336  0.0526 -0.0824
 1288TIP3    H125355   3.177   0.267   6.022 -0.1898  1.0800 -0.2759
 1288TIP3    H225356   3.123   0.324   6.151 -1.1556  0.4313 -0.3854
 1289TIP3   OH225357   5.209   5.308  15.922 -0.5827 -0.3843 -0.2620
 1289TIP3    H125358   5.228   5.369  15.851  1.3987  1.6631  1.8644
 1289TIP3    H225359   5.249   5.226  15.894  0.0254  0.3206 -1.5829
 1290TIP3   OH225360   6.103   5.069  11.102 -0.1163 -0.0713  0.3925
 1290TIP3    H125361   6.155   5.013  11.045 -0.6147  0.2732 -0.4263
 1290TIP3    H225362   6.119   5.158  11.068 -0.6466  0.1054  0.6029
 1291TIP3   OH225363   4.591   5.607   4.190  0.1383 -0.1228 -0.1876
 1291TIP3    H125364   4.613   5.631   4.280  1.4756 -1.0827 -0.2301
 1291TIP3    H225365   4.496   5.592   4.192  0.2248 -0.6588  1.1886
 1292TIP3   OH225366   0.352   0.981   1.855 -0.4404  0.5963 -0.4153
 1292TIP3    H125367   0.359   0.889   1.827  0.1054  0.0908  1.2623
 1292TIP3    H225368   0.348   1.030   1.773  0.3450 -0.8410 -1.3738
 1293TIP3   OH225369   5.319   2.433   5.689  0.0177  0.0335 -0.3476
 1293TIP3    H125370   5.309   2.528   5.697  0.2877  0.0840 -0.5800
 1293TIP3    H225371   5.393   2.412   5.746 -2.2154 -0.5457  2.5606
 1294TIP3   OH225372   1.483   6.588   2.427 -0.2279 -0.0579  0.6852
 1294TIP3    H125373   1.472   6.567   2.334 -1.8449 -1.4298  1.1463
 1294TIP3    H225374   1.406   6.551   2.470 -0.8122  2.7438  2.2850
 1295TIP3   OH225375   2.689   1.397   4.889  0.2383 -0.4475 -0.1182
 1295TIP3    H125376   2.730   1.320   4.849  0.2625 -0.7258  0.4344
 1295TIP3    H225377   2.595   1.384   4.872  0.3657  0.3063 -1.5862
 1296TIP3   OH225378   1.321   0.314   0.349 -0.0370  0.2952 -0.0338
 1296TIP3    H125379   1.413   0.289   0.359  0.1569  1.5337  1.6608
 1296TIP3    H225380   1.322   0.374   0.274  0.7169  1.0505  0.5589
 1297TIP3   OH225381   4.417   0.185  16.891  0.3398 -0.0681 -0.4189
 1297TIP3    H125382   4.496   0.140  16.860 -1.1245 -2.2382 -1.3084
 1297TIP3    H225383   4.418   0.171  16.985  0.0138 -1.9458 -0.6516
 1298TIP3   OH225384   3.802   2.574   3.473 -0.0971 -0.0512 -0.2405
 1298TIP3    H125385   3.736   2.542   3.535  0.1325  0.3989  0.2468
 1298TIP3    H225386   3.874   2.605   3.529  0.3313 -0.1187 -0.7526
 1299TIP3   OH225387   4.620   4.016   1.895 -0.3973 -0.0439 -0.1748
 1299TIP3    H125388   4.668   4.091   1.930  0.7045 -1.6211  1.9811
 1299TIP3    H225389   4.687   3.948   1.886 -1.8791 -1.7781  1.2053
 1300TIP3   OH225390   5.797   0.635  11.034 -0.1896 -0.6014  0.2995
 1300TIP3    H125391   5.848   0.568  10.988  1.2836  1.6148 -1.5341
 1300TIP3    H225392   5.738   0.670  10.967 -0.4135  0.4158  1.0037
 1301TIP3   OH225393   6.718   1.869   5.944  0.0763  0.0884  0.3849
 1301TIP3    H125394   6.642   1.880   5.887  0.5874  0.9597 -0.1645
 1301TIP3    H225395   6.767   1.951   5.933  1.6246 -0.8567 -0.0917
 1302TIP3   OH225396   2.729   4.547  11.120  0.3561  0.1152 -0.5871
 1302TIP3    H125397   2.663   4.479  11.105  0.4530  0.1426 -1.1813
 1302TIP3    H225398   2.812   4.499  11.125  0.3401  0.1215 -0.2888
 1303TIP3   OH225399   4.414   6.031  15.354 -0.3348 -0.0402  0.3022
 1303TIP3    H125400   4.350   5.970  15.317  0.9780 -2.0273  1.1277
 1303TIP3    H225401   4.438   6.088  15.280 -1.5359 -0.5706 -0.5291
 1304TIP3   OH225402   1.180   6.447   1.962 -0.5757 -0.6342  0.5135
 1304TIP3    H125403   1.231   6.395   2.024  1.0025 -1.7282 -1.5907
 1304TIP3    H225404   1.167   6.390   1.887 -1.1943  1.0832 -0.7656
 1305TIP3   OH225405   1.171   3.588  14.387 -0.3789  0.2985 -0.1935
 1305TIP3    H125406   1.136   3.676  14.404  1.6578  0.8747  1.3778
 1305TIP3    H225407   1.126   3.560  14.308 -2.1767  2.1429  0.0728
 1306TIP3   OH225408   3.388   0.656  10.694 -0.4764 -0.1325  0.2679
 1306TIP3    H125409   3.358   0.569  10.720  0.6176 -1.0363 -1.3037
 1306TIP3    H225410   3.308   0.702  10.668 -0.8538 -1.7059 -1.6859
 1307TIP3   OH225411   4.407   5.415  13.317  0.2218  0.0329  0.4964
 1307TIP3    H125412   4.321   5.421  13.274 -0.1909  1.0545  1.4109
 1307TIP3    H225413   4.421   5.321  13.329 -0.7438 -0.1579  0.2490
 1308TIP3   OH225414   4.348   4.447  14.140  0.2972 -0.0608  0.2316
 1308TIP3    H125415   4.268   4.435  14.088  1.9316  0.3740 -2.6294
 1308TIP3    H225416   4.336   4.531  14.184 -0.4899  0.4190 -0.8520
 1309TIP3   OH225417   1.793   5.235   0.687 -0.1948  0.2239  0.1103
 1309TIP3    H125418   1.780   5.327   0.710 -1.1100 -0.6116  3.4487
 1309TIP3    H225419   1.728   5.187   0.738  1.2193 -2.4158 -0.3455
 1310TIP3   OH225420   0.603   0.057  11.882 -0.1010  0.5517  0.0634
 1310TIP3    H125421   0.637  -0.030  11.904 -0.3013  0.8426  1.6951
 1310TIP3    H225422   0.681   0.111  11.871  0.0112  0.3564 -0.1116
 1311TIP3   OH225423   6.179   3.097   0.102  0.2806 -0.4192 -0.6533
 1311TIP3    H125424   6.160   3.010   0.068 -2.6723 -0.1223 -0.0047
 1311TIP3    H225425   6.144   3.157   0.037  2.1208  0.3434 -1.0049
 1312TIP3   OH225426   4.478   0.837  16.444  1.0003  0.2631 -0.1817
 1312TIP3    H125427   4.520   0.887  16.514  2.5154  0.6286 -1.2853
 1312TIP3    H225428   4.385   0.842  16.463  1.2076  2.2719  0.5556
 1313TIP3   OH225429   0.848   6.377  13.543  0.1541  0.9499 -0.1918
 1313TIP3    H125430   0.865   6.470  13.558  1.4275  0.9467 -1.4593
 1313TIP3    H225431   0.854   6.366  13.448  0.5534 -0.5267 -0.0232
 1314TIP3   OH225432   0.869   5.845   0.811 -0.0576  0.3805  0.5181
 1314TIP3    H125433   0.848   5.832   0.903  1.3765 -0.5080  0.7421
 1314TIP3    H225434   0.899   5.936   0.806 -3.0753  1.4786  0.3038
 1315TIP3   OH225435   5.073   2.705  13.909 -0.7168  0.1108  0.6085
 1315TIP3    H125436   5.092   2.612  13.920 -0.5581  0.1741  0.8649
 1315TIP3    H225437   5.081   2.742  13.997  0.9931  0.7026  0.2380
 1316TIP3   OH225438   4.693   3.711  14.292 -0.0749  0.3858  0.1767
 1316TIP3    H125439   4.675   3.775  14.223  1.7701 -0.3678 -1.0737
 1316TIP3    H225440   4.778   3.736  14.327  1.1713 -1.8879 -1.0245
 1317TIP3   OH225441   0.352   4.951   2.212  0.1183 -0.2657  0.7394
 1317TIP3    H125442   0.310   5.003   2.280 -1.3449 -4.2710  3.2706
 1317TIP3    H225443   0.280   4.902   2.172  1.2585  0.3029 -2.2193
 1318TIP3   OH225444   2.154   4.824  11.292 -0.3077  0.3688 -0.1512
 1318TIP3    H125445   2.062   4.828  11.318 -0.1654 -2.1281  1.0007
 1318TIP3    H225446   2.151   4.823  11.196 -1.5902 -0.8592 -0.1372
 1319TIP3   OH225447   0.479   2.241   5.505  0.0197  0.1138  0.1550
 1319TIP3    H125448   0.463   2.292   5.426  3.0402 -0.0874 -0.6852
 1319TIP3    H225449   0.460   2.150   5.480  0.5833  0.1018 -0.2366
 1320TIP3   OH225450   3.723   1.205  16.721  0.2012 -0.2042 -0.2758
 1320TIP3    H125451   3.796   1.224  16.662 -0.0012  0.3716 -0.3528
 1320TIP3    H225452   3.735   1.267  16.793 -0.3362  0.0533 -0.4017
 1321TIP3   OH225453   1.213   3.817   5.776  0.0540  0.1243  0.3772
 1321TIP3    H125454   1.197   3.756   5.848 -1.3617  0.3542  0.2738
 1321TIP3    H225455   1.301   3.793   5.745 -1.7099 -4.5299 -2.1309
 1322TIP3   OH225456   6.281   6.820   1.288 -0.1120 -0.2160 -0.0184
 1322TIP3    H125457   6.316   6.857   1.207  0.2807  2.0237  1.1038
 1322TIP3    H225458   6.221   6.751   1.259  2.8223 -2.1621 -2.0944
 1323TIP3   OH225459   0.908   0.043   6.273 -0.2787  0.3930 -0.1980
 1323TIP3    H125460   0.813   0.033   6.264 -0.1616  0.1752 -1.5358
 1323TIP3    H225461   0.941  -0.047   6.277  0.0168  0.3798 -2.0374
 1324TIP3   OH225462   2.360   2.422  13.178  0.2808  0.1370  0.1933
 1324TIP3    H125463   2.380   2.329  13.189 -0.9503  0.0122  1.7732
 1324TIP3    H225464   2.363   2.436  13.083 -0.3600 -1.7129 -0.1406
 1325TIP3   OH225465   6.049   5.304   1.831  0.5357  0.0364 -0.6734
 1325TIP3    H125466   5.991   5.261   1.768  0.5538 -2.0252  0.6083
 1325TIP3    H225467   5.997   5.375   1.868 -0.9647 -1.3322 -0.0497
 1326TIP3   OH225468   1.107   5.811   1.730  0.5719 -0.7910  0.6426
 1326TIP3    H125469   1.034   5.765   1.773 -1.0698 -0.9761 -2.1065
 1326TIP3    H225470   1.064   5.874   1.672  2.6138 -0.7817 -0.9554
 1327TIP3   OH225471   5.540   6.392   2.087  0.6525 -0.0907 -0.5490
 1327TIP3    H125472   5.494   6.475   2.078 -1.7983 -1.3133 -0.0466
 1327TIP3    H225473   5.531   6.350   2.001  1.7788  0.0898 -0.7668
 1328TIP3   OH225474   4.694   0.962  11.277 -0.2189  0.5154  0.3137
 1328TIP3    H125475   4.725   0.954  11.367  2.3887  1.7530 -0.3704
 1328TIP3    H225476   4.646   1.045  11.275 -0.4043  0.4154  0.5891
 1329TIP3   OH225477   4.751   5.145   4.912  0.0479 -0.1907  0.0211
 1329TIP3    H125478   4.727   5.053   4.919 -1.5247  0.2484  1.1261
 1329TIP3    H225479   4.833   5.145   4.864 -1.0945 -2.0024 -2.1473
 1330TIP3   OH225480   1.155   1.289   2.179 -0.5484  0.5092 -0.6279
 1330TIP3    H125481   1.233   1.299   2.234 -1.1325 -0.2974  0.3872
 1330TIP3    H225482   1.135   1.377   2.148  0.7348  0.7306 -0.8658
 1331TIP3   OH225483   5.146   0.612   1.526 -0.2303  0.2654 -0.0585
 1331TIP3    H125484   5.208   0.681   1.502 -0.2990 -0.5118 -2.7711
 1331TIP3    H225485   5.199   0.550   1.577  0.4202  1.1342  0.3468
 1332TIP3   OH225486   2.791   3.681   4.793 -0.0729 -0.0995 -0.1071
 1332TIP3    H125487   2.786   3.757   4.736  2.1535 -0.7210 -1.2553
 1332TIP3    H225488   2.829   3.714   4.874  2.1393 -0.1272 -1.0641
 1333TIP3   OH225489   3.568   3.382  12.518 -0.2044 -0.4660 -0.0388
 1333TIP3    H125490   3.574   3.470  12.554 -1.0975 -0.7302  0.8100
 1333TIP3    H225491   3.659   3.351  12.515  0.0508  0.2418  0.2590
 1334TIP3   OH225492   0.607   6.365  11.651  0.1490 -0.4460  0.3279
 1334TIP3    H125493   0.699   6.389  11.655 -0.0928  0.4416  0.8290
 1334TIP3    H225494   0.560   6.449  11.658 -0.7097 -0.9700  1.1148
 1335TIP3   OH225495   5.428   2.201  13.057 -0.8626 -0.1117  0.1827
 1335TIP3    H125496   5.470   2.187  12.972  0.0511 -0.5645  0.6954
 1335TIP3    H225497   5.487   2.161  13.121 -1.0850  0.9942  1.1324
 1336TIP3   OH225498   5.789   3.616  15.406 -0.4688  0.5682  0.2986
 1336TIP3    H125499   5.711   3.585  15.362 -0.7418  0.5227  0.8080
 1336TIP3    H225500   5.811   3.698  15.362  0.1091 -0.1951 -0.8807
 1337TIP3   OH225501   4.952   5.574  14.936  0.0033  0.2168  0.0042
 1337TIP3    H125502   4.889   5.533  14.877  0.4786  0.2371 -0.5341
 1337TIP3    H225503   4.925   5.547  15.023  0.4383 -1.4541 -0.3448
 1338TIP3   OH225504   0.541   5.274  16.737 -0.0666  0.8273  0.0196
 1338TIP3    H125505   0.524   5.365  16.763 -0.4215  1.1058 -1.1435
 1338TIP3    H225506   0.625   5.253  16.779 -0.6243  1.2255  1.4057
 1339TIP3   OH225507   2.082   0.735  12.529  0.1075  0.1698  0.1888
 1339TIP3    H125508   2.144   0.665  12.509 -0.8190 -0.3003 -1.1341
 1339TIP3    H225509   2.005   0.691  12.564 -0.1590  0.5948  0.1493
 1340TIP3   OH225510   6.160   0.915  16.805 -0.2013 -0.0687  0.3756
 1340TIP3    H125511   6.245   0.897  16.766 -1.2311 -2.0192 -1.1471
 1340TIP3    H225512   6.154   0.857  16.880  0.2397  0.9309  1.2155
 1341TIP3   OH225513   2.640   6.626  14.462 -0.2402 -0.2187  0.3355
 1341TIP3    H125514   2.559   6.636  14.511 -0.9976 -1.1785 -0.6394
 1341TIP3    H225515   2.695   6.699  14.490 -1.4813  0.5240  0.9413
 1342TIP3   OH225516   4.520   0.656   2.734  0.1259 -0.1178  0.3975
 1342TIP3    H125517   4.579   0.581   2.728  0.6637  0.3776 -1.4345
 1342TIP3    H225518   4.502   0.666   2.827  2.2855 -0.7985  0.9505
 1343TIP3   OH225519   1.678   1.587   1.742 -0.2872  0.7028 -0.1880
 1343TIP3    H125520   1.586   1.568   1.725  0.0993 -0.4407 -1.1939
 1343TIP3    H225521   1.677   1.664   1.798 -1.9169 -0.5006  1.5592
 1344TIP3   OH225522   0.444   2.229   0.309  0.7260  0.0350  0.0703
 1344TIP3    H125523   0.455   2.179   0.229 -0.7873  0.5202 -0.4724
 1344TIP3    H225524   0.381   2.179   0.361  0.8571  0.2838  0.4749
 1345TIP3   OH225525   1.898   3.325  14.079  0.0268  0.1402  0.0583
 1345TIP3    H125526   1.815   3.330  14.033  0.0737 -1.4174 -0.2291
 1345TIP3    H225527   1.875   3.333  14.172 -0.4637 -0.4003 -0.0124
 1346TIP3   OH225528   5.859   2.256  16.304 -0.1034  0.0591 -0.2629
 1346TIP3    H125529   5.808   2.252  16.386  2.6341 -1.5942  1.5278
 1346TIP3    H225530   5.814   2.323  16.252 -3.5864 -0.7046  1.4105
 1347TIP3   OH225531   6.734   0.040  15.864  0.3471 -0.5691  0.2571
 1347TIP3    H125532   6.687   0.123  15.869  2.9646  0.9348  2.8339
 1347TIP3    H225533   6.707  -0.008  15.942  0.7614 -1.0227  0.1309
 1348TIP3   OH225534   0.259   2.290   4.034 -0.1369 -0.4655 -0.4643
 1348TIP3    H125535   0.247   2.201   4.002  1.7513 -0.5984 -0.9491
 1348TIP3    H225536   0.217   2.291   4.120 -1.5237 -1.3539 -1.0962
 1349TIP3   OH225537   4.507   5.088   5.283 -0.1507 -0.5214  1.2129
 1349TIP3    H125538   4.566   5.141   5.229  0.7573  0.1143  2.7567
 1349TIP3    H225539   4.501   5.004   5.238  1.5830 -0.4415  0.7602
 1350TIP3   OH225540   4.384   5.013  10.919 -0.0281 -0.2295  0.2831
 1350TIP3    H125541   4.366   4.934  10.969 -0.4623  0.1815  0.7805
 1350TIP3    H225542   4.420   4.981  10.836 -0.4171 -0.9525  0.3857
 1351TIP3   OH225543   6.078   0.497  15.389  0.1313 -0.6714  0.2515
 1351TIP3    H125544   6.117   0.425  15.339 -0.2962 -1.9998  1.7424
 1351TIP3    H225545   6.145   0.565  15.389  0.2879 -0.7603 -1.7571
 1352TIP3   OH225546   4.843   1.416  11.602 -0.5074  0.6130 -0.4500
 1352TIP3    H125547   4.910   1.482  11.584 -0.1299  0.1972 -0.6046
 1352TIP3    H225548   4.863   1.385  11.690 -1.2214  1.3280 -0.0326
 1353TIP3   OH225549   6.703   5.016   1.136  0.4914  0.0617  0.0075
 1353TIP3    H125550   6.725   4.925   1.158 -0.7914 -0.7910 -1.9746
 1353TIP3    H225551   6.765   5.041   1.067  1.5393  1.1267  1.2676
 1354TIP3   OH225552   0.749   6.820   6.607  0.5730  0.3649 -0.3782
 1354TIP3    H125553   0.772   6.784   6.693  3.2210 -1.1588 -1.6024
 1354TIP3    H225554   0.700   6.899   6.627  2.3369  0.8615  2.5791
 1355TIP3   OH225555   3.596   5.610  16.094 -0.2444  0.1507  0.1943
 1355TIP3    H125556   3.505   5.582  16.092 -0.6330  1.3231  0.3518
 1355TIP3    H225557   3.608   5.658  16.012  0.1707  0.1688  0.2623
 1356TIP3   OH225558   6.047   0.705  12.169  0.1003  0.0017  0.5025
 1356TIP3    H125559   6.045   0.666  12.256 -0.5941  1.0645  0.9772
 1356TIP3    H225560   5.966   0.757  12.163 -0.1299 -0.4574 -0.9665
 1357TIP3   OH225561   1.701   0.992  12.527 -0.1041  0.0081  0.4355
 1357TIP3    H125562   1.713   0.921  12.463 -1.5293  0.1919 -0.0739
 1357TIP3    H225563   1.789   1.010  12.560  0.3708 -1.5644  0.1082
 1358TIP3   OH225564   5.628   5.662   3.834 -0.0277 -0.1690 -0.4842
 1358TIP3    H125565   5.632   5.575   3.873  0.5247  0.6528  1.3791
 1358TIP3    H225566   5.550   5.659   3.778  0.3016 -2.0075 -0.8991
 1359TIP3   OH225567   5.130   6.013  12.015  0.1331  0.0965 -0.3958
 1359TIP3    H125568   5.172   5.950  11.956 -0.6634 -1.6989  0.8439
 1359TIP3    H225569   5.193   6.084  12.023  1.6085 -1.0825 -0.9817
 1360TIP3   OH225570   3.817   4.047   3.075  0.3420 -0.0038  0.0754
 1360TIP3    H125571   3.906   4.028   3.047  1.3831  0.5219  2.7068
 1360TIP3    H225572   3.774   3.962   3.081  0.2785 -0.1764 -2.2325
 1361TIP3   OH225573   5.757   6.453  10.801 -0.0336  0.4926  0.3092
 1361TIP3    H125574   5.663   6.474  10.794  0.2546  1.6146 -0.5300
 1361TIP3    H225575   5.793   6.479  10.716  1.1088  0.4182  0.7602
 1362TIP3   OH225576   0.610   0.848   4.957 -0.7536 -0.3015 -0.1113
 1362TIP3    H125577   0.623   0.869   4.865  0.9949 -2.7222 -0.5022
 1362TIP3    H225578   0.550   0.774   4.957 -0.1173 -0.8379  0.6035
 1363TIP3   OH225579   2.553   1.182  12.952  0.2717  0.4534 -0.7502
 1363TIP3    H125580   2.484   1.122  12.925  0.4427  0.0708 -0.3539
 1363TIP3    H225581   2.630   1.126  12.964  0.0409  0.4823  1.1997
 1364TIP3   OH225582   6.098   1.602   0.250 -0.1759  0.3631 -0.0530
 1364TIP3    H125583   6.111   1.697   0.255 -0.8018  0.5201 -1.0206
 1364TIP3    H225584   6.167   1.565   0.305 -0.1823  1.3888  0.6828
 1365TIP3   OH225585   5.529   5.176  10.380  0.4925 -0.0765 -0.4779
 1365TIP3    H125586   5.535   5.222  10.464  0.6753  1.0316 -1.0825
 1365TIP3    H225587   5.520   5.084  10.404  0.3519  0.2424  0.7598
 1366TIP3   OH225588   4.168   2.961   2.610  0.3542 -0.6243  0.1509
 1366TIP3    H125589   4.194   2.910   2.533 -0.5695 -0.4412 -0.2891
 1366TIP3    H225590   4.110   3.029   2.576 -1.0867 -1.2975  1.1597
 1367TIP3   OH225591   1.842   2.089   2.679 -0.3027 -0.6191 -0.2939
 1367TIP3    H125592   1.838   2.142   2.599  1.3870  0.8705  0.5370
 1367TIP3    H225593   1.916   2.030   2.664  1.9953  1.6434  1.1721
 1368TIP3   OH225594   0.102   0.544  11.553 -0.0671 -0.5204  0.5418
 1368TIP3    H125595   0.032   0.564  11.490  1.6898  2.3937 -0.7206
 1368TIP3    H225596   0.078   0.594  11.631  0.6910  0.7501 -0.0084
 1369TIP3   OH225597   5.465   6.061  12.774 -0.2257  0.1023 -0.2575
 1369TIP3    H125598   5.400   6.007  12.819  0.6661  0.4287  1.5117
 1369TIP3    H225599   5.500   6.004  12.705  0.1270 -1.3325  1.0522
 1370TIP3   OH225600   0.761   1.645   3.000 -0.0207 -0.4487  0.2419
 1370TIP3    H125601   0.754   1.687   2.914  0.7986 -0.8651 -0.0405
 1370TIP3    H225602   0.840   1.592   2.994  2.3931  2.5413  2.5343
 1371TIP3   OH225603   1.322   6.318   6.493 -0.2771  0.0986  0.5497
 1371TIP3    H125604   1.242   6.368   6.473 -1.2640 -1.6986 -0.1645
 1371TIP3    H225605   1.291   6.230   6.512  1.4490 -0.3318  1.5656
 1372TIP3   OH225606   3.534   0.499   5.383  0.0189  0.1672  0.4467
 1372TIP3    H125607   3.561   0.463   5.299  0.3959 -0.3266  0.7810
 1372TIP3    H225608   3.612   0.496   5.438 -0.5624 -0.8119  1.2603
 1373TIP3   OH225609   4.500   1.788   2.398  0.3196 -0.0536 -0.1361
 1373TIP3    H125610   4.461   1.873   2.377 -0.4018 -0.4992 -0.6381
 1373TIP3    H225611   4.437   1.724   2.365 -0.2307 -0.8047  2.1689
 1374TIP3   OH225612   3.417   2.005  12.594 -0.3109 -0.0368 -0.3019
 1374TIP3    H125613   3.495   2.053  12.568 -0.3585  0.4785  0.4663
 1374TIP3    H225614   3.391   1.956  12.516  0.2722  0.4706 -0.8201
 1375TIP3   OH225615   2.865   1.382   5.953  0.5126 -0.1124  0.2616
 1375TIP3    H125616   2.878   1.350   6.042  0.6365  1.9103  1.0443
 1375TIP3    H225617   2.776   1.418   5.953  0.5182 -0.0749 -0.4194
 1376TIP3   OH225618   3.025   3.764   3.823  0.1046 -0.2853 -0.0794
 1376TIP3    H125619   2.945   3.772   3.876 -0.3716 -2.0644 -0.4399
 1376TIP3    H225620   3.025   3.672   3.795  1.1086  0.2488 -1.9614
 1377TIP3   OH225621   0.495   6.051   5.565  0.3223 -0.1040  0.4184
 1377TIP3    H125622   0.492   6.110   5.490  0.5224  1.7480  1.7660
 1377TIP3    H225623   0.425   5.988   5.550  0.1005  0.4726 -1.1029
 1378TIP3   OH225624   6.000   0.133   2.249 -0.2863  0.3477 -0.0408
 1378TIP3    H125625   5.941   0.152   2.321 -1.0529 -1.2247 -0.2038
 1378TIP3    H225626   6.049   0.056   2.278 -1.0170 -0.6682 -1.3927
 1379TIP3   OH225627   0.704   0.926  12.841  0.0149  0.8585  0.2249
 1379TIP3    H125628   0.655   0.947  12.762 -0.0948  0.9256  0.3115
 1379TIP3    H225629   0.792   0.959  12.824  0.9645 -2.0576 -1.2569
 1380TIP3   OH225630   3.451   4.833   2.874  0.2069  0.4333 -0.5402
 1380TIP3    H125631   3.359   4.855   2.885  0.3487  0.7673  0.0218
 1380TIP3    H225632   3.451   4.751   2.825 -0.4783 -1.2201  2.0383
 1381TIP3   OH225633   5.524   2.908   0.811  1.3015 -0.0764 -0.1558
 1381TIP3    H125634   5.431   2.913   0.791  1.5162 -0.5196 -1.4067
 1381TIP3    H225635   5.532   2.940   0.901  0.1511  1.5465 -0.5852
 1382TIP3   OH225636   4.294   5.945  15.767  0.2249  0.7044  0.1546
 1382TIP3    H125637   4.238   6.019  15.788 -0.4563 -0.4061  2.5728
 1382TIP3    H225638   4.249   5.902  15.693 -0.6442  1.3523  0.2888
 1383TIP3   OH225639   4.652   1.199  12.152  0.7697  0.0256  0.0269
 1383TIP3    H125640   4.718   1.246  12.101  0.4076  1.0619  0.4871
 1383TIP3    H225641   4.630   1.123  12.098 -1.1573  2.1371 -2.4610
 1384TIP3   OH225642   2.160   4.640   0.528 -0.0098 -0.2644 -0.3252
 1384TIP3    H125643   2.138   4.555   0.566 -0.7335  0.4086  0.8066
 1384TIP3    H225644   2.144   4.629   0.434  0.9549 -1.6916 -0.3607
 1385TIP3   OH225645   5.794   0.926   4.713 -0.0048  0.2514  0.0548
 1385TIP3    H125646   5.738   0.877   4.774 -0.9226  1.8601  0.5466
 1385TIP3    H225647   5.747   0.923   4.630  1.2976 -2.0351 -0.7128
 1386TIP3   OH225648   5.342   5.763  17.173 -0.2336  0.3543  0.2132
 1386TIP3    H125649   5.249   5.780  17.154 -0.1855 -0.6948 -1.1882
 1386TIP3    H225650   5.368   5.834  17.231 -1.4481  1.7066 -0.8087
 1387TIP3   OH225651   1.963   1.023  16.200 -0.2249 -0.4770  0.3389
 1387TIP3    H125652   1.953   1.074  16.119  0.5516 -2.0270 -0.7799
 1387TIP3    H225653   1.985   0.935  16.170 -1.1138 -1.3992  2.2215
 1388TIP3   OH225654   5.920   0.482   5.621  0.0145 -0.2291  0.0813
 1388TIP3    H125655   5.927   0.567   5.664  0.7930  0.3167 -1.0795
 1388TIP3    H225656   6.001   0.437   5.643  0.3036 -0.0455 -0.5561
 1389TIP3   OH225657   6.625   6.204   5.463  1.0041  0.0125 -0.2756
 1389TIP3    H125658   6.637   6.157   5.380 -0.7122 -0.5648 -0.2337
 1389TIP3    H225659   6.549   6.162   5.503  1.4981  0.6313  1.3629
 1390TIP3   OH225660   0.176   6.398  15.027 -0.1636 -0.0483 -0.1599
 1390TIP3    H125661   0.194   6.480  14.980  0.0472 -0.3578 -0.6334
 1390TIP3    H225662   0.086   6.377  15.004 -0.6352  0.6805  0.9446
 1391TIP3   OH225663   0.466   2.713  15.081  0.0073  0.1231  0.4924
 1391TIP3    H125664   0.464   2.804  15.109  0.5596  0.1523  0.4494
 1391TIP3    H225665   0.503   2.715  14.993 -1.1353 -0.0302 -0.0016
 1392TIP3   OH225666   5.519   4.338  14.181 -0.5519  0.3678 -0.0046
 1392TIP3    H125667   5.480   4.382  14.256  0.2812  1.4181 -0.1667
 1392TIP3    H225668   5.445   4.300  14.133 -1.1887  0.7452  0.6726
 1393TIP3   OH225669   6.218   3.557  13.631 -0.1474 -0.9381  0.4206
 1393TIP3    H125670   6.159   3.517  13.694  0.7038 -0.7029  1.3940
 1393TIP3    H225671   6.189   3.648  13.624 -1.2080 -1.3336 -0.7361
 1394TIP3   OH225672   6.239   2.021   1.828  0.3962  0.6411 -0.1101
 1394TIP3    H125673   6.323   2.061   1.851 -0.2483  1.1587  1.4371
 1394TIP3    H225674   6.260   1.964   1.754  1.7153  2.3374 -1.1230
 1395TIP3   OH225675   6.489   6.042  16.308 -0.2177  0.1400  0.3109
 1395TIP3    H125676   6.575   6.083  16.294 -1.5807  2.8716 -0.7012
 1395TIP3    H225677   6.452   6.032  16.220  0.5089 -4.8283  0.2807
 1396TIP3   OH225678   0.550   3.378  12.956 -0.0916  0.3490 -0.3552
 1396TIP3    H125679   0.553   3.304  12.895 -0.6942  2.1599 -2.7253
 1396TIP3    H225680   0.524   3.452  12.902  1.2411  2.4858  1.7759
 1397TIP3   OH225681   1.104   3.634  17.203 -0.2666 -0.1556 -0.3369
 1397TIP3    H125682   1.180   3.590  17.165  0.5999  0.1847  0.9171
 1397TIP3    H225683   1.112   3.618  17.297 -0.5357  1.7175  0.0479
 1398TIP3   OH225684   5.005   0.616   3.621 -0.3040 -0.1352  0.1573
 1398TIP3    H125685   4.976   0.529   3.650  0.8004 -0.2649  0.9569
 1398TIP3    H225686   4.927   0.671   3.629 -0.8743 -0.9201  0.1840
 1399TIP3   OH225687   5.713   2.908   1.724  0.3995  0.3503 -0.2688
 1399TIP3    H125688   5.644   2.974   1.719  0.5947  0.5305 -0.6424
 1399TIP3    H225689   5.774   2.932   1.654 -0.1632 -0.9740 -1.2530
 1400TIP3   OH225690   1.162   6.254  13.512 -0.2145 -0.6536  0.4403
 1400TIP3    H125691   1.070   6.257  13.538 -0.0370 -0.4524  1.0623
 1400TIP3    H225692   1.160   6.234  13.419 -0.8877 -0.7174  0.4646
 1401TIP3   OH225693   6.561   2.353  14.045  0.4012 -0.6925  0.6453
 1401TIP3    H125694   6.491   2.367  13.981 -0.3435 -0.4339  1.5040
 1401TIP3    H225695   6.637   2.327  13.992 -0.4360 -1.3449 -0.2643
 1402TIP3   OH225696   3.921   3.185   0.113 -0.3469  0.1098  0.8002
 1402TIP3    H125697   4.003   3.223   0.079 -0.6189  0.0599  0.0650
 1402TIP3    H225698   3.924   3.094   0.085 -1.3831  0.4846 -0.6553
 1403TIP3   OH225699   0.111   1.158   3.604  0.1230 -0.5412 -0.4527
 1403TIP3    H125700   0.091   1.151   3.511 -1.9410  1.5173 -0.2678
 1403TIP3    H225701   0.027   1.178   3.645  1.0218 -1.1329  1.8368
 1404TIP3   OH225702   5.518   3.117  10.840  0.1332 -0.0809 -0.8945
 1404TIP3    H125703   5.539   3.069  10.760  1.7586 -2.9074  1.0382
 1404TIP3    H225704   5.423   3.116  10.844  0.0083  0.2626 -2.8372
 1405TIP3   OH225705   1.748   1.118  16.363  0.4292  0.0671 -0.1446
 1405TIP3    H125706   1.765   1.212  16.364  1.5993 -0.1388  1.1677
 1405TIP3    H225707   1.823   1.080  16.317 -0.0641 -0.2321 -0.7189
 1406TIP3   OH225708   4.379   5.544  16.083  0.2518  0.3291  0.6153
 1406TIP3    H125709   4.375   5.564  15.990  3.2299  0.2806  0.3937
 1406TIP3    H225710   4.409   5.625  16.124  1.3837 -0.3571  1.1824
 1407TIP3   OH225711   5.422   2.993   5.789 -0.2024  1.1552 -0.4302
 1407TIP3    H125712   5.462   3.073   5.822  1.9512 -0.1057  0.2000
 1407TIP3    H225713   5.422   3.003   5.694  0.0970  1.8802 -0.3608
 1408TIP3   OH225714   3.967   3.991  15.896  0.2937 -0.2513 -0.2789
 1408TIP3    H125715   4.033   3.940  15.942  1.7231  0.8340 -1.0394
 1408TIP3    H225716   3.916   4.032  15.965  0.6360 -0.8188  0.3277
 1409TIP3   OH225717   4.978   5.061  13.815 -0.1554  0.3283  0.1632
 1409TIP3    H125718   5.029   5.116  13.756 -1.0288  1.6925  0.6422
 1409TIP3    H225719   4.912   5.020  13.759 -0.5666  1.0999  0.0781
 1410TIP3   OH225720   3.596   5.781  12.438 -0.4188  0.4222  0.1846
 1410TIP3    H125721   3.575   5.844  12.368  0.4982  0.2725 -0.2434
 1410TIP3    H225722   3.691   5.773  12.434 -0.3355  0.5758  1.6153
 1411TIP3   OH225723   5.251   5.979  12.382  1.1265 -0.7118 -0.3298
 1411TIP3    H125724   5.166   5.937  12.367  0.0696  0.9782  0.6851
 1411TIP3    H225725   5.285   5.936  12.460  0.0311  0.2576  0.7284
 1412TIP3   OH225726   2.318   2.198   1.475  0.1965 -0.7385 -0.3142
 1412TIP3    H125727   2.410   2.210   1.453  0.4188  1.3560  1.4143
 1412TIP3    H225728   2.318   2.140   1.551  0.3222  0.9217  1.0166
 1413TIP3   OH225729   1.469   1.602  12.539  0.9220  0.6653  0.0528
 1413TIP3    H125730   1.483   1.691  12.507  2.2338  1.4171  2.4601
 1413TIP3    H225731   1.543   1.584  12.596 -0.7444 -0.8567  1.9281
 1414TIP3   OH225732   6.638   4.499   4.637 -0.0533  0.7731  0.3431
 1414TIP3    H125733   6.712   4.439   4.644  2.0805  2.9529 -1.8383
 1414TIP3    H225734   6.635   4.543   4.722  1.9237  1.4212  0.1278
 1415TIP3   OH225735   2.003   5.585  13.718  0.3861 -0.8714  0.3627
 1415TIP3    H125736   2.047   5.506  13.686  1.0435 -0.4693  0.2631
 1415TIP3    H225737   2.061   5.657  13.695 -0.4428 -0.2959  0.0191
 1416TIP3   OH225738   6.597   3.441   4.210 -0.0517 -0.5500 -0.4558
 1416TIP3    H125739   6.646   3.386   4.271  0.0902 -0.7120 -0.7095
 1416TIP3    H225740   6.505   3.424   4.229 -0.0267  0.3599  0.5674
 1417TIP3   OH225741   3.839   6.048  10.928 -0.2920 -0.5782  0.1882
 1417TIP3    H125742   3.836   6.133  10.885 -1.2928 -0.3327  0.7291
 1417TIP3    H225743   3.917   6.051  10.984 -1.2591  0.6238  1.5138
 1418TIP3   OH225744   1.145   6.724  14.799 -0.0847 -0.1550  0.4835
 1418TIP3    H125745   1.223   6.691  14.843  2.4645  3.0942 -1.1559
 1418TIP3    H225746   1.139   6.673  14.718 -0.9679 -1.7718  1.5144
 1419TIP3   OH225747   2.865   1.183  13.121  0.6981  0.3121 -0.4338
 1419TIP3    H125748   2.883   1.111  13.181  1.7092  1.0455  0.1836
 1419TIP3    H225749   2.834   1.254  13.177  0.2094  0.5289 -0.9687
 1420TIP3   OH225750   6.281   3.677  12.217 -0.0685 -0.0677  0.1448
 1420TIP3    H125751   6.206   3.717  12.261 -1.3367 -2.6761  0.4931
 1420TIP3    H225752   6.252   3.660  12.128  0.4603 -0.2184 -0.0055
 1421TIP3   OH225753   6.668   2.260  12.536  0.2155  0.2305  0.1638
 1421TIP3    H125754   6.674   2.182  12.482 -0.4281 -0.7215  1.4013
 1421TIP3    H225755   6.705   2.330  12.483  4.4908 -1.5733  0.4153
 1422TIP3   OH225756   4.288   1.236  13.989  0.0119  0.1265  0.5910
 1422TIP3    H125757   4.256   1.191  13.911  1.9031 -0.0188 -0.1767
 1422TIP3    H225758   4.374   1.196  14.005  0.1069  0.8862  2.1358
 1423TIP3   OH225759   5.593   6.191   1.578 -0.0615  0.6389  0.5926
 1423TIP3    H125760   5.632   6.232   1.500  0.6250 -1.3174 -0.1650
 1423TIP3    H225761   5.668   6.165   1.631 -0.5086  1.1373  1.4967
 1424TIP3   OH225762   2.857   1.109  12.783 -0.0804 -0.4469 -0.0593
 1424TIP3    H125763   2.929   1.140  12.838  0.1114 -1.2629  0.1576
 1424TIP3    H225764   2.841   1.181  12.722 -1.2752  1.1162  1.9789
 1425TIP3   OH225765   1.725   2.309  15.917 -0.4791 -0.4962  0.0838
 1425TIP3    H125766   1.639   2.279  15.944 -0.6457  0.4799  0.6860
 1425TIP3    H225767   1.775   2.316  15.999 -0.5614  1.1773  0.0257
 1426TIP3   OH225768   4.868   6.791   6.069  0.0872  0.2596  0.1226
 1426TIP3    H125769   4.793   6.739   6.098 -0.9431  1.0295 -1.0232
 1426TIP3    H225770   4.853   6.877   6.108  0.4126  0.3981 -0.0569
 1427TIP3   OH225771   1.736   0.039   6.366 -0.2645  0.8193 -0.0792
 1427TIP3    H125772   1.816   0.043   6.419 -1.7914 -0.2568  2.5473
 1427TIP3    H225773   1.680   0.107   6.404 -1.1647  0.4895 -0.8049
 1428TIP3   OH225774   5.610   1.921  15.611 -0.7619  0.5434 -0.6861
 1428TIP3    H125775   5.545   1.991  15.609 -0.7456  0.5345 -2.2905
 1428TIP3    H225776   5.562   1.846  15.647 -0.6807  1.4115  1.3993
 1429TIP3   OH225777   6.514   2.066  12.110  0.0835 -0.4594 -0.0144
 1429TIP3    H125778   6.500   2.084  12.203  1.5238 -2.4848  0.6597
 1429TIP3    H225779   6.499   1.972  12.101  1.0945 -0.5014 -1.6008
 1430TIP3   OH225780   6.297   3.662   5.253 -0.2522  0.4528 -0.1060
 1430TIP3    H125781   6.316   3.722   5.326 -1.9495  1.3323 -0.3293
 1430TIP3    H225782   6.292   3.718   5.176  0.1172 -0.2793 -0.6773
 1431TIP3   OH225783   0.828   1.780   0.888  0.2952  0.0959  0.0930
 1431TIP3    H125784   0.772   1.857   0.899  1.4068  0.8311  0.7449
 1431TIP3    H225785   0.904   1.813   0.840  0.1183 -0.9231 -0.9192
 1432TIP3   OH225786   4.250   2.227  14.544  0.1997  0.0063  0.4170
 1432TIP3    H125787   4.266   2.202  14.635 -0.1374  0.2435  0.5421
 1432TIP3    H225788   4.231   2.144  14.500  1.3306 -0.2370  0.3493
 1433TIP3   OH225789   4.264   3.691   1.599 -0.1569  0.7726  0.4642
 1433TIP3    H125790   4.277   3.656   1.687  1.8977  0.5389  0.1035
 1433TIP3    H225791   4.271   3.786   1.610  1.8937  0.6721  0.3290
 1434TIP3   OH225792   2.985   4.324   4.785 -0.0800 -0.5025  0.1217
 1434TIP3    H125793   2.898   4.341   4.821 -0.0552 -0.4433  0.1556
 1434TIP3    H225794   3.028   4.410   4.786  0.5056 -0.7767  1.5100
 1435TIP3   OH225795   6.591   1.333   4.539 -0.2477  0.4262 -0.0886
 1435TIP3    H125796   6.515   1.381   4.504 -0.3813  1.5012  1.5735
 1435TIP3    H225797   6.657   1.401   4.553  0.2199 -0.1587  0.5779
 1436TIP3   OH225798   1.519   3.270  14.288 -0.2383 -0.6779 -0.1218
 1436TIP3    H125799   1.476   3.353  14.306  0.9824  0.0418 -0.3930
 1436TIP3    H225800   1.609   3.283  14.319 -0.2094 -2.1510  0.4979
 1437TIP3   OH225801   1.751   4.996  16.596  0.1011  0.5152 -0.3246
 1437TIP3    H125802   1.716   5.003  16.685 -0.0061 -0.1655 -0.3108
 1437TIP3    H225803   1.782   4.906  16.589 -2.0837 -0.2031 -1.7735
 1438TIP3   OH225804   4.331   1.807   2.072 -0.2130  0.5339  0.6993
 1438TIP3    H125805   4.296   1.771   2.154  0.0083  0.2249  0.6556
 1438TIP3    H225806   4.253   1.820   2.017 -0.1525 -1.4834  0.0669
 1439TIP3   OH225807   2.511   3.619   4.061  0.5286 -0.3108 -0.6228
 1439TIP3    H125808   2.415   3.623   4.058  0.4694 -0.5738  0.4904
 1439TIP3    H225809   2.538   3.708   4.082  0.4341 -0.5776  0.6829
 1440TIP3   OH225810   3.253   3.123  14.212 -0.0304 -0.2954  0.4262
 1440TIP3    H125811   3.205   3.170  14.144 -0.0566 -0.6763  0.1791
 1440TIP3    H225812   3.329   3.087  14.167 -1.3090 -2.6539  0.0114
 1441TIP3   OH225813   3.485   0.856  13.661  0.2511 -0.5580  0.2751
 1441TIP3    H125814   3.494   0.773  13.708  0.2763 -0.0156  1.2447
 1441TIP3    H225815   3.509   0.834  13.571  0.1114 -1.6353  0.4774
 1442TIP3   OH225816   6.728   5.409   2.268 -0.3226  0.1962 -0.4330
 1442TIP3    H125817   6.753   5.322   2.237  0.8747 -0.1474  1.3040
 1442TIP3    H225818   6.656   5.392   2.329 -1.7150  0.7108 -1.8770
 1443TIP3   OH225819   0.181   0.831   1.162 -0.5412 -0.0285  0.2572
 1443TIP3    H125820   0.125   0.862   1.233 -0.6636  0.6617 -0.1258
 1443TIP3    H225821   0.214   0.747   1.192  0.9869  1.1139  1.9874
 1444TIP3   OH225822   6.454   4.741   4.184 -0.2449  0.3877 -0.3023
 1444TIP3    H125823   6.498   4.755   4.268 -0.5307 -1.3015  0.1755
 1444TIP3    H225824   6.418   4.652   4.191 -1.3844  0.6990 -1.7196
 1445TIP3   OH225825   6.000   5.011  14.049 -0.0208 -0.2433 -0.0790
 1445TIP3    H125826   6.070   5.075  14.065  0.2595 -0.0860 -1.7441
 1445TIP3    H225827   6.033   4.930  14.088  0.2311  0.2904  0.8451
 1446TIP3   OH225828   2.717   5.502   2.129 -0.3097  0.1022  0.7357
 1446TIP3    H125829   2.637   5.541   2.164  0.1372  0.2959  1.5680
 1446TIP3    H225830   2.687   5.436   2.067 -1.1020  0.7113  0.4626
 1447TIP3   OH225831   1.230   1.326  12.238  0.3219 -0.2563 -0.2886
 1447TIP3    H125832   1.157   1.303  12.181  1.5719 -0.8910 -1.6985
 1447TIP3    H225833   1.305   1.280  12.201  1.9355  2.1764 -0.2861
 1448TIP3   OH225834   0.304   1.172  17.174 -0.3597  0.3090 -0.4263
 1448TIP3    H125835   0.340   1.083  17.176  0.2409  0.5531  0.4792
 1448TIP3    H225836   0.374   1.226  17.212 -0.8021  1.1356 -0.7698
 1449TIP3   OH225837   4.865   0.822   4.289 -0.5445 -0.1037  0.1842
 1449TIP3    H125838   4.810   0.833   4.367  0.9770  0.3162  1.2367
 1449TIP3    H225839   4.886   0.729   4.288 -1.2012 -0.2551 -0.1878
 1450TIP3   OH225840   2.882   2.878  12.381  0.2835 -0.1939  0.4565
 1450TIP3    H125841   2.878   2.898  12.288  0.6302  0.1226  0.5043
 1450TIP3    H225842   2.801   2.830  12.400  0.7880 -1.3846 -0.2765
 1451TIP3   OH225843   0.586   5.376   0.908 -0.8712 -0.2010  0.3048
 1451TIP3    H125844   0.502   5.423   0.915 -1.3837 -0.8678 -0.9965
 1451TIP3    H225845   0.594   5.355   0.815  0.2532 -1.0534  0.5702
 1452TIP3   OH225846   5.162   1.488   3.308 -0.3446 -0.5438  0.5691
 1452TIP3    H125847   5.219   1.551   3.264  0.8524 -0.6139  1.9430
 1452TIP3    H225848   5.218   1.448   3.375 -1.6513 -1.5920  1.0749
 1453TIP3   OH225849   3.262   6.795   6.350  0.2128 -0.2210  0.7028
 1453TIP3    H125850   3.237   6.729   6.415 -1.9229 -0.1633  0.0090
 1453TIP3    H225851   3.190   6.858   6.351  0.5259  0.2261 -1.1339
 1454TIP3   OH225852   1.134   0.025   0.810 -0.2773 -0.0363  0.0536
 1454TIP3    H125853   1.208  -0.012   0.858  0.8279  0.5862 -1.1186
 1454TIP3    H225854   1.171   0.100   0.764 -1.7169  0.4610 -0.3250
 1455TIP3   OH225855   6.635   5.667  11.817  0.1013  0.3245 -0.0373
 1455TIP3    H125856   6.676   5.595  11.768 -0.9801  0.0054 -0.5274
 1455TIP3    H225857   6.701   5.735  11.821  0.2642  0.3264 -1.9068
 1456TIP3   OH225858   4.425   0.089   2.638 -0.6676 -0.2537  0.3284
 1456TIP3    H125859   4.453  -0.001   2.656  1.9782  0.5671  0.6857
 1456TIP3    H225860   4.440   0.101   2.545 -2.8021 -0.6842 -0.1382
 1457TIP3   OH225861   5.929   6.362   1.877 -0.4106 -0.2948 -0.3314
 1457TIP3    H125862   5.901   6.283   1.830 -2.6639  0.4839 -0.3774
 1457TIP3    H225863   5.892   6.353   1.965 -1.2303  0.9924 -0.5263
 1458TIP3   OH225864   1.200   5.975  14.388 -0.7730 -0.4292 -0.3569
 1458TIP3    H125865   1.285   5.931  14.387 -0.0942  0.8329 -1.1503
 1458TIP3    H225866   1.186   6.001  14.297 -1.1964  0.8740  0.0567
 1459TIP3   OH225867   1.879   5.211  14.503 -0.4038 -0.3166  0.3185
 1459TIP3    H125868   1.869   5.118  14.523 -0.0620 -0.2341  0.9154
 1459TIP3    H225869   1.791   5.246  14.507 -0.5401 -0.6207  0.0540
 1460TIP3   OH225870   0.315   3.985   1.272  0.2040  0.3968 -0.1830
 1460TIP3    H125871   0.377   3.955   1.205 -0.1892 -0.5639 -0.1275
 1460TIP3    H225872   0.245   3.920   1.271 -1.7904  2.4377 -1.5603
 1461TIP3   OH225873   3.305   5.088   2.232 -0.0346 -0.0423 -0.1024
 1461TIP3    H125874   3.312   5.152   2.161  0.6788  1.0623  0.9222
 1461TIP3    H225875   3.359   5.125   2.303 -0.0626 -1.5084  0.7222
 1462TIP3   OH225876   6.729   4.023   6.025 -0.5387 -0.3663  0.4541
 1462TIP3    H125877   6.806   3.998   6.077 -0.6747 -1.6827  0.0380
 1462TIP3    H225878   6.670   4.063   6.089  0.0405 -0.3095  0.9712
 1463TIP3   OH225879   0.506   6.800   0.427 -0.3641  0.4302  0.0713
 1463TIP3    H125880   0.522   6.758   0.512 -1.9856 -2.4066 -0.8910
 1463TIP3    H225881   0.556   6.747   0.365 -0.7848  1.2465 -0.9894
 1464TIP3   OH225882   1.224   1.496   5.297  0.0538 -0.1295  0.2548
 1464TIP3    H125883   1.141   1.527   5.261  1.2226  2.3735 -0.4678
 1464TIP3    H225884   1.256   1.433   5.232 -0.1853  0.6561 -0.6422
 1465TIP3   OH225885   2.060   0.312  13.969  0.3969  0.2657 -0.4388
 1465TIP3    H125886   2.100   0.290  14.053  0.4223 -1.8291 -0.9557
 1465TIP3    H225887   1.968   0.329  13.989  0.6317  0.8860  0.1463
 1466TIP3   OH225888   0.367   3.702   0.403 -0.7118  0.7959  0.3874
 1466TIP3    H125889   0.317   3.712   0.322 -0.9018 -0.6976  0.2977
 1466TIP3    H225890   0.458   3.696   0.375 -0.7122  0.9426  0.3506
 1467TIP3   OH225891   0.395   0.393  16.423 -0.3833  0.0001 -0.1240
 1467TIP3    H125892   0.383   0.436  16.508  1.4165  1.8942 -0.7452
 1467TIP3    H225893   0.316   0.341  16.411 -1.1901  0.5765  2.1900
 1468TIP3   OH225894   5.183   3.659  11.245 -0.4256  0.0570 -0.2393
 1468TIP3    H125895   5.187   3.654  11.341 -1.2621 -1.4947 -0.2484
 1468TIP3    H225896   5.091   3.675  11.226 -0.1234  1.2148 -0.7828
 1469TIP3   OH225897   3.214   2.202   4.085  0.1187 -0.1683  0.1473
 1469TIP3    H125898   3.175   2.214   4.172 -0.7384  0.2149 -0.2804
 1469TIP3    H225899   3.152   2.244   4.025  1.2945  0.6317 -0.5359
 1470TIP3   OH225900   1.938   2.776  11.621 -0.0716 -0.2435  0.2389
 1470TIP3    H125901   1.860   2.821  11.654  0.2825 -1.0523  2.3798
 1470TIP3    H225902   1.930   2.686  11.653  1.4832 -0.4770  0.0790
 1471TIP3   OH225903   6.018   4.998  14.717  0.4839  0.2893  0.1416
 1471TIP3    H125904   5.982   4.909  14.725 -2.2435  1.3341  0.6706
 1471TIP3    H225905   6.106   4.992  14.754  0.7408 -2.3644 -0.6740
 1472TIP3   OH225906   1.170   6.568  16.754  0.4476 -0.2212 -0.6600
 1472TIP3    H125907   1.219   6.647  16.733  1.3309 -0.3869  0.6493
 1472TIP3    H225908   1.085   6.580  16.712 -0.1957  2.3669  1.1331
 1473TIP3   OH225909   4.401   4.713   5.778  0.6021  1.2301  0.5828
 1473TIP3    H125910   4.356   4.643   5.731 -0.2295  2.2247 -0.1594
 1473TIP3    H225911   4.438   4.768   5.708  1.2521  1.5251  1.1491
 1474TIP3   OH225912   4.113   4.540   5.316 -0.0482  0.1263  0.5684
 1474TIP3    H125913   4.109   4.448   5.341  0.8635  0.0483  0.4784
 1474TIP3    H225914   4.024   4.572   5.327 -0.3453 -0.7304  0.7369
 1475TIP3   OH225915   5.754   5.061   4.286  0.2428 -0.1595  0.4787
 1475TIP3    H125916   5.689   5.021   4.343  1.8101 -2.1802  0.9552
 1475TIP3    H225917   5.765   4.999   4.214  0.3584  1.0092 -0.5546
 1476TIP3   OH225918   3.272   6.251   4.259  0.7580  1.0342  0.2020
 1476TIP3    H125919   3.237   6.173   4.303 -2.3660  2.0629 -0.1909
 1476TIP3    H225920   3.292   6.221   4.170  1.5529  0.2292  0.6474
 1477TIP3   OH225921   2.144   0.276  13.640 -0.0119 -0.2016  0.3203
 1477TIP3    H125922   2.089   0.290  13.562 -0.8923 -0.7081  0.8386
 1477TIP3    H225923   2.110   0.338  13.705  2.2439  1.9613 -0.3830
 1478TIP3   OH225924   5.632   6.705   5.276 -0.1715 -0.3986  0.7976
 1478TIP3    H125925   5.616   6.676   5.186 -0.8335 -0.0163  0.7781
 1478TIP3    H225926   5.678   6.788   5.266  1.5257 -1.3019  0.8496
 1479TIP3   OH225927   2.658   3.388   4.910 -0.0959 -0.0900  0.4794
 1479TIP3    H125928   2.750   3.411   4.896  0.3354 -1.1931  1.3287
 1479TIP3    H225929   2.640   3.321   4.845 -0.9654  1.6122 -1.1198
 1480TIP3   OH225930   4.699   0.365  10.745  0.2209  0.0544  0.3682
 1480TIP3    H125931   4.794   0.370  10.755  0.3089  2.6913 -1.1053
 1480TIP3    H225932   4.668   0.454  10.759 -2.0600 -0.7153  0.6626
 1481TIP3   OH225933   4.512   0.670   4.690  0.1715  0.0982  0.3084
 1481TIP3    H125934   4.515   0.754   4.737  0.7394  0.9629 -1.1734
 1481TIP3    H225935   4.420   0.644   4.693  0.0399  0.6194  1.0622
 1482TIP3   OH225936   3.134   4.957   1.256  0.2603  0.0001 -0.4698
 1482TIP3    H125937   3.169   5.028   1.310  1.0870  1.2310 -2.5114
 1482TIP3    H225938   3.100   5.000   1.178  0.9818 -1.8419 -1.8802
 1483TIP3   OH225939   3.578   3.739  13.009 -0.3343  0.5957 -0.1534
 1483TIP3    H125940   3.608   3.688  12.934  2.2173  1.7110 -0.0056
 1483TIP3    H225941   3.652   3.740  13.069 -0.8268  3.1008  0.5454
 1484TIP3   OH225942   4.928   1.744   3.255  0.1545 -0.1762 -0.0642
 1484TIP3    H125943   4.894   1.664   3.295  2.4256 -1.0615  0.2538
 1484TIP3    H225944   5.000   1.771   3.312 -0.4770  2.0439 -0.2374
 1485TIP3   OH225945   5.390   6.371   2.775 -0.1835  0.3583  0.2175
 1485TIP3    H125946   5.329   6.306   2.740 -0.9362  1.4044 -0.4711
 1485TIP3    H225947   5.438   6.403   2.699  1.1457 -0.3334  0.7307
 1486TIP3   OH225948   2.020   4.025  16.504 -0.0408 -0.0706 -0.1857
 1486TIP3    H125949   1.934   4.019  16.461 -0.7743  1.9504  0.8830
 1486TIP3    H225950   2.075   4.071  16.441 -0.7005  1.5550  0.3692
 1487TIP3   OH225951   6.147   2.025  13.256 -0.7303  0.1914 -0.1440
 1487TIP3    H125952   6.204   2.004  13.330 -0.8687  0.0433 -0.0792
 1487TIP3    H225953   6.204   2.072  13.195 -0.8137  0.9952  0.3956
 1488TIP3   OH225954   0.744   3.634  15.024  0.2099  0.5765  0.6126
 1488TIP3    H125955   0.681   3.673  14.964 -2.0225 -1.0023  1.7574
 1488TIP3    H225956   0.796   3.575  14.969 -0.9506  0.1132 -0.0353
 1489TIP3   OH225957   2.838   5.781  15.268 -0.7857 -0.4581 -0.0157
 1489TIP3    H125958   2.860   5.693  15.238  0.4535 -0.2559  0.2401
 1489TIP3    H225959   2.896   5.838  15.217 -2.1307  0.2877 -0.7567
 1490TIP3   OH225960   4.914   3.507  11.743  0.8646 -0.1576  0.1125
 1490TIP3    H125961   4.856   3.441  11.706 -0.6937  1.9245 -1.3977
 1490TIP3    H225962   4.855   3.571  11.784  2.2366  0.8505  0.6110
 1491TIP3   OH225963   1.643   1.065  12.919 -0.5849 -0.1684  0.0743
 1491TIP3    H125964   1.553   1.062  12.952  0.4970 -0.4219  3.3257
 1491TIP3    H225965   1.682   1.141  12.963  1.0350 -0.5537 -0.6399
 1492TIP3   OH225966   1.655   1.552  13.332 -0.0303 -0.2533 -0.2373
 1492TIP3    H125967   1.664   1.564  13.238 -0.0205 -1.7237 -0.4465
 1492TIP3    H225968   1.627   1.461  13.343  0.5676 -0.3005  1.2096
 1493TIP3   OH225969   3.805   3.468  14.020 -0.3018  0.0323  0.3109
 1493TIP3    H125970   3.887   3.487  14.067 -0.2473  1.2437 -0.2260
 1493TIP3    H225971   3.826   3.395  13.963 -0.3486 -1.4348  2.0895
 1494TIP3   OH225972   6.355   1.081   5.276 -0.1942 -0.2688 -0.1727
 1494TIP3    H125973   6.444   1.111   5.260 -0.5401  0.1782 -1.4209
 1494TIP3    H225974   6.301   1.161   5.269 -0.7446 -0.6195 -0.0060
 1495TIP3   OH225975   3.380   5.610   0.777  0.3727 -0.4411  0.3595
 1495TIP3    H125976   3.421   5.538   0.826  2.2151  0.3792  0.0945
 1495TIP3    H225977   3.402   5.593   0.686  2.0092  1.1249  0.4054
 1496TIP3   OH225978   4.706   1.251   2.886  0.2775 -0.3137  0.4196
 1496TIP3    H125979   4.687   1.244   2.792  2.3010 -1.9419  0.0586
 1496TIP3    H225980   4.623   1.230   2.929  0.1732 -3.3908 -1.0065
 1497TIP3   OH225981   0.107   1.480  16.730 -0.4695  0.0182 -0.0589
 1497TIP3    H125982   0.123   1.541  16.802 -0.7992  1.1126 -0.8886
 1497TIP3    H225983   0.017   1.498  16.703 -0.8034 -1.3114  0.1077
 1498TIP3   OH225984   0.475   0.785   3.317 -0.1403  0.2510 -0.1471
 1498TIP3    H125985   0.511   0.860   3.365 -2.3479  0.6628  0.9675
 1498TIP3    H225986   0.443   0.823   3.235 -1.7618  0.7066  0.6491
 1499TIP3   OH225987   0.051   0.859   4.562  0.4003 -0.7250 -0.2558
 1499TIP3    H125988   0.141   0.838   4.538  0.5106 -0.7431  0.1555
 1499TIP3    H225989  -0.003   0.805   4.505  0.6466 -0.5986 -0.6104
 1500TIP3   OH225990   2.985   0.850  11.695  0.1727  0.3676  0.2137
 1500TIP3    H125991   2.920   0.906  11.737  0.2762  0.0718  0.7758
 1500TIP3    H225992   3.048   0.911  11.657  0.1033  0.6381  0.5292
 1501TIP3   OH225993   0.589   6.453   1.554 -0.6677  0.1643 -0.3750
 1501TIP3    H125994   0.496   6.434   1.567 -0.4541 -0.0327  1.0023
 1501TIP3    H225995   0.594   6.549   1.561 -0.8236  0.2127 -0.8878
 1502TIP3   OH225996   2.612   0.647  13.903  0.1515  0.0218 -0.3136
 1502TIP3    H125997   2.525   0.672  13.870  0.1503 -0.0324 -0.3510
 1502TIP3    H225998   2.608   0.667  13.996  0.3807  0.8259 -0.4606
 1503TIP3   OH225999   2.838   4.723  11.467  0.0288  0.0427  0.3350
 1503TIP3    H126000   2.754   4.682  11.447  0.4824 -0.8723  0.2119
 1503TIP3    H226001   2.872   4.750  11.382 -0.4053  0.9625  0.4475
 1504TIP3   OH226002   0.198   2.300  16.909  0.0242  0.1382  0.3739
 1504TIP3    H126003   0.112   2.262  16.924 -1.3391  2.5315 -0.8428
 1504TIP3    H226004   0.230   2.256  16.830 -0.1337 -0.6664  0.7542
 1505TIP3   OH226005   2.216   3.584   0.420 -0.0175 -0.8322  0.4694
 1505TIP3    H126006   2.193   3.576   0.327  1.4532  1.4349 -0.1770
 1505TIP3    H226007   2.133   3.606   0.463 -0.2027  1.4648 -0.8865
 1506TIP3   OH226008   1.758   6.401   5.042  0.0365 -0.1096  0.2875
 1506TIP3    H126009   1.795   6.485   5.067  1.7897 -0.8580  0.4107
 1506TIP3    H226010   1.740   6.357   5.125 -1.5073  0.3559  0.2359
 1507TIP3   OH226011   0.365   6.546   1.105  0.2819  0.7926 -0.0515
 1507TIP3    H126012   0.437   6.484   1.107  0.9544  1.5476  2.1945
 1507TIP3    H226013   0.367   6.588   1.191 -0.8110  3.1507 -1.0817
 1508TIP3   OH226014   4.057   4.589  16.279  0.3154  0.8087 -0.5621
 1508TIP3    H126015   4.011   4.636  16.348 -2.0081 -1.1257 -0.6596
 1508TIP3    H226016   4.114   4.527  16.326 -1.9162 -1.1239 -0.2511
 1509TIP3   OH226017   5.032   3.903  11.923  0.6027  0.2367  0.1446
 1509TIP3    H126018   4.970   3.830  11.929  0.6835  0.3075  3.8277
 1509TIP3    H226019   4.977   3.981  11.927  0.7398  0.3135  4.3658
 1510TIP3   OH226020   3.150   0.712  14.540  0.8054 -0.2960 -0.5240
 1510TIP3    H126021   3.212   0.745  14.606  0.3786  1.1305 -0.8069
 1510TIP3    H226022   3.204   0.698  14.462  0.9656 -0.1482 -0.4399
 1511TIP3   OH226023   0.946   4.893  11.247 -0.0381  0.7472 -0.8719
 1511TIP3    H126024   0.865   4.857  11.211 -0.2364 -0.0315  0.3024
 1511TIP3    H226025   0.928   4.987  11.254 -0.9585  0.5515 -0.3700
 1512TIP3   OH226026   2.330   1.135  13.260 -0.1034 -0.6129 -0.6501
 1512TIP3    H126027   2.335   1.213  13.204 -1.2720 -1.0155 -1.3430
 1512TIP3    H226028   2.348   1.168  13.348  0.5975  0.2262 -1.0904
 1513TIP3   OH226029   3.047   2.742   1.085 -0.1151 -0.3832  0.3932
 1513TIP3    H126030   3.104   2.721   1.159 -0.8079 -0.2536  0.9826
 1513TIP3    H226031   2.959   2.726   1.118 -0.6748  2.6866  0.6846
 1514TIP3   OH226032   5.245   2.697  15.633 -0.1594  0.5484 -0.4469
 1514TIP3    H126033   5.237   2.602  15.644 -0.1529  0.6896  0.8570
 1514TIP3    H226034   5.329   2.708  15.588 -0.3174 -0.0760 -0.9087
 1515TIP3   OH226035   5.760   6.692   3.094 -0.8515  0.0717  0.4667
 1515TIP3    H126036   5.818   6.675   3.020  1.2566  1.0278  1.8160
 1515TIP3    H226037   5.716   6.609   3.110  0.9414 -0.9977  0.0538
 1516TIP3   OH226038   0.347   0.521  15.914  0.2088  0.1730 -0.4480
 1516TIP3    H126039   0.280   0.557  15.972 -0.5782  0.1845 -1.3635
 1516TIP3    H226040   0.381   0.596  15.866  0.6607  0.1204 -0.2184
 1517TIP3   OH226041   0.203   0.631   4.281  0.4192 -0.3747  0.4306
 1517TIP3    H126042   0.140   0.599   4.215  0.5512  1.7890 -0.8387
 1517TIP3    H226043   0.180   0.583   4.360 -2.6325  0.0441 -0.0768
 1518TIP3   OH226044   6.577   5.795  11.332  0.0751  0.8397 -0.5191
 1518TIP3    H126045   6.536   5.735  11.395  2.2534 -0.7362 -0.5182
 1518TIP3    H226046   6.606   5.869  11.386  2.5851 -0.8238  0.5964
 1519TIP3   OH226047   5.442   2.658  14.426  0.1251 -0.1846 -0.2669
 1519TIP3    H126048   5.397   2.575  14.410  0.7285 -0.5167 -0.2807
 1519TIP3    H226049   5.393   2.699  14.496 -1.3861  0.3835 -1.6051
 1520TIP3   OH226050   3.358   0.799   4.842  0.6499 -0.6946  0.2573
 1520TIP3    H126051   3.296   0.729   4.826 -1.3014  0.2881  2.7768
 1520TIP3    H226052   3.362   0.848   4.760  1.3254 -3.1078 -1.2411
 1521TIP3   OH226053   5.789   1.439  14.573 -0.1541  0.1043 -0.4690
 1521TIP3    H126054   5.764   1.491  14.497 -1.2554 -0.8455 -0.7868
 1521TIP3    H226055   5.840   1.366  14.537  0.8164  0.5829 -0.0988
 1522TIP3   OH226056   5.423   5.665   1.359  0.3315  0.2243 -0.2884
 1522TIP3    H126057   5.374   5.618   1.291 -0.8926  0.1465  0.6149
 1522TIP3    H226058   5.380   5.751   1.364 -1.5944 -0.7586  2.3922
 1523TIP3   OH226059   5.752   0.204  14.623 -0.1400 -0.1404  0.0998
 1523TIP3    H126060   5.675   0.260  14.622 -0.6108 -0.7375 -2.0813
 1523TIP3    H226061   5.724   0.123  14.581  1.7580 -0.2010 -1.1863
 1524TIP3   OH226062   3.222   2.740  17.109 -0.1796 -0.4212  0.6171
 1524TIP3    H126063   3.157   2.727  17.178  0.0172  0.9924  1.0986
 1524TIP3    H226064   3.262   2.653  17.097 -0.4743 -0.7715  2.0140
 1525TIP3   OH226065   1.383   2.539  15.672 -0.1470  0.0834  0.3193
 1525TIP3    H126066   1.377   2.444  15.661  0.3137 -0.0097  0.7912
 1525TIP3    H226067   1.301   2.573  15.637  0.5364 -0.2929 -1.7895
 1526TIP3   OH226068   1.059   1.231  12.032 -0.4114  0.1267 -0.1559
 1526TIP3    H126069   1.069   1.140  12.057 -0.2367 -0.7145 -2.9505
 1526TIP3    H226070   1.124   1.245  11.963 -1.2586  2.0086 -0.6588
 1527TIP3   OH226071   2.372   4.734  14.368 -0.1229  0.0358  0.1753
 1527TIP3    H126072   2.382   4.770  14.456  2.2474  0.3411 -0.1595
 1527TIP3    H226073   2.461   4.708  14.343 -1.0091 -1.5612 -1.4971
 1528TIP3   OH226074   1.015   6.258  15.635  1.0691  0.0737  0.1696
 1528TIP3    H126075   1.046   6.343  15.606  1.9276 -0.6000 -0.9485
 1528TIP3    H226076   0.924   6.253  15.605  0.1685  1.5489  2.3811
 1529TIP3   OH226077   1.559   3.723   2.044 -0.2798 -0.5239  0.3985
 1529TIP3    H126078   1.515   3.668   2.109  0.2827 -2.1788 -0.5482
 1529TIP3    H226079   1.595   3.796   2.094 -1.0097 -1.0370  1.7262
 1530TIP3   OH226080   3.128   3.223   0.634 -0.2442  0.2729 -0.2587
 1530TIP3    H126081   3.052   3.173   0.604 -0.0652  0.0513 -0.3478
 1530TIP3    H226082   3.192   3.156   0.660 -0.6717  0.4474  1.3476
 1531TIP3   OH226083   0.434   2.038  16.833 -0.1591 -0.4110 -0.6314
 1531TIP3    H126084   0.490   1.962  16.817 -0.2345 -0.7481  0.5575
 1531TIP3    H226085   0.494   2.112  16.839  0.2211 -0.7877  0.7665
 1532TIP3   OH226086   1.841   4.606   0.916  0.2880 -0.0042  0.4983
 1532TIP3    H126087   1.776   4.676   0.918 -0.6355 -0.8264  0.1035
 1532TIP3    H226088   1.820   4.556   0.838 -0.5336 -2.0626  1.9419
 1533TIP3   OH226089   2.393   3.960  12.066  0.0544 -0.4914  0.5274
 1533TIP3    H126090   2.309   4.004  12.080  0.0307 -0.5485  0.5665
 1533TIP3    H226091   2.458   4.022  12.099 -0.0406 -0.8611  1.4356
 1534TIP3   OH226092   4.832   5.323  16.424  0.2385  0.0165  0.4982
 1534TIP3    H126093   4.871   5.342  16.509 -2.1519  0.3658  1.6189
 1534TIP3    H226094   4.791   5.405  16.398  0.8638 -0.1195 -0.9665
 1535TIP3   OH226095   3.200   5.839   1.420  0.5178  0.4368  0.5112
 1535TIP3    H126096   3.161   5.760   1.455 -0.1100  0.7433  0.5239
 1535TIP3    H226097   3.237   5.813   1.336 -0.1811  0.2485  0.2556
 1536TIP3   OH226098   3.259   6.339  11.385 -0.0265  0.0007  0.0195
 1536TIP3    H126099   3.228   6.248  11.394  0.4280 -0.0208  1.7540
 1536TIP3    H226100   3.179   6.390  11.378 -0.3276 -0.4494  0.1065
 1537TIP3   OH226101   2.673   0.170  13.949 -0.3238 -0.2466  0.5832
 1537TIP3    H126102   2.607   0.202  13.887  0.5003 -0.3588 -0.3664
 1537TIP3    H226103   2.671   0.075  13.939 -1.3931 -0.4095  1.9954
 1538TIP3   OH226104   5.461   2.588   1.825 -0.3296 -0.4896  0.2149
 1538TIP3    H126105   5.428   2.512   1.872 -0.3637 -0.2644  0.5611
 1538TIP3    H226106   5.398   2.601   1.754 -0.0494 -1.0808 -0.1515
 1539TIP3   OH226107   2.432   2.757   3.470 -0.1024 -0.4003  0.1503
 1539TIP3    H126108   2.458   2.667   3.452  0.4052 -0.4199  0.9154
 1539TIP3    H226109   2.365   2.750   3.538  0.8856 -0.1636  1.1914
 1540TIP3   OH226110   6.785   0.310   6.170 -1.2349  0.0432 -0.0742
 1540TIP3    H126111   6.768   0.394   6.128 -0.8090  1.8084  2.9976
 1540TIP3    H226112   6.765   0.325   6.262  1.7906 -2.3388  1.1222
 1541TIP3   OH226113   2.421   3.291  14.740 -0.0242 -0.3851  0.0497
 1541TIP3    H126114   2.326   3.295  14.727  0.2387  0.2098 -1.9935
 1541TIP3    H226115   2.451   3.227  14.675  1.2590  1.5157 -1.3252
 1542TIP3   OH226116   4.038   5.769   4.557  0.0534  0.1842  0.1723
 1542TIP3    H126117   4.026   5.718   4.477 -0.7046 -1.8142  1.5000
 1542TIP3    H226118   3.952   5.808   4.574  0.5441  1.7320 -0.6496
 1543TIP3   OH226119   5.163   0.214   2.389 -0.8859 -0.2880  0.1918
 1543TIP3    H126120   5.217   0.163   2.450  1.5456  0.5538 -1.1537
 1543TIP3    H226121   5.196   0.304   2.397 -0.4913 -0.1460 -2.3123
 1544TIP3   OH226122   1.985   2.369  11.179 -0.9105 -0.6628 -0.5191
 1544TIP3    H126123   1.952   2.312  11.109 -1.3354 -1.4393  0.2935
 1544TIP3    H226124   2.064   2.325  11.211 -1.0238 -0.5990 -0.1471
 1545TIP3   OH226125   6.299   0.522  13.169  0.7401 -0.0359 -0.0698
 1545TIP3    H126126   6.275   0.473  13.090  1.7306 -0.7385  0.0468
 1545TIP3    H226127   6.363   0.467  13.213  1.1325  0.9186  0.5941
 1546TIP3   OH226128   4.441   2.974   4.032  0.0080 -0.0622  0.0574
 1546TIP3    H126129   4.478   2.976   4.120 -0.1867  1.2738  0.1296
 1546TIP3    H226130   4.437   2.881   4.009 -0.6054 -0.4698  1.7237
 1547TIP3   OH226131   0.248   0.706  14.110  0.6131 -0.3067 -0.5847
 1547TIP3    H126132   0.166   0.691  14.062  0.7192  0.7621 -1.1433
 1547TIP3    H226133   0.257   0.802  14.113  2.0931 -0.3994 -0.9979
 1548TIP3   OH226134   1.155   2.677   2.697 -0.0140 -0.1860 -0.2813
 1548TIP3    H126135   1.245   2.699   2.718 -0.1120 -0.1543  0.1064
 1548TIP3    H226136   1.150   2.684   2.601 -0.0648  1.5552 -0.1741
 1549TIP3   OH226137   2.233   0.031   0.244 -0.0989 -0.0559  0.4826
 1549TIP3    H126138   2.274  -0.005   0.166 -2.2439  0.4908 -0.9925
 1549TIP3    H226139   2.295   0.012   0.315  1.7735 -0.8505 -1.2651
 1550TIP3   OH226140   1.997   3.940  10.417  0.2654  0.1832 -0.1878
 1550TIP3    H126141   2.044   4.023  10.409 -1.6476  1.1451 -3.4856
 1550TIP3    H226142   2.055   3.876  10.377  0.0975  0.7630 -1.3976
 1551TIP3   OH226143   4.986   3.588  14.802  0.1238  0.1609  0.8656
 1551TIP3    H126144   4.936   3.557  14.878  1.7776  1.2747  2.4962
 1551TIP3    H226145   5.009   3.678  14.824  0.2591  0.6846 -1.2156
 1552TIP3   OH226146   6.659   1.233  11.262  0.5859  0.5232 -0.2013
 1552TIP3    H126147   6.582   1.193  11.304  0.2038  1.3808 -0.0388
 1552TIP3    H226148   6.684   1.172  11.193 -0.4582  0.3853 -0.4744
 1553TIP3   OH226149   3.732   0.488  11.925 -0.2728  0.5195 -0.4341
 1553TIP3    H126150   3.825   0.486  11.946 -0.5883 -2.0959  1.1086
 1553TIP3    H226151   3.695   0.551  11.987  0.2870  0.6288 -0.2048
 1554TIP3   OH226152   2.651   5.337   1.908  0.0030  0.1428 -0.1244
 1554TIP3    H126153   2.618   5.421   1.877  0.0211 -0.0820 -0.7939
 1554TIP3    H226154   2.628   5.276   1.838 -1.7489 -0.8051  1.1988
 1555TIP3   OH226155   4.637   0.465  16.811  0.0642 -0.1154  0.3295
 1555TIP3    H126156   4.608   0.522  16.740  1.5018  1.5752  1.0297
 1555TIP3    H226157   4.556   0.441  16.856 -0.6589  0.6332 -0.5200
 1556TIP3   OH226158   0.216   3.923   2.028 -0.1179  0.0531  0.1871
 1556TIP3    H126159   0.245   3.988   1.965  0.3331 -0.1116  0.2260
 1556TIP3    H226160   0.120   3.932   2.029 -0.3440 -1.2888 -2.0075
 1557TIP3   OH226161   2.760   3.502  12.087  0.2995  0.1746  0.4303
 1557TIP3    H126162   2.845   3.517  12.046 -0.0423 -1.0762 -0.8196
 1557TIP3    H226163   2.723   3.589  12.097  0.8762  0.6060 -0.9157
 1558TIP3   OH226164   6.350   4.792  10.640  0.1382 -0.3599 -0.4730
 1558TIP3    H126165   6.308   4.831  10.563  0.1031  1.5634  0.4665
 1558TIP3    H226166   6.431   4.841  10.650  0.4390 -1.0092  0.3905
 1559TIP3   OH226167   0.744   6.214  16.476 -0.3144 -0.4751  0.3595
 1559TIP3    H126168   0.692   6.144  16.435  0.9544 -2.1783  1.4975
 1559TIP3    H226169   0.684   6.289  16.480 -0.8506 -0.5129 -3.4794
 1560TIP3   OH226170   4.560   0.385  13.972  0.1482 -0.2087 -0.2516
 1560TIP3    H126171   4.519   0.458  14.019 -0.4452  0.9276 -2.3936
 1560TIP3    H226172   4.604   0.334  14.040 -2.2087  0.2623  1.7612
 1561TIP3   OH226173   3.529   4.836   3.958 -0.0716 -0.3074  0.8024
 1561TIP3    H126174   3.540   4.870   4.046 -0.7607 -2.1341  1.6630
 1561TIP3    H226175   3.500   4.911   3.906  0.1140  0.7509  2.1689
 1562TIP3   OH226176   0.938   0.247   1.046  0.4391 -0.2012 -0.2057
 1562TIP3    H126177   0.951   0.316   1.111  0.5886 -0.5483  0.1309
 1562TIP3    H226178   0.953   0.166   1.093 -0.4840 -0.5073 -0.4144
 1563TIP3   OH226179   6.165   0.348  12.642 -0.1982  0.5151  0.1799
 1563TIP3    H126180   6.187   0.391  12.559  1.3086  1.5201  1.0352
 1563TIP3    H226181   6.203   0.406  12.709  0.0086 -1.0653  1.4898
 1564TIP3   OH226182   3.014   5.033  12.742 -0.8188  0.7057  0.0657
 1564TIP3    H126183   2.954   4.981  12.688  0.3857  0.4997 -1.1635
 1564TIP3    H226184   2.983   5.123  12.734 -0.9300  0.6129 -0.6316
 1565TIP3   OH226185   4.335   1.964   4.255  0.6386 -0.7706  0.2197
 1565TIP3    H126186   4.275   1.975   4.181  0.1179 -0.4228  0.6938
 1565TIP3    H226187   4.319   1.876   4.287  1.4550 -1.2388 -0.5907
 1566TIP3   OH226188   5.705   3.982   6.105 -0.2821  0.7055 -0.2803
 1566TIP3    H126189   5.711   4.032   6.186  0.3088  2.1079 -1.1559
 1566TIP3    H226190   5.781   3.924   6.107  0.5285  1.7318 -0.4549
 1567TIP3   OH226191   4.131   4.844   3.605  0.0942 -0.1969  0.5719
 1567TIP3    H126192   4.104   4.935   3.616 -2.1751 -0.8502  0.9199
 1567TIP3    H226193   4.132   4.831   3.511 -1.4562 -0.2819  0.5382
 1568TIP3   OH226194   0.515   6.278   6.339 -0.0638 -0.0771 -0.6958
 1568TIP3    H126195   0.490   6.269   6.431  0.6006  0.6196 -0.4326
 1568TIP3    H226196   0.450   6.338   6.302  1.8704  2.8584  0.3260
 1569TIP3   OH226197   3.993   1.885  17.013 -0.5629  0.2617 -0.1442
 1569TIP3    H126198   3.953   1.960  17.058 -1.3930 -1.0605  1.4569
 1569TIP3    H226199   4.077   1.917  16.982 -0.7643  1.7772  0.7703
 1570TIP3   OH226200   5.527   5.982   3.516 -0.0032  0.1545  0.4706
 1570TIP3    H126201   5.537   5.927   3.594  0.8792 -0.2950  0.0577
 1570TIP3    H226202   5.494   5.922   3.449 -0.7227  0.5318  0.4784
 1571TIP3   OH226203   0.058   4.514   4.444 -0.2359  0.1640 -0.2678
 1571TIP3    H126204   0.051   4.453   4.371  0.7956  0.4384 -0.6186
 1571TIP3    H226205   0.063   4.459   4.522  0.9063 -0.2176 -0.5957
 1572TIP3   OH226206   4.588   6.006  15.773 -0.2979 -0.5188 -0.4135
 1572TIP3    H126207   4.500   5.970  15.782 -0.2641 -0.7820 -1.0697
 1572TIP3    H226208   4.641   5.958  15.837 -0.5740 -0.5503 -0.2101
 1573TIP3   OH226209   0.062   3.506  11.835  0.3425  0.1728 -0.1205
 1573TIP3    H126210   0.155   3.488  11.847  0.5776  0.2736 -1.5833
 1573TIP3    H226211   0.017   3.443  11.891  1.2576 -1.3719 -1.0443
 1574TIP3   OH226212   1.309   2.875   3.658 -0.5054  0.6000 -0.1692
 1574TIP3    H126213   1.250   2.886   3.583 -1.6211 -2.6497  0.0759
 1574TIP3    H226214   1.389   2.839   3.620 -1.5863 -2.4445  0.2080
 1575TIP3   OH226215   4.516   3.094   1.870  0.5795 -0.1569 -0.6982
 1575TIP3    H126216   4.508   3.152   1.946 -0.1229 -1.2704  0.1185
 1575TIP3    H226217   4.580   3.027   1.898 -1.1815 -1.7395 -0.2650
 1576TIP3   OH226218   1.055   6.034   2.865  0.2976  0.5415  0.4922
 1576TIP3    H126219   1.111   5.964   2.898 -0.2127  1.0867  2.6720
 1576TIP3    H226220   0.968   5.996   2.861  0.2581  0.6494  0.2682
 1577TIP3   OH226221   1.376   5.739  14.640  0.5152 -0.3638 -0.4273
 1577TIP3    H126222   1.316   5.717  14.568 -1.4753 -1.2464  1.3986
 1577TIP3    H226223   1.369   5.665  14.700  1.2990  0.8371  1.2092
 1578TIP3   OH226224   0.569   1.454  11.504  0.0489  0.0728  0.3736
 1578TIP3    H126225   0.567   1.381  11.566 -2.9987 -0.6714 -0.4320
 1578TIP3    H226226   0.496   1.437  11.445  1.9432  1.4910 -2.6022
 1579TIP3   OH226227   5.091   0.472  11.563 -0.0950 -0.1189  0.3684
 1579TIP3    H126228   5.148   0.473  11.641 -1.1031  0.1457  1.1262
 1579TIP3    H226229   5.129   0.405  11.506  0.8832 -0.0536  0.9293
 1580TIP3   OH226230   0.221   6.714  16.423 -0.2206 -0.7203 -0.3500
 1580TIP3    H126231   0.187   6.728  16.335  2.3832 -0.7821 -1.4608
 1580TIP3    H226232   0.245   6.621  16.425  2.8349 -0.0511 -0.8714
 1581TIP3   OH226233   5.063   2.302  14.255 -0.5526  0.6256  0.0910
 1581TIP3    H126234   5.073   2.375  14.193 -1.9331 -0.3089 -1.2884
 1581TIP3    H226235   4.980   2.261  14.231  1.7182 -3.6260 -1.6373
 1582TIP3   OH226236   2.619   5.718   5.478 -0.0877  0.4131 -0.1954
 1582TIP3    H126237   2.596   5.802   5.518  1.0257  0.0864  1.1937
 1582TIP3    H226238   2.596   5.653   5.544 -0.9241 -0.4097 -1.2524
 1583TIP3   OH226239   1.243   0.627  10.718  0.2884  0.3370 -1.0233
 1583TIP3    H126240   1.177   0.688  10.749  0.1772 -1.1124  1.8598
 1583TIP3    H226241   1.325   0.658  10.756  0.1788 -1.3786  0.8012
 1584TIP3   OH226242   1.405   6.526   0.123  0.5628  0.2111 -0.4769
 1584TIP3    H126243   1.393   6.583   0.047 -0.9061  1.1810  0.4223
 1584TIP3    H226244   1.421   6.587   0.196  1.5222 -0.6700  0.0764
 1585TIP3   OH226245   2.773   1.861  11.762 -0.3654 -0.1090  0.4199
 1585TIP3    H126246   2.803   1.828  11.677  0.3237  0.7278  0.3259
 1585TIP3    H226247   2.765   1.955  11.750 -1.7721 -0.1451  0.8472
 1586TIP3   OH226248   5.233   5.681  16.438  0.7115 -0.1548  0.0901
 1586TIP3    H126249   5.317   5.722  16.458 -0.1436  1.4674  0.5081
 1586TIP3    H226250   5.184   5.686  16.520 -1.2877  2.7337 -1.1138
 1587TIP3   OH226251   1.011   3.063  12.550 -0.5367  0.2583  0.3128
 1587TIP3    H126252   0.980   3.037  12.637 -0.8319  1.5628  0.6104
 1587TIP3    H226253   0.967   3.003  12.490 -1.4490  0.2836  0.9454
 1588TIP3   OH226254   6.576   5.286   3.890 -0.3033 -0.0319 -0.4959
 1588TIP3    H126255   6.491   5.324   3.913  0.8372  2.9823 -0.7444
 1588TIP3    H226256   6.622   5.357   3.846  2.2681 -1.6595 -0.6192
 1589TIP3   OH226257   0.592   4.163   1.838  0.1631  0.0470 -0.0962
 1589TIP3    H126258   0.618   4.241   1.887  1.4225 -0.7782  0.6179
 1589TIP3    H226259   0.641   4.168   1.757 -0.0904  0.2132 -0.2399
 1590TIP3   OH226260   5.161   5.919  15.636  0.3663 -0.1218 -0.0643
 1590TIP3    H126261   5.141   5.993  15.694 -0.8952 -0.1053 -0.4785
 1590TIP3    H226262   5.254   5.901  15.651  0.4838  0.9834  0.6862
 1591TIP3   OH226263   4.936   5.132  15.799 -0.7338 -0.8056  0.6014
 1591TIP3    H126264   4.971   5.074  15.866 -1.8092 -0.7651  1.2330
 1591TIP3    H226265   4.933   5.218  15.841  1.7221 -0.0274 -0.6282
 1592TIP3   OH226266   2.734   3.465   2.063  0.2876 -0.4353 -0.3280
 1592TIP3    H126267   2.738   3.384   2.012  0.3840 -0.8310  0.2884
 1592TIP3    H226268   2.785   3.446   2.142  0.4732  0.2943 -0.2678
 1593TIP3   OH226269   2.301   3.921  14.694 -0.0957 -0.1882 -0.0738
 1593TIP3    H126270   2.392   3.937  14.670 -0.2828 -0.3481 -0.9363
 1593TIP3    H226271   2.276   3.997  14.747  0.5195 -0.1159  0.1148
 1594TIP3   OH226272   2.322   2.823   2.343  0.5069 -1.1531 -0.4251
 1594TIP3    H126273   2.263   2.879   2.293 -0.8021 -0.8553  1.3407
 1594TIP3    H226274   2.329   2.866   2.428 -0.5602 -3.6170  1.0102
 1595TIP3   OH226275   3.178   5.300   5.213 -0.1418 -0.0744  0.3467
 1595TIP3    H126276   3.140   5.296   5.125 -0.7582  2.2337  0.4567
 1595TIP3    H226277   3.265   5.261   5.203  0.1280  0.8895 -1.5092
 1596TIP3   OH226278   5.793   6.215  16.126 -0.4760  0.1216  0.1071
 1596TIP3    H126279   5.800   6.287  16.063  0.2159 -0.8100 -0.9232
 1596TIP3    H226280   5.782   6.258  16.210  2.1723  1.5194 -0.1511
 1597TIP3   OH226281   3.470   1.099   6.420  0.0726  0.3535  0.0779
 1597TIP3    H126282   3.506   1.178   6.460  0.8359  0.4389 -0.7465
 1597TIP3    H226283   3.447   1.043   6.494  1.1864  0.6257  0.6491
 1598TIP3   OH226284   6.137   6.630  10.760 -0.8712  0.0643 -0.7695
 1598TIP3    H126285   6.211   6.587  10.718 -0.3392 -0.0885  0.2772
 1598TIP3    H226286   6.148   6.723  10.739 -0.1606  0.0920 -0.3174
 1599TIP3   OH226287   2.751   3.995   2.904  0.0943  0.3600  0.0478
 1599TIP3    H126288   2.837   4.032   2.883  1.0338 -0.5823  2.0144
 1599TIP3    H226289   2.769   3.928   2.969 -1.9339 -1.2684 -0.9543
 1600TIP3   OH226290   0.631   0.735  11.699  0.3611 -0.1060 -0.7862
 1600TIP3    H126291   0.637   0.727  11.604 -2.3741 -0.2833 -1.0011
 1600TIP3    H226292   0.667   0.652  11.733  0.3282 -0.5048 -1.7122
 1601TIP3   OH226293   2.495   2.971  13.882 -0.0963 -0.2567 -0.5878
 1601TIP3    H126294   2.523   2.943  13.970 -0.4984  0.3197 -0.2684
 1601TIP3    H226295   2.570   2.953  13.826 -0.1694 -1.5028 -0.3053
 1602TIP3   OH226296   0.079   4.693   2.715 -0.3551 -0.1236 -0.0544
 1602TIP3    H126297   0.134   4.637   2.770  0.2580 -0.5788 -1.0989
 1602TIP3    H226298   0.081   4.651   2.629 -0.5840  1.0368 -0.6445
 1603TIP3   OH226299   3.192   5.876   0.980  0.2521 -0.0432 -0.0170
 1603TIP3    H126300   3.205   5.957   1.030 -0.6170 -0.6344  1.2262
 1603TIP3    H226301   3.237   5.892   0.897  4.8167 -0.2020  2.1034
 1604TIP3   OH226302   0.776   5.961  13.263 -0.5656 -0.1011  0.1323
 1604TIP3    H126303   0.800   6.032  13.203  0.7097  1.4877  2.3717
 1604TIP3    H226304   0.690   5.985  13.296 -1.6598 -1.4210 -1.5869
 1605TIP3   OH226305   4.944   3.776  15.797  0.0468 -0.3560 -0.4188
 1605TIP3    H126306   5.000   3.704  15.769 -1.2273 -1.4935 -0.1682
 1605TIP3    H226307   4.939   3.767  15.892  0.3636  0.4302 -0.3281
 1606TIP3   OH226308   5.988   1.111   4.631  0.4175  0.6294  0.4720
 1606TIP3    H126309   6.066   1.071   4.669  0.6703  2.6154  2.2208
 1606TIP3    H226310   5.918   1.047   4.647  1.2499 -0.1801  0.9636
 1607TIP3   OH226311   5.641   5.802  16.861  0.1610  0.5935  0.6279
 1607TIP3    H126312   5.652   5.853  16.780  1.0196 -3.4776 -2.1228
 1607TIP3    H226313   5.646   5.867  16.931 -0.6503  4.4259 -2.5202
 1608TIP3   OH226314   3.299   1.860   2.155 -0.2838  0.4723 -0.2729
 1608TIP3    H126315   3.344   1.888   2.075 -0.4161  0.2806 -0.4158
 1608TIP3    H226316   3.221   1.815   2.124  0.0655 -0.3011 -0.0506
 1609TIP3   OH226317   4.237   1.047  12.052 -0.0184  0.4038  0.0303
 1609TIP3    H126318   4.257   1.106  11.980  0.9083  0.3359  0.2176
 1609TIP3    H226319   4.317   1.045  12.105  1.9794 -4.6336 -2.4558
 1610TIP3   OH226320   4.002   6.206   1.677  0.1079  0.2603 -0.0266
 1610TIP3    H126321   3.948   6.152   1.735 -0.5515 -0.6864 -1.4649
 1610TIP3    H226322   4.092   6.187   1.703 -0.1716 -0.3122  0.5400
 1611TIP3   OH226323   1.310   0.180   4.322 -0.1328  0.4020  0.6566
 1611TIP3    H126324   1.351   0.255   4.366  0.2819 -0.4149  1.6979
 1611TIP3    H226325   1.219   0.183   4.350  0.1062 -0.0522  1.4878
 1612TIP3   OH226326   0.192   6.413   3.445 -0.7186 -0.1581 -0.1331
 1612TIP3    H126327   0.128   6.479   3.421 -0.0306  0.5926  0.0292
 1612TIP3    H226328   0.259   6.461   3.494 -0.8971 -1.2157  1.2306
 1613TIP3   OH226329   3.958   4.589   1.060  0.2870  0.0435 -0.4849
 1613TIP3    H126330   4.013   4.590   0.982 -1.0540 -0.2322 -1.4587
 1613TIP3    H226331   3.907   4.670   1.054  1.1898  0.7743  0.8989
 1614TIP3   OH226332   6.129   4.685   2.154  0.1635  0.3628  0.3489
 1614TIP3    H126333   6.191   4.655   2.087  1.0636  1.4184  0.6859
 1614TIP3    H226334   6.183   4.729   2.219 -0.7608 -0.2064  1.5343
 1615TIP3   OH226335   0.909   2.338   1.472  0.1354  0.2918  0.1364
 1615TIP3    H126336   0.971   2.383   1.529 -0.4720  0.4224  0.7021
 1615TIP3    H226337   0.887   2.257   1.518 -1.9228  1.3416  1.0988
 1616TIP3   OH226338   0.884   3.294  17.029  0.4492 -0.7099  0.5313
 1616TIP3    H126339   0.968   3.299  16.983 -0.1199 -0.5820 -0.5488
 1616TIP3    H226340   0.838   3.221  16.987 -0.1967 -0.4115  0.7045
 1617TIP3   OH226341   1.546   4.354   4.516  0.2545 -0.0028 -0.6693
 1617TIP3    H126342   1.495   4.435   4.516  0.5777  0.2120 -1.4701
 1617TIP3    H226343   1.482   4.285   4.531  0.0624  0.4433  0.6933
 1618TIP3   OH226344   3.787   6.177  14.937 -0.2620 -0.0117  0.2924
 1618TIP3    H126345   3.780   6.267  14.905  1.4542 -0.3269 -1.1025
 1618TIP3    H226346   3.880   6.164  14.955  0.1415 -2.4565 -2.7245
 1619TIP3   OH226347   1.576   6.593  13.513 -0.0618 -0.6248  0.1033
 1619TIP3    H126348   1.594   6.546  13.431  1.9818 -2.3709  1.4735
 1619TIP3    H226349   1.489   6.562  13.540 -1.0973  0.5194 -1.6854
 1620TIP3   OH226350   0.088   2.411   4.248  0.0962 -0.3090 -0.0818
 1620TIP3    H126351   0.068   2.416   4.342  3.0031  0.7379  0.5661
 1620TIP3    H226352   0.058   2.495   4.212  1.1675  0.2966  0.4118
 1621TIP3   OH226353   3.700   2.621   0.860  0.1188 -0.5445  0.4266
 1621TIP3    H126354   3.640   2.669   0.804  0.7703 -0.3916 -0.1647
 1621TIP3    H226355   3.739   2.688   0.916  1.6485 -0.1994 -0.9650
 1622TIP3   OH226356   6.825   3.034   1.734 -0.5421  0.4427 -0.4971
 1622TIP3    H126357   6.768   3.094   1.783 -0.3436 -0.2418  0.6112
 1622TIP3    H226358   6.853   3.085   1.658  0.0799  1.9663  0.6934
 1623TIP3   OH226359   3.911   5.992  12.553  0.5356 -0.2795  0.3100
 1623TIP3    H126360   3.902   5.951  12.467 -0.1260  0.9313 -0.2207
 1623TIP3    H226361   4.002   5.978  12.577 -0.1789 -4.3320  1.3761
 1624TIP3   OH226362   5.889   5.330   4.299  0.4316 -0.0501  0.1902
 1624TIP3    H126363   5.886   5.413   4.253 -0.2916  0.2182  0.6988
 1624TIP3    H226364   5.806   5.287   4.277  0.2429 -0.0782  0.9312
 1625TIP3   OH226365   1.617   2.765  16.739 -0.2084 -0.8485  0.8528
 1625TIP3    H126366   1.581   2.707  16.672 -0.7700  0.1386  0.2671
 1625TIP3    H226367   1.586   2.852  16.714  1.8613 -0.0763  0.8498
 1626TIP3   OH226368   2.358   1.570   1.466 -0.1795 -0.2972  0.5409
 1626TIP3    H126369   2.406   1.622   1.530 -1.5931  0.1164  1.2954
 1626TIP3    H226370   2.267   1.597   1.477 -0.7034 -1.6739 -0.2654
 1627TIP3   OH226371   0.143   4.057   3.230 -0.6682 -0.2531 -0.1871
 1627TIP3    H126372   0.226   4.019   3.200 -0.7854  0.5892 -1.6534
 1627TIP3    H226373   0.124   4.126   3.168 -1.4974  0.8847  1.2680
 1628TIP3   OH226374   2.683   3.679  17.052  0.0039 -0.1672 -0.2459
 1628TIP3    H126375   2.654   3.598  17.010 -0.4809 -0.5358  0.7600
 1628TIP3    H226376   2.778   3.670  17.060  0.0616 -0.2323 -0.9552
 1629TIP3   OH226377   5.999   5.819  14.961 -0.2744  0.0421 -0.6349
 1629TIP3    H126378   5.999   5.881  15.034 -1.9867 -0.1079 -0.4538
 1629TIP3    H226379   5.940   5.858  14.897 -1.0512 -1.1763 -0.6978
 1630TIP3   OH226380   0.916   1.458  14.665 -0.0200 -0.0226 -0.4508
 1630TIP3    H126381   0.829   1.490  14.692  0.1566 -0.5150  0.7462
 1630TIP3    H226382   0.923   1.484  14.573 -0.6375  1.7686 -0.0335
 1631TIP3   OH226383   2.633   4.806  11.173 -0.7562  0.4504  0.5724
 1631TIP3    H126384   2.569   4.759  11.227 -1.7151 -0.0496 -0.9652
 1631TIP3    H226385   2.684   4.737  11.131 -0.5414  0.8242  0.2152
 1632TIP3   OH226386   4.259   4.220  12.520 -0.1085 -0.1739  0.1913
 1632TIP3    H126387   4.223   4.282  12.584 -0.2032 -0.5666  0.5225
 1632TIP3    H226388   4.184   4.192  12.468 -0.1159 -0.2395  0.2372
 1633TIP3   OH226389   3.910   0.010  11.600 -0.8292  0.8442 -0.1557
 1633TIP3    H126390   3.972   0.082  11.597  1.5317 -1.0780 -1.2521
 1633TIP3    H226391   3.909  -0.025  11.511 -0.2406 -1.7258  0.7598
 1634TIP3   OH226392   1.721   2.673   6.746  0.2360 -0.1795  0.7791
 1634TIP3    H126393   1.651   2.666   6.680  0.8880  0.0242  0.0535
 1634TIP3    H226394   1.762   2.587   6.747 -0.0737 -0.3215  1.2606
 1635TIP3   OH226395   3.681   0.595   5.600 -0.0505  0.0908  0.3763
 1635TIP3    H126396   3.768   0.566   5.571 -0.4260 -1.7921  0.9783
 1635TIP3    H226397   3.691   0.688   5.617  2.5473 -0.4975  2.8014
 1636TIP3   OH226398   4.519   6.234   0.489 -0.1022 -0.0591  0.1213
 1636TIP3    H126399   4.510   6.271   0.577  0.1973  1.8392 -0.5894
 1636TIP3    H226400   4.507   6.140   0.501 -1.4523  0.2919  1.9802
 1637TIP3   OH226401   1.863   5.001  11.704 -0.2713 -0.1089 -0.3608
 1637TIP3    H126402   1.873   5.044  11.788 -2.0894  0.6728 -0.4803
 1637TIP3    H226403   1.920   5.049  11.645 -1.1786  1.2716 -0.1731
 1638TIP3   OH226404   3.942   6.080   0.872 -0.1668  0.8239 -0.0460
 1638TIP3    H126405   3.902   6.081   0.785 -0.5137 -0.5322  0.0748
 1638TIP3    H226406   4.022   6.030   0.860 -0.4820  0.1766  0.5204
 1639TIP3   OH226407   6.618   3.836  13.080  0.0428  0.4051 -0.6960
 1639TIP3    H126408   6.593   3.928  13.066  0.8004  0.5398 -1.2187
 1639TIP3    H226409   6.554   3.786  13.030 -0.4245  0.6413 -0.3428
 1640TIP3   OH226410   1.674   6.082  11.338  0.1081  0.3569  0.5496
 1640TIP3    H126411   1.730   6.153  11.370 -0.6604  1.4095 -0.3941
 1640TIP3    H226412   1.676   6.091  11.243 -0.6912 -0.3613  0.4570
 1641TIP3   OH226413   2.994   1.892  14.577  0.2439 -0.1974  0.0636
 1641TIP3    H126414   3.053   1.924  14.508 -1.4863  0.7122 -1.0687
 1641TIP3    H226415   2.967   1.805  14.546 -1.1890  0.5458 -0.9179
 1642TIP3   OH226416   2.894   3.666   1.403  0.2965 -0.0634 -0.2850
 1642TIP3    H126417   2.805   3.699   1.392 -0.2189 -1.5081 -0.6654
 1642TIP3    H226418   2.901   3.594   1.341  2.0729  0.6170 -0.9509
 1643TIP3   OH226419   4.642   1.799  14.426 -0.7548 -0.5181  0.4419
 1643TIP3    H126420   4.699   1.809  14.350 -0.2148  1.0570  1.0197
 1643TIP3    H226421   4.683   1.730  14.478  0.4983  0.3999  0.7126
 1644TIP3   OH226422   5.424   2.139   5.517 -0.2851 -0.2488  0.0260
 1644TIP3    H126423   5.401   2.106   5.604 -2.1967 -1.2462 -0.7955
 1644TIP3    H226424   5.345   2.184   5.487  0.4303  0.3024 -1.1064
 1645TIP3   OH226425   5.824   3.892   4.671 -0.0026 -0.8479  0.1667
 1645TIP3    H126426   5.803   3.945   4.595 -0.0315 -2.1130 -0.7468
 1645TIP3    H226427   5.766   3.923   4.740  1.4434  1.7431  0.3382
 1646TIP3   OH226428   2.432   0.488   5.915 -0.4851  0.2454 -0.1980
 1646TIP3    H126429   2.464   0.406   5.877 -1.4403 -0.0932 -0.3123
 1646TIP3    H226430   2.437   0.474   6.010 -0.8408 -0.0349 -0.2174
 1647TIP3   OH226431   5.993   4.358   0.804 -0.0124  0.0645  0.4301
 1647TIP3    H126432   6.057   4.291   0.779  0.8509  0.5065  1.3981
 1647TIP3    H226433   6.046   4.432   0.832 -0.8361 -0.4689  3.8157
 1648TIP3   OH226434   5.511   1.389  13.591  0.4483  0.8777 -0.0530
 1648TIP3    H126435   5.494   1.348  13.676 -0.4768 -2.0959 -1.5158
 1648TIP3    H226436   5.606   1.391  13.583  0.5309 -0.3641  0.4027
 1649TIP3   OH226437   5.174   4.335   2.863 -0.3295  0.0218 -0.4691
 1649TIP3    H126438   5.264   4.349   2.893 -0.4922  0.1792 -0.0353
 1649TIP3    H226439   5.181   4.329   2.768  0.4267 -2.1800 -0.3315
 1650TIP3   OH226440   6.388   4.472  13.338  0.6533  0.4029 -0.2132
 1650TIP3    H126441   6.480   4.491  13.317  0.5161  0.7147 -0.5497
 1650TIP3    H226442   6.390   4.446  13.430  1.2019 -0.5042 -0.4712
 1651TIP3   OH226443   5.776   3.370  10.789 -0.4204 -0.4549 -0.6438
 1651TIP3    H126444   5.754   3.358  10.696 -3.7149 -0.9180  0.0823
 1651TIP3    H226445   5.692   3.374  10.833  1.0589 -0.5787  2.4207
 1652TIP3   OH226446   1.490   2.972  15.949  0.0905 -0.0242  0.0353
 1652TIP3    H126447   1.434   2.924  16.010 -0.2064 -1.0840 -1.0358
 1652TIP3    H226448   1.568   2.918  15.940  0.8088  0.8811  0.6281
 1653TIP3   OH226449   2.738   6.298   5.921  0.3173  0.2887  0.5226
 1653TIP3    H126450   2.642   6.303   5.926  0.2514 -0.7699  0.5499
 1653TIP3    H226451   2.762   6.357   5.850 -0.3245  0.8065  0.7256
 1654TIP3   OH226452   1.769   5.296  12.518  0.5187 -0.2505 -0.0718
 1654TIP3    H126453   1.754   5.387  12.546 -0.6832 -0.6472  0.6706
 1654TIP3    H226454   1.864   5.287  12.517  0.6509  0.4660  1.7573
 1655TIP3   OH226455   2.568   0.851  11.020 -0.3227  0.5249  0.2402
 1655TIP3    H126456   2.513   0.902  11.080 -0.4430 -1.0914  1.5641
 1655TIP3    H226457   2.552   0.890  10.934 -2.4377  1.0197  0.7962
 1656TIP3   OH226458   3.520   5.713  12.790  0.0191 -0.0226  0.7243
 1656TIP3    H126459   3.518   5.793  12.738  2.9966  0.2496  0.8586
 1656TIP3    H226460   3.537   5.743  12.880  2.0337 -0.7604  0.6450
 1657TIP3   OH226461   1.359   4.000  16.982  0.5805 -0.7056  0.6929
 1657TIP3    H126462   1.410   4.045  16.914  0.3659 -0.9614  0.3580
 1657TIP3    H226463   1.350   4.065  17.051  1.0854 -0.5500  0.6194
 1658TIP3   OH226464   6.726   0.434   0.886 -0.2477 -0.3701  0.2579
 1658TIP3    H126465   6.691   0.479   0.962 -1.4565  0.7327 -0.9065
 1658TIP3    H226466   6.685   0.348   0.887 -0.3038 -0.3359  0.8013
 1659TIP3   OH226467   5.636   2.951  11.838  0.7415  0.1096  0.1206
 1659TIP3    H126468   5.677   2.865  11.849  1.4118  0.3646 -0.3124
 1659TIP3    H226469   5.543   2.932  11.829  0.9197 -0.5995 -0.3100
 1660TIP3   OH226470   1.757   3.622   1.887  0.1295 -0.0870  0.0641
 1660TIP3    H126471   1.792   3.688   1.827 -0.8011 -1.5607 -2.2668
 1660TIP3    H226472   1.692   3.668   1.939 -0.3395  0.9049 -1.3364
 1661TIP3   OH226473   5.917   3.819  11.961 -0.1863  0.1415  0.0543
 1661TIP3    H126474   5.896   3.728  11.939 -1.0871  0.6183 -1.1839
 1661TIP3    H226475   5.833   3.856  11.990  0.2213  0.5320  0.7705
 1662TIP3   OH226476   0.120   5.601   2.855 -0.2326 -0.1660  0.0609
 1662TIP3    H126477   0.036   5.576   2.816 -0.4298  1.2833 -0.5084
 1662TIP3    H226478   0.115   5.696   2.865  0.9808 -0.1632  0.8990
 1663TIP3   OH226479   1.037   0.910   4.450  0.0108  0.2516  0.1538
 1663TIP3    H126480   0.978   0.906   4.374  0.0673 -1.1253  0.1537
 1663TIP3    H226481   1.018   0.994   4.490 -1.6773  0.0307 -0.0817
 1664TIP3   OH226482   4.740   1.950  11.254  0.4138 -0.1633 -0.1085
 1664TIP3    H126483   4.718   1.904  11.173  1.4221  2.6408 -2.1460
 1664TIP3    H226484   4.665   1.936  11.311 -0.5350 -1.8961 -1.6795
 1665TIP3   OH226485   1.330   4.704   3.492 -0.5446  0.1693 -0.5198
 1665TIP3    H126486   1.380   4.713   3.411 -0.9000  1.1270 -0.6402
 1665TIP3    H226487   1.314   4.610   3.500 -1.1350  0.1275 -1.9451
 1666TIP3   OH226488   0.398   4.730   3.386 -0.0234 -0.6566  1.1374
 1666TIP3    H126489   0.488   4.764   3.388 -0.5789  0.8372  1.8516
 1666TIP3    H226490   0.405   4.642   3.423  1.1555 -0.6231  1.0352
 1667TIP3   OH226491   4.728   1.955  16.132  0.2259 -0.0506 -0.7107
 1667TIP3    H126492   4.687   1.895  16.195 -0.2260  2.1077  1.1868
 1667TIP3    H226493   4.656   2.010  16.100  0.9482  0.9282 -0.6994
 1668TIP3   OH226494   0.627   3.393  15.459 -0.5594  0.7593 -0.2310
 1668TIP3    H126495   0.576   3.333  15.513  0.3430 -0.3184 -0.5284
 1668TIP3    H226496   0.579   3.476  15.463 -2.8591 -0.3963 -1.2124
 1669TIP3   OH226497   4.456   2.066   1.048  0.1028  0.1914 -0.0321
 1669TIP3    H126498   4.386   2.097   1.107  0.6258 -0.4861  0.9639
 1669TIP3    H226499   4.537   2.087   1.094  0.5290 -0.0836 -0.6508
 1670TIP3   OH226500   1.828   6.606  14.664 -0.0642  0.3295  0.3307
 1670TIP3    H126501   1.830   6.537  14.731  0.1491 -0.0520 -0.0646
 1670TIP3    H226502   1.735   6.616  14.645 -0.0496 -0.4746 -0.2357
 1671TIP3   OH226503   4.505   2.576  15.039 -0.3514  0.1522  0.1963
 1671TIP3    H126504   4.468   2.658  15.004 -2.6147 -1.2458 -0.8983
 1671TIP3    H226505   4.554   2.604  15.116 -1.9631  2.4415  0.5204
 1672TIP3   OH226506   4.742   6.327   3.215  0.5868 -0.4347  0.1146
 1672TIP3    H126507   4.748   6.399   3.279  2.6249 -0.2147 -0.2417
 1672TIP3    H226508   4.813   6.268   3.240 -0.0741 -1.5251 -0.5528
 1673TIP3   OH226509   1.251   0.059   5.913 -0.3931 -0.2174 -0.2336
 1673TIP3    H126510   1.199   0.109   5.976  0.3433  0.1950  0.0517
 1673TIP3    H226511   1.189  -0.003   5.875 -1.6752  1.7437 -1.5428
 1674TIP3   OH226512   5.762   0.626  16.595 -0.1181  0.3336  0.3512
 1674TIP3    H126513   5.699   0.602  16.528 -0.5655  1.2878  0.4072
 1674TIP3    H226514   5.774   0.547  16.647  2.6335 -1.4691 -2.6456
 1675TIP3   OH226515   4.051   6.751   4.477 -0.2492  0.1194 -0.0080
 1675TIP3    H126516   3.962   6.786   4.470 -0.6595 -0.5664  1.3921
 1675TIP3    H226517   4.041   6.657   4.462  0.7598  0.4196 -3.2104
 1676TIP3   OH226518   1.372   1.986  11.081 -0.1168  0.1404 -0.2346
 1676TIP3    H126519   1.344   2.077  11.072 -0.4818  0.0818  0.2721
 1676TIP3    H226520   1.342   1.943  11.001 -1.2761  0.1314  0.1954
 1677TIP3   OH226521   6.405   1.712  12.664  0.0543  0.0996  0.1919
 1677TIP3    H126522   6.381   1.778  12.599 -0.0406  0.0779  0.2052
 1677TIP3    H226523   6.351   1.636  12.643  1.2538 -0.5309 -0.7857
 1678TIP3   OH226524   1.982   1.370   4.140 -0.2615 -0.4118 -0.5851
 1678TIP3    H126525   2.046   1.400   4.205 -0.4405  0.3310 -0.7336
 1678TIP3    H226526   1.953   1.451   4.097  0.8141 -0.9756 -2.5147
 1679TIP3   OH226527   2.654   6.608  15.169  0.1156  0.9295 -0.5265
 1679TIP3    H126528   2.629   6.672  15.236  1.4135  1.8160 -0.8636
 1679TIP3    H226529   2.612   6.526  15.198  0.8486  1.2270  1.5138
 1680TIP3   OH226530   2.102   2.538  16.396 -0.3998  0.3262 -0.0244
 1680TIP3    H126531   2.104   2.458  16.448  1.8117 -0.1044 -0.6693
 1680TIP3    H226532   2.132   2.511  16.309 -1.2944  1.5524 -0.7454
 1681TIP3   OH226533   6.716   3.608   1.182  0.4041  0.0413 -0.2106
 1681TIP3    H126534   6.757   3.587   1.266  0.0266  0.6249  0.1317
 1681TIP3    H226535   6.625   3.581   1.193  0.2889  0.3797 -0.3296
 1682TIP3   OH226536   4.347   5.812   6.809 -0.2151 -0.1210 -0.1982
 1682TIP3    H126537   4.286   5.876   6.847  0.6690  1.4930 -1.4088
 1682TIP3    H226538   4.433   5.844   6.834  0.3471  0.4213 -2.6311
 1683TIP3   OH226539   0.063   5.905  13.245 -0.0407 -0.2231  0.2105
 1683TIP3    H126540   0.101   5.926  13.160  1.9089 -0.5580  0.9530
 1683TIP3    H226541   0.029   5.816  13.236  0.8829 -0.5590  0.0030
 1684TIP3   OH226542   4.186   2.185   3.603  0.4876  0.4468 -0.6375
 1684TIP3    H126543   4.173   2.143   3.518  0.0206 -1.0226  0.1265
 1684TIP3    H226544   4.281   2.181   3.617  0.5708  0.7261 -1.1009
 1685TIP3   OH226545   6.374   6.439  11.996 -0.1043 -0.1554  0.1993
 1685TIP3    H126546   6.402   6.432  12.087  1.3937  2.6921  0.0954
 1685TIP3    H226547   6.414   6.364  11.953 -2.1625 -2.4797  2.0549
 1686TIP3   OH226548   3.835   0.516  14.690  0.5659 -0.3448  0.0450
 1686TIP3    H126549   3.826   0.546  14.780 -0.0773 -0.0845 -0.0969
 1686TIP3    H226550   3.926   0.487  14.683  1.1861  1.4263  0.2454
 1687TIP3   OH226551   5.334   3.217   3.510 -0.8135 -0.0546 -0.2758
 1687TIP3    H126552   5.239   3.221   3.502 -1.0784 -0.4198  1.9087
 1687TIP3    H226553   5.349   3.173   3.594  1.2404  2.0213  0.5518
 1688TIP3   OH226554   5.007   1.634  16.141 -0.7994 -0.0935 -0.1564
 1688TIP3    H126555   4.938   1.589  16.190 -0.5536  0.2819  0.5489
 1688TIP3    H226556   5.083   1.631  16.199 -0.3481 -0.1070 -0.7408
 1689TIP3   OH226557   5.540   1.525  11.872  0.2165  0.4847  0.1537
 1689TIP3    H126558   5.506   1.551  11.957 -0.0074  0.2283  0.1424
 1689TIP3    H226559   5.544   1.607  11.822 -0.5622  0.4837  0.0911
 1690TIP3   OH226560   3.842   4.407   3.919 -0.3837  0.1584  0.2137
 1690TIP3    H126561   3.907   4.432   3.852  0.0013 -0.0147  0.5202
 1690TIP3    H226562   3.777   4.477   3.915  0.0009  0.5195  0.1397
 1691TIP3   OH226563   1.715   1.228  15.709 -0.2824 -0.4883 -0.0979
 1691TIP3    H126564   1.750   1.157  15.656 -0.8825 -0.1577 -0.9564
 1691TIP3    H226565   1.720   1.305  15.652 -0.1911  0.0396  0.6110
 1692TIP3   OH226566   6.226   5.333   2.877 -0.4191  0.4221 -0.3971
 1692TIP3    H126567   6.204   5.281   2.954 -0.0308  0.1637 -0.4542
 1692TIP3    H226568   6.322   5.339   2.880 -0.2080 -1.2693 -1.9255
 1693TIP3   OH226569   1.190   3.241  14.988  0.2827 -0.0866 -0.3857
 1693TIP3    H126570   1.133   3.203  14.921  1.0724 -0.2490 -0.9783
 1693TIP3    H226571   1.130   3.270  15.056 -0.4671 -0.8175 -0.7135
 1694TIP3   OH226572   6.763   6.392  11.066  0.6025 -0.2690  0.4235
 1694TIP3    H126573   6.687   6.441  11.036 -0.7897 -1.7039  1.4632
 1694TIP3    H226574   6.743   6.370  11.157  3.1929  1.0769  1.4464
 1695TIP3   OH226575   3.622   6.818   0.785  0.4678 -0.8040 -0.2509
 1695TIP3    H126576   3.700   6.771   0.754  1.6543  0.2267  1.0270
 1695TIP3    H226577   3.549   6.768   0.750  1.6938 -1.9044 -1.3800
 1696TIP3   OH226578   5.127   0.703   2.461 -0.4935  0.3646  0.2618
 1696TIP3    H126579   5.144   0.719   2.554  0.1852  0.5290  0.1133
 1696TIP3    H226580   5.045   0.654   2.460  0.6549 -1.7086  1.1035
 1697TIP3   OH226581   0.726   4.262  10.471 -0.2099  0.4007  0.6180
 1697TIP3    H126582   0.717   4.357  10.473 -0.3892  0.3750  1.0583
 1697TIP3    H226583   0.643   4.232  10.433 -0.9381  0.3204  2.1967
 1698TIP3   OH226584   2.485   1.795   5.196  0.0582  0.0191 -0.6092
 1698TIP3    H126585   2.441   1.866   5.149 -0.8973  1.0513  1.6995
 1698TIP3    H226586   2.575   1.798   5.163 -0.9629 -0.7817 -3.9045
 1699TIP3   OH226587   2.506   5.568   4.469  0.3420  0.4232 -0.1207
 1699TIP3    H126588   2.572   5.557   4.401 -0.7738 -0.7433 -1.0717
 1699TIP3    H226589   2.488   5.479   4.500  0.4450  0.8842  1.3519
 1700TIP3   OH226590   3.375   1.561   1.957 -0.1551 -0.2385 -0.2070
 1700TIP3    H126591   3.330   1.585   2.038  1.2028  0.9159  0.2383
 1700TIP3    H226592   3.444   1.500   1.986  1.6912  1.7660 -0.1135
 1701TIP3   OH226593   1.086   5.978  13.756 -0.2115  0.3093  0.5942
 1701TIP3    H126594   1.030   5.981  13.833 -2.4473  0.3823 -0.9416
 1701TIP3    H226595   1.029   6.002  13.683  1.5989 -0.5274 -1.2273
 1702TIP3   OH226596   3.853   1.944   2.089  0.4729 -0.4164 -0.4842
 1702TIP3    H126597   3.796   2.013   2.058  1.0406  0.3530  0.1190
 1702TIP3    H226598   3.844   1.946   2.185  0.0589 -1.5669 -0.4864
 1703TIP3   OH226599   5.391   3.791   3.410  0.5598  0.2058 -0.7130
 1703TIP3    H126600   5.380   3.696   3.407  1.3858  0.1188 -1.8887
 1703TIP3    H226601   5.322   3.822   3.469  1.9168 -1.3437  1.8382
 1704TIP3   OH226602   5.827   2.817  16.708 -0.0167  0.0814 -0.1525
 1704TIP3    H126603   5.891   2.845  16.644  1.2192  0.0558  1.0334
 1704TIP3    H226604   5.803   2.728  16.681  0.3506  0.1408 -0.6742
 1705TIP3   OH226605   0.197   6.112  16.863 -0.1635  0.4026  0.2426
 1705TIP3    H126606   0.244   6.082  16.941  0.9492  0.3341 -0.4289
 1705TIP3    H226607   0.233   6.199  16.845  0.4669 -0.0652 -0.8660
 1706TIP3   OH226608   5.678   3.434  11.560  0.1401  0.3712  0.2587
 1706TIP3    H126609   5.615   3.504  11.572 -1.0837 -0.1324 -2.4660
 1706TIP3    H226610   5.665   3.377  11.635 -1.3472  1.2525  0.7122
 1707TIP3   OH226611   5.746   2.575  16.570  0.0788  0.2758  0.0211
 1707TIP3    H126612   5.814   2.603  16.509 -1.4764  1.5681 -1.2063
 1707TIP3    H226613   5.665   2.574  16.518 -0.9127 -0.9720  1.4756
 1708TIP3   OH226614   1.180   2.089   2.791  0.4563  0.5518 -0.0093
 1708TIP3    H126615   1.133   2.159   2.746 -0.1844  0.6423  0.7676
 1708TIP3    H226616   1.224   2.040   2.722 -1.5430 -0.0879 -0.9019
 1709TIP3   OH226617   0.727   3.722  16.057 -0.3904 -0.1726 -0.4049
 1709TIP3    H126618   0.705   3.810  16.088 -0.2832 -0.6688  1.1116
 1709TIP3    H226619   0.809   3.701  16.100 -0.8483 -1.3630 -0.0941
 1710TIP3   OH226620   0.606   4.313  12.831  0.1386  0.0080  0.3422
 1710TIP3    H126621   0.561   4.289  12.912  0.5092 -0.5988  0.3753
 1710TIP3    H226622   0.536   4.332  12.769 -0.1510 -0.0519  0.6467
 1711TIP3   OH226623   4.416   1.938  11.936 -0.7154 -0.0745  0.2013
 1711TIP3    H126624   4.336   1.969  11.894 -0.4140  0.3940 -0.0284
 1711TIP3    H226625   4.391   1.923  12.027 -1.7440 -2.3906 -0.3737
 1712TIP3   OH226626   4.466   6.602  11.744 -0.2681 -0.0172  0.6761
 1712TIP3    H126627   4.560   6.620  11.737 -0.3445  0.5636  1.0667
 1712TIP3    H226628   4.454   6.520  11.697  0.4307 -0.0755  0.5851
 1713TIP3   OH226629   5.550   3.509   1.130  0.1923  0.4628 -0.8607
 1713TIP3    H126630   5.582   3.542   1.214 -0.3146  0.7287 -0.7637
 1713TIP3    H226631   5.549   3.414   1.141 -0.9974  0.5307 -0.1224
 1714TIP3   OH226632   2.082   1.871   0.981  0.1026 -0.3356  0.1110
 1714TIP3    H126633   2.007   1.828   0.939  1.7220 -2.6828 -0.6044
 1714TIP3    H226634   2.138   1.898   0.907 -1.1698  4.0601  0.4299
 1715TIP3   OH226635   3.236   3.577  12.456 -0.1401 -0.2365 -0.1456
 1715TIP3    H126636   3.199   3.650  12.407  2.2015  1.7717  0.8553
 1715TIP3    H226637   3.301   3.538  12.397 -1.1072 -1.3194 -0.5329
 1716TIP3   OH226638   6.687   5.525   0.285 -0.0612  0.2554  0.2287
 1716TIP3    H126639   6.634   5.454   0.249 -1.8301  1.0499  1.1029
 1716TIP3    H226640   6.682   5.595   0.219  0.1222  0.2347  0.1931
 1717TIP3   OH226641   2.841   2.403   4.646 -0.1024 -0.3977  0.1882
 1717TIP3    H126642   2.866   2.362   4.563  0.5208 -1.5935  0.9515
 1717TIP3    H226643   2.773   2.345   4.682 -1.8464  1.1767 -0.4001
 1718TIP3   OH226644   0.127   3.315   5.496  0.3037 -0.0697 -0.2614
 1718TIP3    H126645   0.158   3.359   5.575  0.6285 -3.8919  1.9410
 1718TIP3    H226646   0.206   3.298   5.445  0.4474 -0.0752 -0.0374
 1719TIP3   OH226647   0.430   4.976   5.368  0.0539  0.1254 -0.4999
 1719TIP3    H126648   0.396   4.977   5.458  2.1165  1.7896  0.3406
 1719TIP3    H226649   0.513   5.022   5.373  1.1804 -1.4105 -2.9306
 1720TIP3   OH226650   3.954   1.877  15.155  0.2638 -0.3666 -0.5996
 1720TIP3    H126651   3.924   1.967  15.163  0.6429 -0.1062 -1.8185
 1720TIP3    H226652   3.885   1.824  15.194  0.1340  0.4553  0.3190
 1721TIP3   OH226653   0.144   4.594   5.355  0.2989  0.0498  0.0538
 1721TIP3    H126654   0.233   4.589   5.320  0.5211 -0.5305  0.6857
 1721TIP3    H226655   0.105   4.509   5.333 -0.1584  0.3622 -0.3635
 1722TIP3   OH226656   4.961   1.334  10.498  0.4410  0.3147  0.3113
 1722TIP3    H126657   4.946   1.427  10.515 -2.5216 -0.1373  0.7328
 1722TIP3    H226658   4.879   1.291  10.523  1.5030 -2.3684 -0.3985
 1723TIP3   OH226659   6.393   2.971   4.704 -0.1950 -0.2080  0.4371
 1723TIP3    H126660   6.322   3.003   4.649 -0.0933 -2.4196 -1.1092
 1723TIP3    H226661   6.352   2.906   4.761  0.4326 -0.9110  0.0997
 1724TIP3   OH226662   2.905   1.842   4.532 -0.7475 -0.4069 -0.2300
 1724TIP3    H126663   2.921   1.773   4.596 -0.8878  0.2536  0.5287
 1724TIP3    H226664   2.845   1.903   4.576  0.1702  0.7232 -0.5043
 1725TIP3   OH226665   6.123   4.041  11.633  0.5757  0.6366  0.1149
 1725TIP3    H126666   6.167   3.956  11.637  2.0400  1.3917  1.3091
 1725TIP3    H226667   6.038   4.026  11.675  0.7719 -0.2658  0.2132
 1726TIP3   OH226668   1.916   3.652  16.992  0.4745 -1.2106  0.1811
 1726TIP3    H126669   1.891   3.732  16.947  4.4993  0.2122  0.1154
 1726TIP3    H226670   1.887   3.582  16.934  0.9828  0.3964 -2.1696
 1727TIP3   OH226671   0.461   2.853  12.508  0.4066  0.1677  0.1909
 1727TIP3    H126672   0.481   2.787  12.441 -0.5966  0.6947 -0.6423
 1727TIP3    H226673   0.542   2.902  12.518  0.5753  0.0712 -0.6278
 1728TIP3   OH226674   0.951   1.471   2.996  0.3019  0.5803  0.1546
 1728TIP3    H126675   0.946   1.381   2.963  1.1699  0.9403 -1.0136
 1728TIP3    H226676   1.030   1.507   2.955  0.0523  1.8214  0.7370
 1729TIP3   OH226677   4.503   1.513  15.182 -0.1392 -0.4252 -0.0733
 1729TIP3    H126678   4.576   1.478  15.233 -0.0607  0.6986  0.6158
 1729TIP3    H226679   4.455   1.435  15.153 -0.1698 -1.1289  1.6865
 1730TIP3   OH226680   3.043   0.726   2.498  0.1386 -0.4513  0.0455
 1730TIP3    H126681   3.045   0.781   2.419  0.4752  0.8708  0.9369
 1730TIP3    H226682   3.104   0.655   2.479 -0.6506 -0.7983 -1.3219
 1731TIP3   OH226683   1.667   5.267   5.203 -0.0549  0.5006  0.4835
 1731TIP3    H126684   1.717   5.207   5.258  0.2750 -0.5900 -0.9769
 1731TIP3    H226685   1.691   5.354   5.236  1.5120 -0.0542  0.9176
 1732TIP3   OH226686   5.213   3.207   5.986 -0.3101 -0.6035  0.0691
 1732TIP3    H126687   5.193   3.131   5.932 -1.3127 -0.6311  0.4640
 1732TIP3    H226688   5.230   3.278   5.923  0.8541 -1.1810 -0.3052
 1733TIP3   OH226689   3.243   3.730   0.978 -0.5597  0.7969 -0.1082
 1733TIP3    H126690   3.192   3.754   1.056  0.4126  2.1666  0.1559
 1733TIP3    H226691   3.238   3.807   0.922 -0.4705  0.1739 -0.9860
 1734TIP3   OH226692   5.462   0.696  13.339  0.4042 -0.0785  0.0132
 1734TIP3    H126693   5.527   0.656  13.281  0.5171 -0.2052  0.2262
 1734TIP3    H226694   5.505   0.775  13.373  0.3844 -0.0699  0.0184
 1735TIP3   OH226695   3.561   2.956  15.650 -0.0262  0.4796 -0.7027
 1735TIP3    H126696   3.619   2.992  15.583 -0.0907  1.1965 -0.3820
 1735TIP3    H226697   3.618   2.907  15.707  0.0836  0.1672 -1.0788
 1736TIP3   OH226698   2.645   5.686  15.690 -0.0942 -0.1425  0.8421
 1736TIP3    H126699   2.591   5.721  15.760  0.6531  0.2264  1.2474
 1736TIP3    H226700   2.621   5.736  15.613  0.0517  0.3907  1.1386
 1737TIP3   OH226701   3.462   3.930   0.136 -0.1617 -0.2366  0.3562
 1737TIP3    H126702   3.399   4.001   0.125  0.0711 -0.0702  0.0503
 1737TIP3    H226703   3.466   3.915   0.230 -0.9801 -0.5473  0.3469
 1738TIP3   OH226704   0.093   5.835   2.098  0.4952 -0.4007  0.2558
 1738TIP3    H126705   0.073   5.866   2.186  1.1121  0.2541  0.1803
 1738TIP3    H226706   0.047   5.752   2.090 -2.1147  0.9455  0.1011
 1739TIP3   OH226707   6.387   4.119   3.949  0.3629  0.4605  0.5365
 1739TIP3    H126708   6.353   4.056   4.011  1.3805 -0.8361 -0.1598
 1739TIP3    H226709   6.310   4.155   3.906 -0.2264 -0.9093  0.3952
 1740TIP3   OH226710   2.973   2.637   4.817 -0.1289  0.4846 -0.0783
 1740TIP3    H126711   3.002   2.563   4.762 -2.5103 -0.5610 -0.0512
 1740TIP3    H226712   2.993   2.715   4.765  1.6674 -0.2088 -0.4875
 1741TIP3   OH226713   1.247   2.784   1.581  0.7268  0.2950  0.8415
 1741TIP3    H126714   1.337   2.763   1.604  1.0574  0.3118 -0.3564
 1741TIP3    H226715   1.237   2.877   1.605  1.1487  0.3953  0.6408
 1742TIP3   OH226716   1.669   4.022   3.080  0.2668 -0.3900 -0.0337
 1742TIP3    H126717   1.659   3.954   3.013  0.7868 -0.1130 -0.4044
 1742TIP3    H226718   1.737   4.080   3.045 -0.0195  0.2062  0.3709
 1743TIP3   OH226719   3.791   6.528  15.248  1.1142  0.5645 -0.6750
 1743TIP3    H126720   3.801   6.578  15.329  0.4696  0.7804 -0.7282
 1743TIP3    H226721   3.723   6.463  15.268  2.0449 -0.4091 -0.5535
 1744TIP3   OH226722   4.079   0.305   0.257 -0.2617  0.1321  0.0329
 1744TIP3    H126723   4.167   0.313   0.220  0.2502 -0.6257  1.0100
 1744TIP3    H226724   4.094   0.302   0.352 -1.3538  0.0688  0.2115
 1745TIP3   OH226725   3.831   0.240  11.050 -0.5168 -0.6397  0.6504
 1745TIP3    H126726   3.878   0.161  11.079  1.0197  0.0513  0.1540
 1745TIP3    H226727   3.745   0.208  11.024 -0.7770 -1.7918  2.7159
 1746TIP3   OH226728   5.282   4.264   2.119 -0.4854  0.3998 -0.3007
 1746TIP3    H126729   5.248   4.187   2.074  2.1211 -0.2540 -1.2787
 1746TIP3    H226730   5.313   4.231   2.203 -1.9244  0.9539  0.4869
 1747TIP3   OH226731   6.307   5.119   4.759  0.1160  0.5843  0.9097
 1747TIP3    H126732   6.246   5.129   4.832 -1.4058 -0.2816 -0.1867
 1747TIP3    H226733   6.302   5.026   4.735  1.0593  0.7209  0.1063
 1748TIP3   OH226734   2.872   3.259  12.134 -0.0789 -0.2426 -0.3499
 1748TIP3    H126735   2.874   3.250  12.229  1.3266  1.4112 -0.1670
 1748TIP3    H226736   2.812   3.332  12.118  0.8480  0.5140 -0.5633
 1749TIP3   OH226737   3.739   2.349   1.572 -0.1821  0.0633  0.0482
 1749TIP3    H126738   3.787   2.325   1.493 -0.4814 -0.0548 -0.0985
 1749TIP3    H226739   3.800   2.404   1.621 -0.2290  0.6778 -0.5639
 1750TIP3   OH226740   1.681   5.508  13.412  0.0051  0.0294 -0.2941
 1750TIP3    H126741   1.755   5.486  13.469  0.2183  1.0148 -0.1873
 1750TIP3    H226742   1.687   5.602  13.399 -1.2008  0.1203 -0.3291
 1751TIP3   OH226743   3.027   0.072   1.946 -0.1140 -0.0438  0.1231
 1751TIP3    H126744   2.993   0.160   1.929 -0.4623  0.7780  4.0769
 1751TIP3    H226745   2.952   0.023   1.980  0.7511 -0.9098  0.8391
 1752TIP3   OH226746   0.793   1.430   2.195  0.4849 -0.0101  0.1112
 1752TIP3    H126747   0.864   1.494   2.184 -0.8837  1.2441 -2.3230
 1752TIP3    H226748   0.801   1.371   2.120 -0.0879 -0.8522  0.6934
 1753TIP3   OH226749   2.379   1.826   5.641 -0.1112 -0.5367 -0.1450
 1753TIP3    H126750   2.375   1.863   5.729 -0.9216 -2.7987  0.8366
 1753TIP3    H226751   2.292   1.842   5.604 -0.3909 -1.2298  0.1977
 1754TIP3   OH226752   5.234   6.781  14.053  0.2464 -0.0618 -0.5252
 1754TIP3    H126753   5.192   6.746  14.131 -0.7249  0.5586 -0.7512
 1754TIP3    H226754   5.185   6.743  13.980  2.1403 -1.9005 -0.9256
 1755TIP3   OH226755   3.377   2.498  14.141  0.2439  0.2075  0.5784
 1755TIP3    H126756   3.469   2.483  14.160 -0.0553 -1.4346  0.8507
 1755TIP3    H226757   3.332   2.483  14.224 -0.5847 -2.4165 -0.2507
 1756TIP3   OH226758   5.294   1.377   2.568 -0.0198 -0.1249 -0.1679
 1756TIP3    H126759   5.277   1.360   2.661  1.6173  0.2416  0.2387
 1756TIP3    H226760   5.322   1.469   2.566 -0.1383 -0.1080 -1.0311
 1757TIP3   OH226761   5.901   4.577  11.288  0.5915 -0.3005  0.0156
 1757TIP3    H126762   5.940   4.664  11.276  1.8637 -1.1618 -2.6196
 1757TIP3    H226763   5.886   4.545  11.200 -3.6575 -1.2035  0.8555
 1758TIP3   OH226764   3.952   0.912   6.236 -0.0860  0.3392  0.0887
 1758TIP3    H126765   3.906   0.990   6.265 -2.0730 -0.1821 -1.4671
 1758TIP3    H226766   3.914   0.841   6.288  2.7470  0.4499  2.5910
 1759TIP3   OH226767   5.015   1.344  15.267 -0.0738 -0.8702  0.1147
 1759TIP3    H126768   5.105   1.374  15.254 -0.3600  0.4864  0.9773
 1759TIP3    H226769   5.023   1.254  15.298  1.0756 -0.2714  1.6663
 1760TIP3   OH226770   1.881   1.109   3.912  0.2747 -0.0703  0.0684
 1760TIP3    H126771   1.864   1.203   3.906 -0.6372 -0.3133 -1.5801
 1760TIP3    H226772   1.798   1.072   3.943 -0.0586 -0.5318 -1.3147
 1761TIP3   OH226773   4.169   0.121   6.456  0.8436 -0.0978  0.2533
 1761TIP3    H126774   4.233   0.134   6.385  1.9169  0.0092  1.2053
 1761TIP3    H226775   4.188   0.033   6.488  0.6877  0.0372  0.7190
 1762TIP3   OH226776   4.686   4.745  16.788 -0.3174 -0.0397 -0.4743
 1762TIP3    H126777   4.593   4.725  16.780 -0.0251 -1.0257 -1.8698
 1762TIP3    H226778   4.726   4.662  16.816  0.3147 -0.0502 -1.3666
 1763TIP3   OH226779   4.089   0.559  14.778 -0.1055  0.0438  0.2542
 1763TIP3    H126780   4.118   0.641  14.817  0.6631 -0.8016  1.5606
 1763TIP3    H226781   4.158   0.538  14.715  0.6872 -0.4961  1.2591
 1764TIP3   OH226782   0.967   5.045   3.159  0.3463  0.4172 -0.2355
 1764TIP3    H126783   1.022   5.033   3.081  0.1064  1.1241 -0.5238
 1764TIP3    H226784   0.882   5.072   3.123  0.1458  0.4450  0.2588
 1765TIP3   OH226785   4.353   2.895   1.981 -0.8359  0.1017  0.4731
 1765TIP3    H126786   4.370   2.985   1.954  1.7182 -0.3971  0.1709
 1765TIP3    H226787   4.296   2.860   1.912 -0.0916  0.8862 -0.5738
 1766TIP3   OH226788   4.303   6.296   0.670 -0.0681 -0.0669  0.1017
 1766TIP3    H126789   4.333   6.319   0.758 -0.0098 -1.4085  0.4575
 1766TIP3    H226790   4.214   6.330   0.664  0.1193  0.4914  0.4891
 1767TIP3   OH226791   1.261   6.107   0.269 -0.1604 -0.1497  0.2736
 1767TIP3    H126792   1.278   6.075   0.180  4.0586  1.5604  0.2225
 1767TIP3    H226793   1.302   6.042   0.326 -0.0302  0.3537  0.7561
 1768TIP3   OH226794   2.734   3.198   0.967  0.1857 -0.2240 -0.4337
 1768TIP3    H126795   2.762   3.148   1.044  0.5182  2.6592  1.4330
 1768TIP3    H226796   2.800   3.177   0.901  0.3521 -2.1399  0.2624
 1769TIP3   OH226797   3.303   1.962   4.181 -0.1343  0.5433  0.6636
 1769TIP3    H126798   3.237   1.894   4.168  1.0177 -0.3637 -0.7452
 1769TIP3    H226799   3.279   2.030   4.118  1.3392 -0.6648 -1.2989
 1770TIP3   OH226800   1.097   1.968   3.057 -0.4005 -0.4000  0.3495
 1770TIP3    H126801   1.159   1.999   2.991 -0.1481  0.0970  0.8074
 1770TIP3    H226802   1.015   1.955   3.009 -0.9161  2.3142  0.3151
 1771TIP3   OH226803   3.092   6.609  14.684  0.1772  0.2795 -0.1112
 1771TIP3    H126804   3.083   6.622  14.589  0.6121 -0.7577 -0.2976
 1771TIP3    H226805   3.113   6.517  14.694  0.3311  0.4247  0.9934
 1772TIP3   OH226806   5.135   5.233  14.421 -0.0998  0.3572  0.1004
 1772TIP3    H126807   5.059   5.291  14.415  0.2723  0.7706 -0.8264
 1772TIP3    H226808   5.210   5.290  14.403  0.3046 -0.3262 -0.4129
 1773TIP3   OH226809   0.008   1.284   2.308  0.1116  0.6940  0.1253
 1773TIP3    H126810  -0.071   1.320   2.266 -0.2778  0.1091  0.3399
 1773TIP3    H226811  -0.002   1.190   2.300 -0.1668  0.5394  1.8381
 1774TIP3   OH226812   5.326   4.925  16.734 -0.1664  0.3177 -0.4542
 1774TIP3    H126813   5.297   5.001  16.684  0.4192  0.4141 -0.6544
 1774TIP3    H226814   5.261   4.916  16.804 -0.0380  1.2322 -0.2019
 1775TIP3   OH226815   2.847   2.172   2.806  0.1307 -0.2168 -0.0583
 1775TIP3    H126816   2.913   2.236   2.835 -0.4812  0.2435  0.3472
 1775TIP3    H226817   2.836   2.191   2.713 -0.9842  1.1721  0.3112
 1776TIP3   OH226818   2.743   6.700   0.952  0.1804  0.2109  0.0310
 1776TIP3    H126819   2.825   6.650   0.958  0.0187  0.1175  2.7168
 1776TIP3    H226820   2.675   6.638   0.975 -0.6027  0.4764 -1.4705
 1777TIP3   OH226821   3.563   3.871   5.344  0.3037 -0.0695 -0.1887
 1777TIP3    H126822   3.572   3.955   5.298  0.9490 -0.8039 -1.4391
 1777TIP3    H226823   3.577   3.805   5.277 -0.1837 -1.1971  0.7866
 1778TIP3   OH226824   0.670   5.939   3.453  0.5147  0.1923  0.2590
 1778TIP3    H126825   0.619   5.944   3.533  0.8625  1.8924  0.4213
 1778TIP3    H226826   0.673   5.846   3.431  0.5797 -0.3269  2.3192
 1779TIP3   OH226827   4.994   2.034   3.348  0.6836  0.1080 -0.2405
 1779TIP3    H126828   4.997   1.964   3.413  2.0990  0.4348  0.0874
 1779TIP3    H226829   5.025   2.112   3.396  0.2875  0.6899 -0.9105
 1780TIP3   OH226830   2.856   1.108   1.534  0.8038  0.3690 -0.5127
 1780TIP3    H126831   2.843   1.149   1.619  0.0257 -0.0057 -0.4443
 1780TIP3    H226832   2.926   1.159   1.493  2.1900 -0.3252  0.9074
 1781TIP3   OH226833   5.962   1.690   4.173  0.2183  0.2547 -0.4252
 1781TIP3    H126834   6.001   1.629   4.236 -1.3376 -1.5723 -1.1396
 1781TIP3    H226835   6.021   1.688   4.098  0.9030  0.7211  0.0909
 1782TIP3   OH226836   6.115   2.544  17.240 -0.1552  0.7924  0.6825
 1782TIP3    H126837   6.110   2.480  17.311 -2.0975  1.1843  0.9501
 1782TIP3    H226838   6.194   2.520  17.192 -1.3344 -2.5323  0.1040
 1783TIP3   OH226839   2.952   3.462  15.588  0.3231 -0.3076  0.4568
 1783TIP3    H126840   2.905   3.455  15.505  1.3820  1.8556 -0.3829
 1783TIP3    H226841   2.915   3.539  15.630 -1.4282 -2.3017  2.9099
 1784TIP3   OH226842   0.286   0.742   3.909 -0.0280  0.2105  0.4464
 1784TIP3    H126843   0.321   0.804   3.844  2.0177 -0.6086  0.6771
 1784TIP3    H226844   0.279   0.659   3.862 -0.7535  0.1405  0.6765
 1785TIP3   OH226845   3.069   0.541  14.927  0.0924  0.0780  0.1331
 1785TIP3    H126846   3.039   0.536  14.836 -1.5889 -0.9322  0.6918
 1785TIP3    H226847   3.018   0.613  14.965 -0.1086 -0.2937  0.5763
 1786TIP3   OH226848   5.923   5.333  10.366 -0.5863  0.1580 -0.0474
 1786TIP3    H126849   5.861   5.377  10.424  1.1672  1.2416  1.0805
 1786TIP3    H226850   5.949   5.399  10.303  0.8423  0.3107  0.6668
 1787TIP3   OH226851   2.084   4.616   5.493 -0.2221 -0.0819  0.6865
 1787TIP3    H126852   2.047   4.699   5.521 -1.0624  0.7852 -2.6459
 1787TIP3    H226853   2.175   4.619   5.522 -0.1944  2.0682  0.5020
 1788TIP3   OH226854   0.095   4.591  12.495 -0.6636  0.7059  0.2347
 1788TIP3    H126855   0.028   4.585  12.427 -0.0802  0.2949 -0.3114
 1788TIP3    H226856   0.048   4.626  12.571 -1.6406 -0.1512  0.0511
 1789TIP3   OH226857   2.037   4.166  13.000  0.0915  0.4102 -0.5395
 1789TIP3    H126858   1.971   4.098  12.996  0.2427  0.2404 -0.1243
 1789TIP3    H226859   2.067   4.166  13.091 -1.6143  2.6404  0.1373
 1790TIP3   OH226860   6.123   2.845  17.266 -0.3068 -0.5437  0.9833
 1790TIP3    H126861   6.218   2.854  17.263 -0.3981  0.3700 -1.2435
 1790TIP3    H226862   6.108   2.750  17.266  0.6325 -0.7285 -0.4780
 1791TIP3   OH226863   3.388   0.215   6.807  0.1165  0.6304  0.3983
 1791TIP3    H126864   3.379   0.287   6.869 -0.7749  0.0875  0.9265
 1791TIP3    H226865   3.452   0.246   6.743  0.7722  1.3438  1.3793
 1792TIP3   OH226866   0.143   2.653  14.499  0.2945 -0.5468 -0.2266
 1792TIP3    H126867   0.161   2.657  14.405 -1.3978  0.9427 -0.5456
 1792TIP3    H226868   0.061   2.702  14.510  1.8055  1.6869  2.3672
 1793TIP3   OH226869   3.864   2.224  13.130 -0.0888 -0.1916 -0.0807
 1793TIP3    H126870   3.895   2.299  13.181 -0.2964 -0.0476 -0.1656
 1793TIP3    H226871   3.939   2.165  13.126  0.1006  0.0500 -0.0849
 1794TIP3   OH226872   4.600   1.186   4.547 -0.5391 -0.0383  0.0420
 1794TIP3    H126873   4.597   1.266   4.495  2.0766  0.8335  1.0741
 1794TIP3    H226874   4.682   1.192   4.596 -2.7046 -0.7871  4.2395
 1795TIP3   OH226875   0.913   5.306   6.201 -0.4285  0.4070  0.0597
 1795TIP3    H126876   0.923   5.340   6.112  2.0124 -0.3738 -0.0485
 1795TIP3    H226877   0.872   5.220   6.188  2.0713 -0.7911 -0.6608
 1796TIP3   OH226878   4.769   4.793   4.173 -0.2055  0.8337 -0.5230
 1796TIP3    H126879   4.751   4.793   4.079  1.1243  1.2587 -0.7997
 1796TIP3    H226880   4.821   4.714   4.188  0.6954  1.4371 -0.3927
 1797TIP3   OH226881   6.556   4.669  16.412 -0.6006  0.2803 -0.0723
 1797TIP3    H126882   6.528   4.696  16.499  0.0337  0.7959 -0.0236
 1797TIP3    H226883   6.476   4.636  16.370 -1.1298  1.0599  0.3087
 1798TIP3   OH226884   2.022   1.411  12.882  0.5499 -0.2580 -0.1084
 1798TIP3    H126885   2.042   1.495  12.925  0.1373  0.2696 -0.9196
 1798TIP3    H226886   2.097   1.397  12.824  0.4557 -0.2718 -0.2272
 1799TIP3   OH226887   4.443   0.324  12.428 -0.7393 -0.3349  0.0821
 1799TIP3    H126888   4.495   0.402  12.448 -2.0955  0.1378  2.0232
 1799TIP3    H226889   4.462   0.307  12.336  0.9759  1.2179  0.0774
 1800TIP3   OH226890   2.536   4.719  16.268 -0.0339 -0.1633 -0.2063
 1800TIP3    H126891   2.603   4.660  16.303 -0.3383  0.2269  1.0959
 1800TIP3    H226892   2.453   4.680  16.295 -0.2752  0.2311 -0.3706
 1801TIP3   OH226893   3.396   4.616   1.802 -0.6358 -1.0961 -0.6979
 1801TIP3    H126894   3.386   4.603   1.708  0.9599 -0.8813 -0.9219
 1801TIP3    H226895   3.385   4.528   1.839 -2.2883 -1.0343 -0.9387
 1802TIP3   OH226896   2.728   5.126  12.160 -0.5492  0.0655 -0.2023
 1802TIP3    H126897   2.780   5.046  12.167 -1.0387 -0.2323  0.1745
 1802TIP3    H226898   2.710   5.136  12.067 -0.1251 -0.0328 -0.2931
 1803TIP3   OH226899   2.347   3.983   0.691  0.4309 -0.2135 -0.3082
 1803TIP3    H126900   2.427   3.991   0.638  1.2352 -0.9966  0.7588
 1803TIP3    H226901   2.327   3.889   0.689  0.6738 -0.3119  1.0326
 1804TIP3   OH226902   6.337   5.355   0.587  0.3150  0.3067  0.2873
 1804TIP3    H126903   6.386   5.287   0.541 -0.6605  0.4447 -1.0132
 1804TIP3    H226904   6.392   5.434   0.579  1.6993 -0.3603  2.2480
 1805TIP3   OH226905   3.927   0.520  15.787 -0.3575 -0.7167 -0.5738
 1805TIP3    H126906   3.896   0.445  15.838 -1.4946 -1.3977 -2.2003
 1805TIP3    H226907   3.868   0.591  15.810 -0.9823 -1.0724 -1.0321
 1806TIP3   OH226908   4.299   4.938  13.682  0.0102 -0.0248  0.2833
 1806TIP3    H126909   4.340   4.978  13.759  0.7871 -1.1832  0.4922
 1806TIP3    H226910   4.248   5.009  13.642 -0.5734  0.5569  1.9649
 1807TIP3   OH226911   2.333   2.352   4.306  0.0545  0.3497 -0.1925
 1807TIP3    H126912   2.409   2.410   4.311 -1.2034  2.1528 -0.9767
 1807TIP3    H226913   2.319   2.324   4.397 -0.1103  2.4184  0.4782
 1808TIP3   OH226914   5.897   2.335   1.646  0.2642  0.4939 -0.5125
 1808TIP3    H126915   5.932   2.418   1.614 -0.1447  0.7373 -0.3346
 1808TIP3    H226916   5.805   2.337   1.622  0.1434  0.3045 -0.0783
 1809TIP3   OH226917   4.556   1.025   0.359  0.5513  0.4349  0.2665
 1809TIP3    H126918   4.556   1.076   0.440  0.8839 -1.5352  1.5878
 1809TIP3    H226919   4.555   0.934   0.389 -0.6096 -0.3527 -1.9757
 1810TIP3   OH226920   2.821   1.480  12.337 -0.1059  0.7838 -0.2256
 1810TIP3    H126921   2.770   1.399  12.326  0.1633  0.5577  0.2017
 1810TIP3    H226922   2.763   1.549  12.303  0.8538  0.0897 -3.6098
 1811TIP3   OH226923   1.590   3.455   1.249 -0.1773 -0.2848  0.3721
 1811TIP3    H126924   1.661   3.430   1.308  0.1181 -0.1905  0.0595
 1811TIP3    H226925   1.540   3.375   1.236  0.3805 -0.5651 -0.1014
 1812TIP3   OH226926   2.211   3.237   5.124 -0.5715 -0.8614 -0.0104
 1812TIP3    H126927   2.305   3.232   5.106 -0.6351 -0.3074 -0.5203
 1812TIP3    H226928   2.181   3.146   5.116 -0.1481 -0.9862 -0.2350
 1813TIP3   OH226929   4.630   3.736  17.265  0.0713 -0.5807  0.2826
 1813TIP3    H126930   4.646   3.820  17.308 -0.7257 -0.1906 -0.1442
 1813TIP3    H226931   4.681   3.673  17.315 -0.6205 -0.1062  1.6463
 1814TIP3   OH226932   6.205   0.038  12.390  0.2024  0.2374  0.9491
 1814TIP3    H126933   6.181  -0.041  12.439 -2.5474  1.1759  1.2686
 1814TIP3    H226934   6.158   0.030  12.308  0.2877  1.3254  0.7811
 1815TIP3   OH226935   2.741   1.826   2.884 -0.1304  0.2305 -0.3273
 1815TIP3    H126936   2.719   1.902   2.830  1.3882  1.5384  0.7804
 1815TIP3    H226937   2.676   1.827   2.954  0.4397  1.1561  0.2261
 1816TIP3   OH226938   1.137   2.784  10.524 -0.3662  0.5260  0.0091
 1816TIP3    H126939   1.200   2.768  10.454 -0.4032  2.0852 -0.4198
 1816TIP3    H226940   1.155   2.873  10.553 -0.7544  0.1317  1.5965
 1817TIP3   OH226941   6.031   6.598   2.269  0.0126 -0.2888  0.6071
 1817TIP3    H126942   5.962   6.537   2.293  1.0470 -1.1235  1.5605
 1817TIP3    H226943   6.006   6.629   2.182  0.3543 -3.4320 -0.7310
 1818TIP3   OH226944   2.707   3.264  12.843 -0.3020  0.1347 -0.4365
 1818TIP3    H126945   2.769   3.210  12.892  1.4612  2.1554 -0.2604
 1818TIP3    H226946   2.701   3.223  12.757  0.8196 -0.4762 -0.2465
 1819TIP3   OH226947   0.526   0.951  15.358  0.2769 -0.0280 -0.5047
 1819TIP3    H126948   0.471   0.925  15.284  1.0896  1.1435 -1.5647
 1819TIP3    H226949   0.599   0.999  15.318  1.9395 -1.2758  0.8642
 1820TIP3   OH226950   3.519   3.532  13.351 -0.1075 -0.8481  0.5001
 1820TIP3    H126951   3.566   3.593  13.408  0.8620 -0.0063 -1.0939
 1820TIP3    H226952   3.428   3.537  13.380  0.1190  0.6354  1.0667
 1821TIP3   OH226953   4.073   1.765  13.896 -0.7607  0.7218  0.0654
 1821TIP3    H126954   4.107   1.836  13.841  0.0722 -0.4768 -1.0458
 1821TIP3    H226955   4.129   1.766  13.974 -0.4175  0.9620 -0.1787
 1822TIP3   OH226956   1.020   4.595   3.987  0.1263 -0.1849 -0.2114
 1822TIP3    H126957   0.954   4.543   3.941  1.3970 -0.9381 -1.2353
 1822TIP3    H226958   1.074   4.531   4.032  1.0194  0.3120 -0.5571
 1823TIP3   OH226959   1.994   2.562   4.528  0.6113 -0.6234  0.0160
 1823TIP3    H126960   1.911   2.583   4.485  0.2270  0.1540  1.0905
 1823TIP3    H226961   2.061   2.606   4.474  0.3358 -1.2349 -0.8421
 1824TIP3   OH226962   1.917   6.083   2.157  0.5307  0.1995 -0.1092
 1824TIP3    H126963   1.942   6.097   2.248  1.2146 -3.4588  0.4452
 1824TIP3    H226964   1.822   6.083   2.157  0.5253  0.8850  0.4454
 1825TIP3   OH226965   5.523   0.404  11.566  0.0222  0.1627  0.0237
 1825TIP3    H126966   5.500   0.422  11.475 -0.0038 -1.1579 -0.2594
 1825TIP3    H226967   5.598   0.461  11.584 -1.4987  2.2726 -0.0041
 1826TIP3   OH226968   4.982   5.989   4.905  0.2784 -0.3896  0.2631
 1826TIP3    H126969   4.899   6.035   4.892 -0.5461 -1.6822  0.6285
 1826TIP3    H226970   5.039   6.052   4.946  0.4031  1.4022 -2.4125
 1827TIP3   OH226971   5.581   1.504   5.495  0.4846  0.6275  0.1423
 1827TIP3    H126972   5.659   1.560   5.495  0.8246  0.1609 -0.0112
 1827TIP3    H226973   5.589   1.451   5.574  1.1989 -0.6005 -0.7160
 1828TIP3   OH226974   1.548   5.966   4.049 -0.5275  0.0832  0.2754
 1828TIP3    H126975   1.500   5.894   4.008 -0.8644  0.8774 -0.8014
 1828TIP3    H226976   1.606   5.924   4.112  0.5648 -1.3144 -1.5483
 1829TIP3   OH226977   5.555   0.540  15.449  0.3948  0.0426  0.5999
 1829TIP3    H126978   5.516   0.542  15.362  1.7208  0.9099 -0.0216
 1829TIP3    H226979   5.640   0.497  15.436 -0.0489 -1.2652  1.7851
 1830TIP3   OH226980   0.856   3.522  17.158 -0.6778  0.3843 -0.1610
 1830TIP3    H126981   0.943   3.562  17.148 -0.5700  0.4229  0.8950
 1830TIP3    H226982   0.867   3.432  17.128 -0.2881  0.4021 -0.0714
 1831TIP3   OH226983   4.725   5.854  15.948  0.2778 -0.6125 -0.3688
 1831TIP3    H126984   4.713   5.772  15.995  1.1030 -1.6170 -1.8419
 1831TIP3    H226985   4.812   5.884  15.976  0.8837 -1.3473 -1.4142
 1832TIP3   OH226986   2.924   4.757  11.732 -0.1225  0.2507  0.5193
 1832TIP3    H126987   2.972   4.674  11.740 -1.0487 -0.2770  0.7645
 1832TIP3    H226988   2.875   4.749  11.650  0.5006  0.9509  0.0670
 1833TIP3   OH226989   1.846   5.269   6.469 -0.1080 -0.7625 -0.6278
 1833TIP3    H126990   1.793   5.322   6.530  0.4790 -1.2063  0.2903
 1833TIP3    H226991   1.823   5.178   6.491  1.5359 -0.9954  0.2926
 1834TIP3   OH226992   0.714   5.711  13.848 -0.1312  0.5673  0.5872
 1834TIP3    H126993   0.682   5.796  13.876  2.2726  1.7905 -0.1416
 1834TIP3    H226994   0.723   5.718  13.753 -1.0481 -0.9604  0.3413
 1835TIP3   OH226995   6.493   5.586   0.823 -0.5074 -0.0164 -0.2863
 1835TIP3    H126996   6.577   5.622   0.853  0.6482 -2.8044  0.1870
 1835TIP3    H226997   6.473   5.636   0.744  1.8372  0.4723 -0.6703
 1836TIP3   OH226998   5.721   6.514  16.402  0.2478  0.7069  0.3581
 1836TIP3    H126999   5.761   6.427  16.399  0.6192  0.8866 -2.1924
 1836TIP3    H227000   5.748   6.550  16.487  0.0976 -1.6132  1.4658
 1837TIP3   OH227001   6.805   4.583  11.770  0.2265 -0.7589 -0.4108
 1837TIP3    H127002   6.860   4.646  11.722 -0.1401 -1.6190 -2.0044
 1837TIP3    H227003   6.750   4.543  11.703 -1.3617 -0.9561  0.9505
 1838TIP3   OH227004   5.883   4.520  11.016 -0.1323 -0.2773  0.1255
 1838TIP3    H127005   5.961   4.543  10.966 -0.3170  1.5263  0.6023
 1838TIP3    H227006   5.821   4.488  10.950  0.5509 -0.4998 -0.4223
 1839TIP3   OH227007   2.887   5.353  15.752  0.3374  0.5363 -0.0516
 1839TIP3    H127008   2.855   5.400  15.676  0.5666  1.2470  0.2821
 1839TIP3    H227009   2.824   5.374  15.821 -0.2616 -0.6649 -0.2125
 1840TIP3   OH227010   1.418   2.633  15.288 -0.2642  0.2873  0.0949
 1840TIP3    H127011   1.391   2.596  15.204 -1.2784 -0.1608  0.6029
 1840TIP3    H227012   1.509   2.604  15.298 -0.7427 -1.3692  0.0646
 1841TIP3   OH227013   1.563   6.662  14.592 -0.0787 -0.2785 -0.3621
 1841TIP3    H127014   1.515   6.580  14.597  0.4955 -0.5605  2.3886
 1841TIP3    H227015   1.494   6.729  14.586 -0.5713 -0.8855 -1.9128
 1842TIP3   OH227016   5.057   2.706  15.418 -0.2724  0.1505  0.4889
 1842TIP3    H127017   4.966   2.718  15.447  0.0776 -0.1294  1.7687
 1842TIP3    H227018   5.107   2.703  15.499  0.8313 -0.1517 -0.1923
 1843TIP3   OH227019   5.460   6.511   2.558  0.5516  0.4019  0.3115
 1843TIP3    H127020   5.547   6.530   2.522  1.4071 -1.3332  1.3480
 1843TIP3    H227021   5.411   6.592   2.545  2.9337  2.1583  1.5443
 1844TIP3   OH227022   6.252   2.775   2.062 -0.2907 -0.2224  0.1744
 1844TIP3    H127023   6.342   2.748   2.079 -0.2027 -0.3986 -0.5661
 1844TIP3    H227024   6.249   2.868   2.088  0.2102 -0.1029 -0.1921
 1845TIP3   OH227025   0.560   3.327  17.211  0.4194  0.1338 -0.2956
 1845TIP3    H127026   0.592   3.404  17.165 -2.1249  1.1975 -0.4761
 1845TIP3    H227027   0.519   3.273  17.143  3.0552 -2.0232 -0.3586
 1846TIP3   OH227028   1.360   1.939  12.077  0.0782 -0.0118  0.2098
 1846TIP3    H127029   1.293   1.942  12.008  0.5522 -1.0281 -0.3175
 1846TIP3    H227030   1.336   1.863  12.130 -0.7529  1.2222  1.7008
 1847TIP3   OH227031   5.995   6.351   4.061  0.3383  0.1739 -0.0067
 1847TIP3    H127032   6.091   6.348   4.067  0.3887  0.4335 -0.6621
 1847TIP3    H227033   5.970   6.422   4.121  0.6591  1.0134 -0.8443
 1848TIP3   OH227034   4.731   1.568  12.334  0.0588 -0.4484  0.3079
 1848TIP3    H127035   4.811   1.584  12.284  1.1351 -0.4236  1.9457
 1848TIP3    H227036   4.680   1.649  12.325  2.2434  1.3761  2.7590
 1849TIP3   OH227037   0.104   6.131  14.296 -0.3626  0.2668  0.3383
 1849TIP3    H127038   0.014   6.142  14.325 -0.1595 -0.8586  1.5005
 1849TIP3    H227039   0.138   6.220  14.289 -1.7921  0.7424 -0.9500
 1850TIP3   OH227040   3.831   4.414  17.262  0.1865  0.4042  0.3459
 1850TIP3    H127041   3.923   4.432  17.244  0.3255  1.2360  1.7268
 1850TIP3    H227042   3.787   4.498  17.251 -0.0964  0.4096  1.4078
 1851TIP3   OH227043   1.422   5.097   2.988  0.3872  0.2927  0.3617
 1851TIP3    H127044   1.471   5.040   3.047 -1.0352 -0.3911  0.9330
 1851TIP3    H227045   1.450   5.185   3.010  1.4498 -0.0918  0.5803
 1852TIP3   OH227046   4.125   4.648  14.114 -0.6728 -0.4737  0.3252
 1852TIP3    H127047   4.154   4.716  14.053 -2.9604  0.4248  0.1488
 1852TIP3    H227048   4.068   4.591  14.062 -1.2614 -0.7081  1.1984
 1853TIP3   OH227049   6.662   5.138   4.420 -0.2692  0.2324  0.2344
 1853TIP3    H127050   6.631   5.107   4.505  0.9583  0.9996  0.9952
 1853TIP3    H227051   6.702   5.223   4.439 -0.8222  0.8665 -1.2767
 1854TIP3   OH227052   0.701   2.361  14.782 -0.1889  0.0448  0.1445
 1854TIP3    H127053   0.608   2.379  14.796 -0.6924 -2.0043 -0.3317
 1854TIP3    H227054   0.716   2.276  14.823  1.0196 -0.5466 -1.4208
 1855TIP3   OH227055   1.830   6.176   2.638  0.5916  0.0157 -0.6800
 1855TIP3    H127056   1.791   6.197   2.723  1.3308  0.8267 -0.5297
 1855TIP3    H227057   1.814   6.082   2.627 -1.0584  0.2433 -0.4607
 1856TIP3   OH227058   0.623   1.867   3.117  0.1839 -0.3465  0.0151
 1856TIP3    H127059   0.670   1.789   3.086 -1.0623 -0.1315 -2.7375
 1856TIP3    H227060   0.693   1.930   3.137  1.1702 -1.0606 -0.9960
 1857TIP3   OH227061   0.280   6.050  11.460 -0.1162  0.0512 -0.2545
 1857TIP3    H127062   0.248   6.113  11.395  1.9100  0.0703 -1.3167
 1857TIP3    H227063   0.311   6.105  11.533 -5.0353 -0.0008  2.3107
 1858TIP3   OH227064   0.048   3.375  17.226 -0.0487 -0.5541 -0.2641
 1858TIP3    H127065   0.077   3.432  17.155 -0.7033 -0.7095 -0.6714
 1858TIP3    H227066   0.046   3.432  17.304  1.4345 -0.5781 -0.1852
 1859TIP3   OH227067   3.562   0.629  15.918 -0.4685 -0.0353 -0.1324
 1859TIP3    H127068   3.605   0.624  16.003  0.2575  1.7125 -0.3486
 1859TIP3    H227069   3.484   0.683  15.933 -0.0456  0.7509 -0.6441
 1860TIP3   OH227070   0.913   2.061   1.141  0.1887  0.2548  0.8572
 1860TIP3    H127071   0.827   2.047   1.101  0.3557 -0.0750  0.6058
 1860TIP3    H227072   0.934   2.153   1.122  0.3526  0.0528 -0.0002
 1861TIP3   OH227073   2.333   1.484  13.411 -0.0096 -0.3199 -0.3859
 1861TIP3    H127074   2.257   1.429  13.391  0.3790 -0.5020 -1.4314
 1861TIP3    H227075   2.313   1.568  13.369 -1.3115  0.9532  2.4924
 1862TIP3   OH227076   0.923   4.546  15.739  0.2418 -0.3293 -0.7830
 1862TIP3    H127077   0.948   4.555  15.831 -0.0263 -2.3951 -0.4730
 1862TIP3    H227078   0.955   4.627  15.698  0.2423  0.7088  1.1252
 1863TIP3   OH227079   5.789   6.608   2.672  0.3599 -0.1108  0.3334
 1863TIP3    H127080   5.820   6.593   2.762  0.9195 -1.0346 -0.0090
 1863TIP3    H227081   5.847   6.675   2.637  0.1259  0.2688  0.6664
 1864TIP3   OH227082   4.857   4.351  17.260 -0.0443  0.0825  0.3562
 1864TIP3    H127083   4.838   4.345  17.166  1.6903 -1.4216  0.0454
 1864TIP3    H227084   4.792   4.413  17.294 -0.9476  0.3717 -1.7574
 1865TIP3   OH227085   4.154   5.319  12.563  0.0031 -1.0145 -0.1125
 1865TIP3    H127086   4.137   5.413  12.571  1.1673 -0.5648 -2.2603
 1865TIP3    H227087   4.069   5.279  12.578 -1.4299  0.6610 -2.8574
 1866TIP3   OH227088   1.695   2.358   4.414 -0.5393  0.1814 -0.1287
 1866TIP3    H127089   1.614   2.309   4.432 -0.8703  0.4028 -0.9771
 1866TIP3    H227090   1.691   2.377   4.321  2.1059 -2.7178 -0.9862
 1867TIP3   OH227091   2.930   4.684   3.569  0.1550  0.3385 -0.2291
 1867TIP3    H127092   2.950   4.591   3.568  2.5710  0.7932  0.1195
 1867TIP3    H227093   2.968   4.719   3.488 -0.1761  1.1102 -0.0658
 1868TIP3   OH227094   0.146   4.433   4.073  0.3230  0.3016  0.5416
 1868TIP3    H127095   0.115   4.445   4.162 -0.5199 -2.0463  0.6395
 1868TIP3    H227096   0.070   4.403   4.024  0.9084  0.9767 -0.8298
 1869TIP3   OH227097   0.165   1.205   6.100 -0.2760 -0.2975  0.3033
 1869TIP3    H127098   0.173   1.295   6.132  0.2559  0.0877 -0.8694
 1869TIP3    H227099   0.070   1.189   6.098 -0.3430 -0.1533  1.5274
 1870TIP3   OH227100   0.489   4.051  16.333  0.0625  0.2720 -0.5409
 1870TIP3    H127101   0.470   4.144  16.320  0.8019  0.3158 -1.4257
 1870TIP3    H227102   0.562   4.033  16.274  0.6420 -0.6212  0.4070
 1871TIP3   OH227103   3.929   1.579  14.791 -0.3545  0.5003 -0.0127
 1871TIP3    H127104   3.958   1.590  14.881  0.2605 -0.8360 -0.0284
 1871TIP3    H227105   3.975   1.648  14.742  0.7701  0.0519  0.3945
 1872TIP3   OH227106   0.563   0.565  12.900  0.7873 -0.3353 -0.3584
 1872TIP3    H127107   0.479   0.591  12.863  1.2816  0.4185 -1.0106
 1872TIP3    H227108   0.601   0.647  12.932  1.5868 -0.5421 -0.7544
 1873TIP3   OH227109   2.941   3.051   1.583  0.1506 -0.2755 -0.1222
 1873TIP3    H127110   2.876   3.073   1.515 -0.5092 -0.0145  0.5733
 1873TIP3    H227111   2.959   2.958   1.569 -1.3913 -0.7091  0.4860
 1874TIP3   OH227112   2.707   6.584  11.616  0.1623  0.7155 -0.0098
 1874TIP3    H127113   2.661   6.570  11.698  2.7311 -0.2012  1.4118
 1874TIP3    H227114   2.761   6.661  11.632  1.0672  0.2279 -0.6156
 1875TIP3   OH227115   5.995   3.312  12.828 -0.8244 -0.0401  0.7223
 1875TIP3    H127116   6.077   3.356  12.848 -1.2499  0.0484  2.4231
 1875TIP3    H227117   5.941   3.379  12.787 -0.3656  0.1351  0.3952
 1876TIP3   OH227118   1.762   1.678  16.247  0.4800  0.0288 -0.5545
 1876TIP3    H127119   1.779   1.761  16.202  2.5734 -1.9460 -3.7785
 1876TIP3    H227120   1.706   1.630  16.186 -0.1268 -1.2243  0.9467
 1877TIP3   OH227121   2.324   0.672   4.016 -0.2325  0.1007  0.2609
 1877TIP3    H127122   2.407   0.716   3.997 -0.3332  0.3633  0.4364
 1877TIP3    H227123   2.293   0.712   4.097 -0.2665 -0.3713  0.4883
 1878TIP3   OH227124   6.577   5.612  13.021 -0.4585 -0.3008 -0.4295
 1878TIP3    H127125   6.653   5.556  13.008  0.1672  0.3701  0.1958
 1878TIP3    H227126   6.506   5.552  13.042  0.0153 -0.9044 -0.5280
 1879TIP3   OH227127   2.244   4.309   2.324  0.6669 -0.0982  0.1415
 1879TIP3    H127128   2.319   4.345   2.372  1.1329  0.2262 -0.8028
 1879TIP3    H227129   2.264   4.216   2.315 -0.1198 -0.4612  1.8192
 1880TIP3   OH227130   3.860   5.221  13.179  0.3736 -0.4798  0.7079
 1880TIP3    H127131   3.845   5.228  13.084 -0.2929 -2.2262  0.6576
 1880TIP3    H227132   3.792   5.162  13.210 -0.2460  1.1086  2.5349
 1881TIP3   OH227133   1.087   3.873  12.596  0.1603  0.0121 -0.5758
 1881TIP3    H127134   1.090   3.897  12.689 -0.1453 -1.2041 -0.2276
 1881TIP3    H227135   1.119   3.950  12.550 -0.0357  0.7731  0.5184
 1882TIP3   OH227136   5.594   0.186   1.845 -0.7136  0.2447 -0.0474
 1882TIP3    H127137   5.661   0.238   1.889 -0.0991 -0.6310  0.0842
 1882TIP3    H227138   5.643   0.137   1.777 -1.1250 -0.7383  0.3422
 1883TIP3   OH227139   2.774   1.290   3.668 -0.1579  0.1643 -0.2432
 1883TIP3    H127140   2.729   1.235   3.604 -0.5662 -0.7149  0.7544
 1883TIP3    H227141   2.717   1.287   3.746  0.8223  0.3591  0.4991
 1884TIP3   OH227142   4.174   3.169  15.864  0.8387  0.3304 -0.4597
 1884TIP3    H127143   4.245   3.187  15.802  1.5080  1.4837  0.5639
 1884TIP3    H227144   4.217   3.173  15.950 -0.0569 -1.1819  0.0994
 1885TIP3   OH227145   4.896   0.295   1.972 -0.1753 -0.0016  0.5230
 1885TIP3    H127146   4.976   0.275   1.924 -0.3580 -0.3015  0.3380
 1885TIP3    H227147   4.922   0.292   2.064 -0.3054 -1.7038  0.5430
 1886TIP3   OH227148   5.831   3.285   3.027  0.2526 -0.0856  0.3888
 1886TIP3    H127149   5.887   3.231   2.972  1.8216  1.1842  0.6840
 1886TIP3    H227150   5.833   3.243   3.113 -0.9360 -1.1821 -0.0849
 1887TIP3   OH227151   2.666   1.589   3.674 -0.7251  0.4474 -0.5334
 1887TIP3    H127152   2.586   1.537   3.674 -0.0467 -0.6667  0.8416
 1887TIP3    H227153   2.700   1.580   3.584 -0.6837 -1.4551 -0.3670
 1888TIP3   OH227154   4.475   2.851   5.808 -0.3687 -0.4114 -0.5462
 1888TIP3    H127155   4.551   2.794   5.820 -0.1043  0.1962  0.7316
 1888TIP3    H227156   4.487   2.888   5.720  0.7530 -0.3988 -0.3955
 1889TIP3   OH227157   1.035   0.101  15.640 -0.1324 -0.4892 -0.0283
 1889TIP3    H127158   1.014   0.182  15.592 -1.4894 -1.4248 -1.0844
 1889TIP3    H227159   1.060   0.039  15.573  0.0832 -1.2020  0.6953
 1890TIP3   OH227160   2.398   4.016   1.037  0.0805  0.5503  0.4644
 1890TIP3    H127161   2.394   4.088   0.974 -1.0409 -0.0754 -0.2198
 1890TIP3    H227162   2.317   3.966   1.022  0.4128 -0.3590  1.5152
 1891TIP3   OH227163   3.012   5.059  12.013  0.2134  0.2751  0.3663
 1891TIP3    H127164   3.019   5.151  11.988  1.8407 -0.4449 -2.3074
 1891TIP3    H227165   3.091   5.018  11.976 -1.1265 -2.4342  0.2203
 1892TIP3   OH227166   4.923   3.096  11.877 -0.0883  0.2192  0.0364
 1892TIP3    H127167   4.864   3.128  11.945  1.8467 -1.6442  2.8163
 1892TIP3    H227168   4.865   3.071  11.805 -2.4673  0.4917  1.7207
 1893TIP3   OH227169   2.832   1.311  16.871  0.4269  0.3345 -0.8427
 1893TIP3    H127170   2.904   1.252  16.848  0.0788  0.4589 -2.3814
 1893TIP3    H227171   2.834   1.379  16.804 -0.4860  0.9045 -0.3134
 1894TIP3   OH227172   3.466   1.307  11.860  0.4553  0.3312  0.2030
 1894TIP3    H127173   3.486   1.355  11.779  1.6812 -0.2491  0.1394
 1894TIP3    H227174   3.391   1.353  11.897 -0.5379  0.2363 -1.5751
 1895TIP3   OH227175   1.289   3.426   1.554  0.5274  0.0776  0.1112
 1895TIP3    H127176   1.204   3.462   1.526 -0.1179 -0.0568  1.7857
 1895TIP3    H227177   1.330   3.499   1.601  0.2329 -0.6302  1.4891
 1896TIP3   OH227178   5.904   4.212  13.287  0.0851  0.5179 -0.6483
 1896TIP3    H127179   5.828   4.259  13.252 -1.8582 -0.1792  2.2820
 1896TIP3    H227180   5.969   4.280  13.302 -0.8371  1.5065 -1.0056
 1897TIP3   OH227181   3.210   0.928   5.167 -0.0247 -0.1566  0.1937
 1897TIP3    H127182   3.201   0.979   5.087  0.8367  0.4342  0.4606
 1897TIP3    H227183   3.199   0.992   5.237  1.1812 -0.3040  0.5289
 1898TIP3   OH227184   5.934   0.404   1.269  0.2349  0.1529 -0.2522
 1898TIP3    H127185   5.917   0.488   1.227  4.2194  0.9519 -0.6592
 1898TIP3    H227186   5.920   0.421   1.362  1.2452  1.4006 -0.3007
 1899TIP3   OH227187   2.630   6.538   1.838  0.5613 -0.5296 -0.2437
 1899TIP3    H127188   2.641   6.600   1.766  2.6091  0.8830  1.1606
 1899TIP3    H227189   2.700   6.474   1.826  1.8440  0.5373  1.2068
 1900TIP3   OH227190   3.440   5.717   1.777  0.0774 -0.0341  0.0115
 1900TIP3    H127191   3.407   5.648   1.720 -0.1622 -0.4470  0.6399
 1900TIP3    H227192   3.453   5.675   1.861  2.0507  0.1659 -0.1590
 1901TIP3   OH227193   4.197   6.220  12.005 -1.5117  0.3781  0.0912
 1901TIP3    H127194   4.214   6.287  12.072 -0.0309 -0.1655  0.2984
 1901TIP3    H227195   4.252   6.245  11.931  0.0733 -1.2420  0.6352
 1902TIP3   OH227196   4.078   6.182   0.061  0.3134 -0.0275  0.0200
 1902TIP3    H127197   4.173   6.172   0.056  0.4381  0.8120  0.4795
 1902TIP3    H227198   4.045   6.137  -0.016  0.9869 -1.4970  0.5411
 1903TIP3   OH227199   3.097   5.994   2.394 -0.4517  0.2408  0.2037
 1903TIP3    H127200   3.143   5.917   2.428 -0.0252  0.7011  0.6886
 1903TIP3    H227201   3.125   6.001   2.303  0.5507  0.5853  0.5258
 1904TIP3   OH227202   0.851   6.610   1.324 -0.8094 -0.1555  0.4306
 1904TIP3    H127203   0.781   6.589   1.386 -1.5615 -2.7493 -1.1460
 1904TIP3    H227204   0.914   6.538   1.334  0.0530  0.4586 -0.4016
 1905TIP3   OH227205   0.795   5.619   3.892  0.1169  0.1758 -0.4355
 1905TIP3    H127206   0.742   5.556   3.842 -3.4726  2.4217  0.1456
 1905TIP3    H227207   0.813   5.689   3.829 -2.3970  1.9056  0.5894
 1906TIP3   OH227208   2.218   4.044  13.641  0.0526 -0.0337 -0.0672
 1906TIP3    H127209   2.211   4.134  13.610  0.2607  0.1936  0.5425
 1906TIP3    H227210   2.128   4.010  13.639 -0.2386  0.6283  1.0101
 1907TIP3   OH227211   1.123   2.935   0.058 -0.1504 -0.3433  0.1109
 1907TIP3    H127212   1.137   2.995  -0.015 -1.8480 -0.5121 -0.3921
 1907TIP3    H227213   1.037   2.960   0.093 -0.0715 -1.3049  1.0290
 1908TIP3   OH227214   6.244   3.800  17.138 -0.0851  0.3398 -0.2344
 1908TIP3    H127215   6.227   3.730  17.201 -3.4155  0.7250 -0.5160
 1908TIP3    H227216   6.228   3.760  17.052 -1.8432  1.3060 -0.4072
 1909TIP3   OH227217   0.718   3.022  17.187 -0.0365 -0.0530 -0.3187
 1909TIP3    H127218   0.660   3.078  17.134 -0.9709  1.1858  1.8529
 1909TIP3    H227219   0.736   2.947  17.132 -0.1056  1.6108 -2.7607
 1910TIP3   OH227220   5.660   0.063   1.349 -0.0234  0.4759  0.0470
 1910TIP3    H127221   5.755   0.068   1.356 -0.1639  2.1809  1.4127
 1910TIP3    H227222   5.643   0.051   1.256  1.5183  0.7228 -0.2841
 1911TIP3   OH227223   5.003   4.254  15.067 -0.1055 -0.4891 -0.6716
 1911TIP3    H127224   5.058   4.178  15.050  0.4416  0.0355 -1.3096
 1911TIP3    H227225   5.026   4.281  15.156  0.5887 -0.3387 -0.8932
 1912TIP3   OH227226   3.982   5.416  16.869  0.0153 -0.0421 -0.0395
 1912TIP3    H127227   3.890   5.389  16.865  0.3329 -1.2236  0.1191
 1912TIP3    H227228   4.003   5.443  16.780  0.0970 -1.8634 -0.6249
 1913TIP3   OH227229   0.877   4.350   0.194  0.2138  0.2529  0.4583
 1913TIP3    H127230   0.911   4.273   0.148  1.5589  0.3581  1.2320
 1913TIP3    H227231   0.882   4.421   0.130  0.7278  0.0940  0.3184
 1914TIP3   OH227232   6.558   1.236  11.705  0.8657 -0.1042  0.2513
 1914TIP3    H127233   6.466   1.241  11.675  0.9791 -0.3832 -0.1513
 1914TIP3    H227234   6.595   1.163  11.656  1.2754 -0.0660  0.5031
 1915TIP3   OH227235   2.058   3.115  12.358  0.4403 -0.5535 -0.2767
 1915TIP3    H127236   2.118   3.169  12.410  0.4396 -0.3867 -0.4483
 1915TIP3    H227237   1.980   3.106  12.413  0.6177 -0.7632 -0.0555
 1916TIP3   OH227238   2.998   5.928   6.115  0.1099  0.5070  0.0381
 1916TIP3    H127239   3.029   5.960   6.030 -1.2467 -1.4887 -1.2868
 1916TIP3    H227240   2.930   5.989   6.141 -2.8373 -1.2995 -2.7119
 1917TIP3   OH227241   2.841   4.812   0.155  0.3795  0.3923 -0.1980
 1917TIP3    H127242   2.807   4.881   0.213  0.0461 -0.7822  1.0732
 1917TIP3    H227243   2.877   4.747   0.215  0.0237 -0.8823 -1.3296
 1918TIP3   OH227244   4.465   3.768   6.249 -0.0259 -0.1362  0.4880
 1918TIP3    H127245   4.488   3.693   6.304  1.5304 -1.8845 -2.2910
 1918TIP3    H227246   4.375   3.750   6.220  0.5214 -1.3112 -0.5965
 1919TIP3   OH227247   5.011   1.048  11.981  0.5112  0.0100  0.3193
 1919TIP3    H127248   4.982   1.137  12.002  2.3879  1.1471 -1.5710
 1919TIP3    H227249   5.084   1.031  12.040  0.0780 -0.3653  0.7630
 1920TIP3   OH227250   4.803   6.048   1.508 -0.0879 -0.3381 -0.7245
 1920TIP3    H127251   4.740   5.977   1.522  0.8201 -0.9850  0.2184
 1920TIP3    H227252   4.804   6.061   1.413 -0.6333 -1.2450 -0.8621
 1921TIP3   OH227253   6.811   2.685  12.916 -0.0924  0.3046  0.1257
 1921TIP3    H127254   6.903   2.695  12.892 -0.1404  1.2490  0.3072
 1921TIP3    H227255   6.764   2.689  12.833 -0.1951  2.7936  0.2418
 1922TIP3   OH227256   5.414   2.982   1.338 -0.4072 -0.1640  0.1055
 1922TIP3    H127257   5.345   2.950   1.281 -1.1289 -0.7033  1.2452
 1922TIP3    H227258   5.451   3.058   1.292  1.1749 -2.3527 -2.5865
 1923TIP3   OH227259   6.175   4.658  12.526 -0.5865 -0.6389  0.1344
 1923TIP3    H127260   6.222   4.577  12.546 -0.4915 -0.4256  0.7967
 1923TIP3    H227261   6.168   4.703  12.610  0.2487  0.5119 -0.3898
 1924TIP3   OH227262   2.246   2.800   6.951 -0.1428  0.2590  0.0497
 1924TIP3    H127263   2.159   2.824   6.919  0.6990  0.4229 -2.3542
 1924TIP3    H227264   2.293   2.772   6.872  1.5184 -1.2888  1.5191
 1925TIP3   OH227265   3.965   6.608   5.880 -0.2455 -0.4658 -0.4193
 1925TIP3    H127266   4.015   6.689   5.896 -0.5295 -0.0064 -1.7028
 1925TIP3    H227267   3.919   6.625   5.798 -2.3336 -0.9775  0.5754
 1926TIP3   OH227268   4.885   6.189  16.437  0.0690  0.2425  0.4439
 1926TIP3    H127269   4.901   6.196  16.343  1.0098  1.7948  0.6774
 1926TIP3    H227270   4.817   6.254  16.455 -1.3355 -1.2189  0.6087
 1927TIP3   OH227271   5.734   4.541   5.940  0.0700  0.3482  0.1462
 1927TIP3    H127272   5.743   4.566   6.032  0.1944 -0.6601  0.4247
 1927TIP3    H227273   5.641   4.524   5.929  0.0165  0.7338  0.0153
 1928TIP3   OH227274   5.234   3.089  11.316 -0.2477 -0.0747 -0.1252
 1928TIP3    H127275   5.304   3.072  11.254  0.7822 -0.5718  1.1171
 1928TIP3    H227276   5.241   3.183  11.334 -0.5073  0.0575 -0.6881
 1929TIP3   OH227277   5.896   5.895   4.885  0.1500  0.2051 -0.0864
 1929TIP3    H127278   5.912   5.912   4.793  0.2948 -1.4105 -0.3891
 1929TIP3    H227279   5.932   5.971   4.931  3.5867 -0.6509 -1.0860
 1930TIP3   OH227280   4.860   3.341  15.777 -0.7564  0.1600 -0.5443
 1930TIP3    H127281   4.944   3.301  15.801 -0.0854 -0.7369 -3.8455
 1930TIP3    H227282   4.794   3.285  15.818  0.2393 -0.3404  0.4158
 1931TIP3   OH227283   0.139   5.960  15.946 -0.3185  0.9661  0.2664
 1931TIP3    H127284   0.085   5.942  15.869  2.1562 -0.6912 -1.2069
 1931TIP3    H227285   0.092   6.030  15.991 -1.9491  1.9851 -2.6875
 1932TIP3   OH227286   1.264   6.434   4.640 -0.2820 -0.0527 -0.1369
 1932TIP3    H127287   1.179   6.475   4.653  0.1391  0.4612  1.2001
 1932TIP3    H227288   1.290   6.404   4.727  0.1438 -1.7628 -0.8067
 1933TIP3   OH227289   2.026   1.801  14.172  0.0602 -0.8293 -0.4552
 1933TIP3    H127290   2.013   1.850  14.090 -1.5964 -1.4303 -0.5883
 1933TIP3    H227291   2.054   1.867  14.235 -2.3931  0.4322 -0.5628
 1934TIP3   OH227292   5.044   0.376   3.034  0.4310  0.1970 -0.1104
 1934TIP3    H127293   5.016   0.340   2.950  1.5346  0.2270 -0.5109
 1934TIP3    H227294   5.027   0.469   3.027  1.8838  0.4449 -0.9188
 1935TIP3   OH227295   5.235   4.978  12.591 -0.4056  0.0273  0.3638
 1935TIP3    H127296   5.205   5.036  12.522  0.0551 -0.7477 -0.5105
 1935TIP3    H227297   5.165   4.913  12.600 -0.6933  0.4179  0.9855
 1936TIP3   OH227298   2.880   6.699  15.469 -0.4971 -0.1218 -0.2951
 1936TIP3    H127299   2.874   6.604  15.465 -0.3073 -0.1594  0.3546
 1936TIP3    H227300   2.814   6.725  15.533  0.4261  0.0768  0.5889
 1937TIP3   OH227301   4.339   1.731  15.317  0.6099 -0.0584 -0.2120
 1937TIP3    H127302   4.363   1.639  15.326  1.8318  0.2818  0.1902
 1937TIP3    H227303   4.344   1.766  15.405  1.1157  0.6136 -0.4976
 1938TIP3   OH227304   2.971   4.088  16.776  0.6714 -0.5857 -0.6934
 1938TIP3    H127305   2.950   4.176  16.806 -2.3042 -1.0627 -1.1053
 1938TIP3    H227306   2.901   4.033  16.810  2.1605 -2.7316 -0.8934
 1939TIP3   OH227307   6.010   6.141  11.178  0.1552 -0.1706  0.3812
 1939TIP3    H127308   6.030   6.230  11.209  1.0654 -0.1257 -0.3019
 1939TIP3    H227309   6.046   6.138  11.090 -1.1893 -0.7444 -0.1726
 1940TIP3   OH227310   2.148   3.868   1.521 -0.0627 -0.0049  0.1673
 1940TIP3    H127311   2.228   3.857   1.471 -0.1393 -0.5609  0.1690
 1940TIP3    H227312   2.147   3.961   1.544 -1.3208  0.9359 -3.1010
 1941TIP3   OH227313   5.305   1.639   4.560 -0.4110  0.2191  0.0438
 1941TIP3    H127314   5.228   1.687   4.589 -0.0111  0.5113  0.6389
 1941TIP3    H227315   5.379   1.685   4.600  0.1062  0.1961 -0.8660
 1942TIP3   OH227316   4.463   4.311   5.231  0.2144 -0.2803 -0.7949
 1942TIP3    H127317   4.416   4.317   5.315  0.9147 -1.6306 -0.2801
 1942TIP3    H227318   4.503   4.397   5.221 -0.8026  0.2785 -0.3148
 1943TIP3   OH227319   1.565   4.022   4.346  0.0041  0.5836 -0.0019
 1943TIP3    H127320   1.632   3.976   4.397  0.4572  0.0070 -1.0737
 1943TIP3    H227321   1.483   4.005   4.393  0.4305  0.2323  0.6301
 1944TIP3   OH227322   5.117   0.140   2.128  0.3063 -0.0097  0.0520
 1944TIP3    H127323   5.200   0.158   2.083  0.9273 -2.2458  0.1902
 1944TIP3    H227324   5.139   0.139   2.221 -0.2070  0.8725  0.1938
 1945TIP3   OH227325   4.597   2.757  14.205  0.0827 -0.1940  0.6009
 1945TIP3    H127326   4.513   2.727  14.170  0.2089 -1.1129  1.0554
 1945TIP3    H227327   4.646   2.676  14.222  1.2228  0.3470 -0.0473
 1946TIP3   OH227328   0.291   4.375   0.765  0.6833  0.0822  0.6779
 1946TIP3    H127329   0.357   4.380   0.696  0.4859 -0.0065  0.4833
 1946TIP3    H227330   0.217   4.330   0.725  0.3466  0.5446  0.7695
 1947TIP3   OH227331   6.271   5.753   1.966  0.0164  0.4821 -0.1404
 1947TIP3    H127332   6.336   5.821   1.981  1.0107 -0.3147 -0.7592
 1947TIP3    H227333   6.320   5.679   1.930 -1.0594 -0.5292  0.4007
 1948TIP3   OH227334   2.994   4.803  16.482 -0.2308 -0.3945 -0.6674
 1948TIP3    H127335   3.073   4.852  16.505 -0.6427 -0.4659  1.0593
 1948TIP3    H227336   2.926   4.870  16.473 -0.2869 -0.4533 -0.6804
 1949TIP3   OH227337   4.446   0.995  14.873  0.1849 -0.3510 -0.4939
 1949TIP3    H127338   4.534   0.986  14.837  0.6845 -1.7012  0.9366
 1949TIP3    H227339   4.460   1.010  14.966 -1.0602 -3.0619  0.2293
 1950TIP3   OH227340   5.684   4.572  16.900 -0.3474  0.2177  0.1613
 1950TIP3    H127341   5.728   4.578  16.815 -1.9844  0.2267 -0.7327
 1950TIP3    H227342   5.723   4.641  16.952  1.0563 -0.1158 -0.3990
 1951TIP3   OH227343   0.174   4.555   0.346 -0.0743  0.1758 -0.1677
 1951TIP3    H127344   0.152   4.516   0.261 -1.1562  0.4702 -0.0328
 1951TIP3    H227345   0.178   4.649   0.328 -0.3092  0.2373  0.1069
 1952TIP3   OH227346   0.277   6.238   4.832 -0.4409 -0.1475 -0.1525
 1952TIP3    H127347   0.224   6.234   4.911  2.8107  2.2557  2.4454
 1952TIP3    H227348   0.240   6.310   4.782 -1.1547 -0.1760  0.3244
 1953TIP3   OH227349   6.667   3.502  12.276 -0.7223  0.2038  0.0335
 1953TIP3    H127350   6.677   3.557  12.198  1.1123  0.0912  0.1442
 1953TIP3    H227351   6.629   3.421  12.244  0.7900 -0.1655 -0.9195
 1954TIP3   OH227352   2.307   6.455  13.064  0.3656 -0.6156  0.0704
 1954TIP3    H127353   2.323   6.366  13.096 -0.2240 -1.0416 -0.7908
 1954TIP3    H227354   2.258   6.497  13.134  2.3767 -0.2886  1.3838
 1955TIP3   OH227355   6.157   0.430  14.860  0.0567  0.1116 -0.5468
 1955TIP3    H127356   6.232   0.378  14.834  0.9428  1.6032 -1.1165
 1955TIP3    H227357   6.158   0.428  14.956  1.4851  0.9531 -0.5098
 1956TIP3   OH227358   4.280   3.830  13.987 -0.1760 -0.2166  0.1248
 1956TIP3    H127359   4.264   3.876  14.070  1.9696  0.0875  0.4284
 1956TIP3    H227360   4.344   3.884  13.942  2.0604 -2.5490  0.2675
 1957TIP3   OH227361   3.000   1.274  12.120  0.5977  0.2252  0.2081
 1957TIP3    H127362   2.945   1.263  12.042  0.8441  0.6725 -0.0325
 1957TIP3    H227363   2.970   1.357  12.158 -0.8192 -0.8871  1.6524
 1958TIP3   OH227364   1.888   5.003   4.820 -0.4722  0.0099 -0.1756
 1958TIP3    H127365   1.879   4.988   4.914 -1.0495 -1.8665 -0.4923
 1958TIP3    H227366   1.913   4.918   4.784 -0.5510  0.6185 -1.7532
 1959TIP3   OH227367   3.409   2.701  12.153 -0.2683  0.4565  0.1582
 1959TIP3    H127368   3.382   2.710  12.244 -2.1287  0.0287 -0.3055
 1959TIP3    H227369   3.482   2.761  12.143  0.9305 -0.5664  2.2847
 1960TIP3   OH227370   1.211   3.967  15.415  0.2807  0.2019 -0.3619
 1960TIP3    H127371   1.254   4.052  15.411  0.7309 -0.0102 -0.0606
 1960TIP3    H227372   1.122   3.987  15.445 -1.2508  1.1424 -4.6706
 1961TIP3   OH227373   1.672   2.595  12.113 -0.0625  0.6382  0.5282
 1961TIP3    H127374   1.700   2.596  12.205  1.3633 -0.2668  0.1317
 1961TIP3    H227375   1.580   2.566  12.116  0.6180 -1.6327  1.5445
 1962TIP3   OH227376   0.684   3.440   2.372 -0.5836 -0.5507  0.6049
 1962TIP3    H127377   0.644   3.467   2.289  1.4772  1.0733  0.0397
 1962TIP3    H227378   0.642   3.496   2.437 -1.9861 -1.6154  0.6740
 1963TIP3   OH227379   4.914   6.513   4.278  0.2240 -0.3808 -0.0016
 1963TIP3    H127380   4.952   6.570   4.211  2.2584 -1.6367 -0.0004
 1963TIP3    H227381   4.885   6.436   4.229 -0.3877 -0.3359  0.2886
 1964TIP3   OH227382   3.574   1.807   0.579 -0.1936  0.2341 -0.3342
 1964TIP3    H127383   3.576   1.886   0.525 -1.6258  0.7697  0.3467
 1964TIP3    H227384   3.594   1.736   0.518  2.9345  1.2183 -0.6230
 1965TIP3   OH227385   1.362   2.370  14.173 -0.0420  0.0249  0.4404
 1965TIP3    H127386   1.337   2.278  14.166 -0.2680  0.1514 -0.5983
 1965TIP3    H227387   1.309   2.415  14.107 -1.2081  1.1895  2.0835
 1966TIP3   OH227388   6.591   5.665   1.357  0.5749 -0.5666 -0.7795
 1966TIP3    H127389   6.499   5.692   1.358  0.6775  0.0647 -2.6743
 1966TIP3    H227390   6.640   5.748   1.351  1.1628 -0.9540 -1.5596
 1967TIP3   OH227391   6.199   1.722  11.199  0.1279  0.3161 -0.6816
 1967TIP3    H127392   6.186   1.800  11.145 -0.4681 -0.2647 -1.4037
 1967TIP3    H227393   6.140   1.735  11.274 -1.3512 -0.2381 -1.7032
 1968TIP3   OH227394   0.802   4.218  12.347 -0.2849  0.4990 -0.1703
 1968TIP3    H127395   0.758   4.133  12.342 -0.9406  0.8942 -1.2881
 1968TIP3    H227396   0.842   4.218  12.434 -1.1266 -0.5329  0.2473
 1969TIP3   OH227397   6.131   0.545   0.867 -0.0563 -0.4132 -0.3038
 1969TIP3    H127398   6.048   0.561   0.911  0.0425  1.4753 -0.7037
 1969TIP3    H227399   6.195   0.596   0.917  0.5933 -0.6531 -0.8649
 1970TIP3   OH227400   4.464   2.508   3.390  0.8671  0.2539  0.0707
 1970TIP3    H127401   4.459   2.413   3.399 -0.9106  0.0466 -2.0321
 1970TIP3    H227402   4.372   2.537   3.391  1.3717  1.9648  0.7059
 1971TIP3   OH227403   0.907   3.566  15.248  0.3893 -0.0485 -0.3458
 1971TIP3    H127404   0.879   3.645  15.293 -1.5091 -0.1957 -1.1781
 1971TIP3    H227405   0.863   3.569  15.163  0.0420 -2.1054 -0.3030
 1972TIP3   OH227406   1.271   3.057   5.803 -0.2047 -0.1715 -0.0797
 1972TIP3    H127407   1.322   3.110   5.865 -0.3355 -0.3144  0.1524
 1972TIP3    H227408   1.198   3.023   5.855 -1.7981  1.8181 -0.9424
 1973TIP3   OH227409   4.105   0.558  17.213  0.2758  0.1048  0.2303
 1973TIP3    H127410   4.061   0.580  17.295  1.3041  0.6502  0.6605
 1973TIP3    H227411   4.046   0.591  17.144 -1.5509 -2.0822  0.6161
 1974TIP3   OH227412   5.714   6.672  11.651  0.1802  0.0388 -0.7325
 1974TIP3    H127413   5.621   6.652  11.636  0.2752  0.2154 -1.6366
 1974TIP3    H227414   5.746   6.700  11.565  1.0156  0.2072 -0.3726
 1975TIP3   OH227415   0.574   1.988   5.240  0.5647  0.0366 -0.0762
 1975TIP3    H127416   0.487   2.013   5.272  1.1251 -0.1820  1.7477
 1975TIP3    H227417   0.579   1.894   5.256  0.8959 -0.0707 -0.7918
 1976TIP3   OH227418   6.715   1.513   6.183 -0.3898 -0.1424  0.4071
 1976TIP3    H127419   6.662   1.449   6.135 -0.6705  0.0768  0.4192
 1976TIP3    H227420   6.651   1.560   6.237 -0.1359 -0.0957  0.6677
 1977TIP3   OH227421   2.916   1.320  14.378 -0.4017  0.1725  0.3523
 1977TIP3    H127422   2.902   1.248  14.317 -0.4653  0.4090  0.0852
 1977TIP3    H227423   2.999   1.359  14.351 -1.3216  1.4328 -0.7719
 1978TIP3   OH227424   1.716   5.098   3.920 -0.3647  0.1886  0.2510
 1978TIP3    H127425   1.676   5.184   3.903 -2.0926 -0.6895 -0.2855
 1978TIP3    H227426   1.799   5.119   3.963  0.2881  2.2247 -1.7826
 1979TIP3   OH227427   5.547   4.720   5.570 -0.3376  1.0695 -0.2999
 1979TIP3    H127428   5.511   4.756   5.651 -1.0595  2.0184 -1.0307
 1979TIP3    H227429   5.628   4.769   5.556  0.3543  0.1714  0.3856
 1980TIP3   OH227430   4.099   5.139   3.456 -0.0663 -0.1354 -0.1093
 1980TIP3    H127431   4.071   5.225   3.488  2.1497  0.9670 -0.9368
 1980TIP3    H227432   4.020   5.101   3.419 -1.3075  1.1604  1.0607
 1981TIP3   OH227433   3.144   1.890   0.207  0.8481  0.9655  0.0748
 1981TIP3    H127434   3.089   1.911   0.131  0.9047  0.2664 -0.1675
 1981TIP3    H227435   3.089   1.910   0.282  0.3155  0.4508 -0.1665
 1982TIP3   OH227436   4.922   2.592  11.143  0.0971 -0.6356 -0.5433
 1982TIP3    H127437   4.846   2.579  11.086 -0.1487  1.6306 -0.8051
 1982TIP3    H227438   4.995   2.605  11.083  0.0803  0.4407 -0.3448
 1983TIP3   OH227439   3.649   6.793   2.172  0.5024  0.4530  0.4050
 1983TIP3    H127440   3.598   6.742   2.235 -1.0668  1.4679  0.0209
 1983TIP3    H227441   3.623   6.884   2.190  2.4652  1.0462  0.4212
 1984TIP3   OH227442   4.401   1.948  11.445 -0.0525 -0.5826 -0.1495
 1984TIP3    H127443   4.392   2.035  11.484  1.7196 -0.7957  0.8152
 1984TIP3    H227444   4.396   1.964  11.351  1.0095  0.6954 -0.0206
 1985TIP3   OH227445   3.801   5.606  12.302 -0.0742  1.0342  0.0192
 1985TIP3    H127446   3.794   5.532  12.362  0.3446  1.0666  0.1106
 1985TIP3    H227447   3.724   5.598  12.245 -0.0061  0.4985 -0.0036
 1986TIP3   OH227448   2.643   0.521   2.066 -0.1870  0.5076 -0.2263
 1986TIP3    H127449   2.717   0.538   2.008  1.3971  1.4246  1.9055
 1986TIP3    H227450   2.577   0.587   2.042  1.8412  3.2637  1.1832
 1987TIP3   OH227451   1.082   3.637  13.603  0.2972  0.2177 -0.2569
 1987TIP3    H127452   1.003   3.654  13.553  0.7278 -0.6388 -1.2770
 1987TIP3    H227453   1.054   3.581  13.675  0.1498 -1.1239 -1.3180
 1988TIP3   OH227454   5.351   1.560   3.526 -0.4068  0.6639 -0.2798
 1988TIP3    H127455   5.415   1.629   3.508  1.0434 -0.3271  0.8527
 1988TIP3    H227456   5.289   1.600   3.586 -0.5825  1.4892 -0.9854
 1989TIP3   OH227457   2.694   6.758   2.984  0.1867 -0.3301  0.2262
 1989TIP3    H127458   2.626   6.714   3.035  0.5352  0.2589  1.2454
 1989TIP3    H227459   2.694   6.848   3.017  1.1853 -0.2243 -0.0177
 1990TIP3   OH227460   1.946   6.178   3.213  0.0362 -0.1610 -0.3484
 1990TIP3    H127461   1.897   6.220   3.284  2.1507 -0.6407  1.4735
 1990TIP3    H227462   1.993   6.250   3.171  0.3891 -0.1547  0.0598
 1991TIP3   OH227463   3.680   2.653  16.084  0.3281  0.6175 -0.2678
 1991TIP3    H127464   3.629   2.671  16.162  0.4683 -0.1867  0.0277
 1991TIP3    H227465   3.662   2.726  16.025 -0.7493  0.6081  0.0279
 1992TIP3   OH227466   3.114   0.162   2.263  0.3968 -0.3241 -0.2548
 1992TIP3    H127467   3.035   0.214   2.245  0.4304  0.1761  0.9668
 1992TIP3    H227468   3.082   0.077   2.291  0.3329 -0.7519 -1.5555
 1993TIP3   OH227469   1.491   0.921   1.892  0.5748  0.2106 -0.6905
 1993TIP3    H127470   1.431   0.970   1.948  0.7424 -1.9713  1.5794
 1993TIP3    H227471   1.436   0.887   1.822  0.1583  2.2049 -1.3770
 1994TIP3   OH227472   4.027   2.940   3.129  0.1369  0.2877  0.4310
 1994TIP3    H127473   3.960   2.891   3.177 -0.7968  2.3474  1.3177
 1994TIP3    H227474   3.995   2.942   3.039 -0.1872 -0.0618  0.5338
 1995TIP3   OH227475   5.090   0.708  13.056 -0.2256 -0.4097 -0.3813
 1995TIP3    H127476   5.002   0.713  13.020 -1.6491  0.9208  2.8333
 1995TIP3    H227477   5.086   0.634  13.117  0.1025  1.0057  1.4438
 1996TIP3   OH227478   4.490   0.673  16.713  0.2714 -0.4306  0.4185
 1996TIP3    H127479   4.432   0.639  16.644 -0.4806 -0.8779  1.2591
 1996TIP3    H227480   4.453   0.758  16.735  0.4855 -0.3071  0.3012
 1997TIP3   OH227481   3.987   3.236   6.595  0.5053 -0.3629 -0.1858
 1997TIP3    H127482   4.050   3.175   6.632  0.2274 -0.2141  0.5449
 1997TIP3    H227483   3.902   3.197   6.614  0.2722  0.8208  1.3654
 1998TIP3   OH227484   6.279   3.229  15.148 -0.3989  0.3367 -0.2342
 1998TIP3    H127485   6.192   3.266  15.137 -0.7509 -0.2375  0.4670
 1998TIP3    H227486   6.280   3.152  15.091 -1.6563 -1.7149  2.2678
 1999TIP3   OH227487   4.926   4.814  13.117 -0.4635  0.3007  0.0150
 1999TIP3    H127488   4.957   4.810  13.027  3.1730 -2.1954  1.1209
 1999TIP3    H227489   4.919   4.722  13.144 -2.0997  0.9518  2.1219
 2000TIP3   OH227490   6.657   6.721  16.101 -0.0414 -0.4435 -0.2502
 2000TIP3    H127491   6.579   6.750  16.148 -0.2801 -0.1800 -0.7925
 2000TIP3    H227492   6.644   6.628  16.086  0.0010 -0.5119  0.1339
 2001TIP3   OH227493   2.773   3.071  11.249  0.0860 -0.7302 -0.0144
 2001TIP3    H127494   2.725   3.083  11.168 -0.6157  1.9150  0.6778
 2001TIP3    H227495   2.796   3.160  11.277  1.7677 -1.6429  1.8341
 2002TIP3   OH227496   1.540   0.063  13.555 -0.3708  0.6009  0.2001
 2002TIP3    H127497   1.552   0.104  13.469 -0.5256  1.7152  0.6897
 2002TIP3    H227498   1.570  -0.027  13.543 -0.8127  0.6058 -1.1340
 2003TIP3   OH227499   2.758   2.709   1.090  0.0669  0.5086 -0.6010
 2003TIP3    H127500   2.729   2.635   1.144 -2.0352  1.5739 -0.1648
 2003TIP3    H227501   2.755   2.676   1.000  0.6170 -0.3621 -0.3159
 2004TIP3   OH227502   2.050   0.498   4.922 -0.1509 -0.0538  0.2182
 2004TIP3    H127503   2.063   0.441   4.997 -0.3431  1.5677  1.5371
 2004TIP3    H227504   2.005   0.575   4.957  1.8449  1.8287 -1.0607
 2005TIP3   OH227505   1.558   0.070   5.410  0.3704 -0.0722  0.1604
 2005TIP3    H127506   1.503   0.013   5.356 -0.7038  2.0834 -1.1628
 2005TIP3    H227507   1.588   0.013   5.481 -0.7410 -2.2216 -0.9765
 2006TIP3   OH227508   6.228   2.883   1.000 -0.0787 -0.0685 -0.0928
 2006TIP3    H127509   6.257   2.821   0.934  0.0171 -1.7703  1.4743
 2006TIP3    H227510   6.277   2.860   1.078 -1.2775  0.8927  0.9892
 2007TIP3   OH227511   2.438   0.763   0.442 -0.2799 -0.3686  0.7371
 2007TIP3    H127512   2.403   0.714   0.516 -2.6711 -0.7612 -0.5454
 2007TIP3    H227513   2.447   0.698   0.372 -2.6079  0.7112 -0.7010
 2008TIP3   OH227514   3.993   6.356  15.421 -0.1438  0.2593  0.5122
 2008TIP3    H127515   3.908   6.339  15.461  0.7525  0.1436  2.4626
 2008TIP3    H227516   4.045   6.279  15.440  0.4175  0.3086 -0.7072
 2009TIP3   OH227517   5.432   0.889   2.001 -0.0765  0.4055  0.1912
 2009TIP3    H127518   5.525   0.886   2.027 -0.1267  1.3025  0.5441
 2009TIP3    H227519   5.418   0.809   1.951  1.5410  1.3879 -2.0229
 2010TIP3   OH227520   0.716   1.085   4.214  0.1845  0.6291  0.4774
 2010TIP3    H127521   0.675   1.061   4.297 -1.8830  0.4560 -0.5301
 2010TIP3    H227522   0.669   1.164   4.186 -2.0445 -1.5217 -2.4179
 2011TIP3   OH227523   3.141   4.055   3.297 -0.5797  0.1683  0.1645
 2011TIP3    H127524   3.233   4.082   3.301 -0.1647 -1.2917  2.3899
 2011TIP3    H227525   3.096   4.132   3.263  1.3617  1.2023 -0.2659
 2012TIP3   OH227526   2.437   4.983   4.053 -0.0111 -0.0414 -0.4780
 2012TIP3    H127527   2.521   4.945   4.081 -0.3511  0.9845  2.2691
 2012TIP3    H227528   2.460   5.045   3.984  1.1188 -1.6992 -1.6618
 2013TIP3   OH227529   0.383   3.086  12.338  0.0099 -1.0820  0.0752
 2013TIP3    H127530   0.362   3.166  12.387  1.7655 -0.8018  0.4699
 2013TIP3    H227531   0.405   3.022  12.405  0.5554 -1.2822 -0.2858
 2014TIP3   OH227532   5.964   6.004  14.372 -0.5669 -0.1281 -0.3595
 2014TIP3    H127533   5.918   6.023  14.290  1.2131 -1.7280 -1.8309
 2014TIP3    H227534   6.004   6.087  14.396 -0.8439  0.2977 -1.3021
 2015TIP3   OH227535   1.053   0.259  17.110  0.0548 -0.1920 -0.2948
 2015TIP3    H127536   1.129   0.291  17.060  0.3115 -0.7228 -0.2539
 2015TIP3    H227537   1.090   0.198  17.173 -0.4761 -0.8775 -0.6422
 2016TIP3   OH227538   3.689   3.965   4.746  0.1017 -0.2368 -0.6886
 2016TIP3    H127539   3.718   3.961   4.838  1.7501 -1.9998 -1.2117
 2016TIP3    H227540   3.594   3.977   4.752  0.1883 -0.0481  1.2358
 2017TIP3   OH227541   0.991   6.292   3.810 -0.0483  0.6398  0.2405
 2017TIP3    H127542   1.031   6.367   3.767  0.4894  1.2065  1.6856
 2017TIP3    H227543   0.909   6.326   3.846 -0.3531  0.2371 -0.0565
 2018TIP3   OH227544   5.334   0.951  15.209 -0.2808  0.7154 -0.2079
 2018TIP3    H127545   5.397   0.886  15.238 -1.1551  0.1776  0.5738
 2018TIP3    H227546   5.301   0.918  15.125  0.4062  0.9585 -0.5779
 2019TIP3   OH227547   1.908   0.574  14.962 -0.6888  0.2175 -0.4850
 2019TIP3    H127548   1.827   0.601  14.919 -0.7112  2.3440  0.7451
 2019TIP3    H227549   1.963   0.539  14.892 -1.4184  1.7913 -1.8970
 2020TIP3   OH227550   1.070   0.508   5.323 -0.2881 -0.5196 -0.0988
 2020TIP3    H127551   1.127   0.433   5.338 -0.0721 -0.2027  0.7552
 2020TIP3    H227552   1.100   0.546   5.241  0.8531 -0.2552  0.4218
 2021TIP3   OH227553   2.891   0.400   0.551  0.0771  0.1060 -0.1411
 2021TIP3    H127554   2.937   0.481   0.532 -1.4926  1.2789  0.8031
 2021TIP3    H227555   2.915   0.379   0.641 -1.7352  1.1898  0.6713
 2022TIP3   OH227556   2.838   0.533  15.386  0.1060 -0.6277 -0.0084
 2022TIP3    H127557   2.797   0.581  15.314 -2.5552 -0.8398  1.2528
 2022TIP3    H227558   2.910   0.485  15.345 -0.9338 -0.2717 -2.4039
 2023TIP3   OH227559   0.710   0.285  13.065  0.9945 -0.7379 -0.0309
 2023TIP3    H127560   0.734   0.251  13.152 -0.6209 -2.1094 -0.0656
 2023TIP3    H227561   0.630   0.336  13.080 -0.9968 -3.3429 -1.0094
 2024TIP3   OH227562   1.555   4.305   0.432 -0.1108  0.0290 -0.1907
 2024TIP3    H127563   1.555   4.323   0.338 -1.9805 -1.3972 -0.5272
 2024TIP3    H227564   1.628   4.244   0.445  1.1733  1.4698 -0.3966
 2025TIP3   OH227565   4.410   1.706  12.573 -1.0184  0.6132  0.0163
 2025TIP3    H127566   4.479   1.734  12.513 -1.9157  0.6150 -1.0347
 2025TIP3    H227567   4.457   1.663  12.645  0.0783  0.7227 -0.6168
 2026TIP3   OH227568   3.471   2.894  12.630 -0.0559  0.8495 -0.3806
 2026TIP3    H127569   3.488   2.835  12.704  1.6533  1.2602 -0.4051
 2026TIP3    H227570   3.419   2.965  12.667  0.2628  0.7332  0.3091
 2027TIP3   OH227571   1.126   5.856  16.295 -0.5821 -0.1105 -0.3020
 2027TIP3    H127572   1.211   5.893  16.273 -0.7514  0.4126 -0.0878
 2027TIP3    H227573   1.118   5.869  16.389 -1.6215  1.3975 -0.5629
 2028TIP3   OH227574   2.640   4.492  15.531 -0.5362 -0.1144  0.3951
 2028TIP3    H127575   2.694   4.511  15.607  0.0980 -0.8632  0.1552
 2028TIP3    H227576   2.570   4.435  15.564 -0.1766 -0.5614  0.4037
 2029TIP3   OH227577   5.139   4.333  12.000 -0.0997  0.8116  0.4116
 2029TIP3    H127578   5.121   4.263  12.063  0.0941  0.4332  0.0472
 2029TIP3    H227579   5.094   4.410  12.036 -2.2858 -0.0449 -0.3502
 2030TIP3   OH227580   4.327   2.361  15.023 -0.1622 -0.5322  0.0004
 2030TIP3    H127581   4.403   2.418  15.025  0.1004 -0.8867  0.8559
 2030TIP3    H227582   4.298   2.361  14.932  1.0548 -0.6410 -0.3952
 2031TIP3   OH227583   4.179   6.402   3.074  0.0138 -0.5966  0.8423
 2031TIP3    H127584   4.229   6.396   3.155 -0.3511  1.5156  1.2880
 2031TIP3    H227585   4.088   6.391   3.101  0.0004 -1.6037  0.4406
 2032TIP3   OH227586   1.644   2.596   5.448  0.4382 -0.0721 -0.2335
 2032TIP3    H127587   1.572   2.545   5.483  0.7173 -0.2529  0.0751
 2032TIP3    H227588   1.674   2.546   5.371  0.1786  0.0507 -0.4168
 2033TIP3   OH227589   0.652   4.557  12.597 -0.3127  0.3349  0.5442
 2033TIP3    H127590   0.701   4.531  12.674  1.2038 -0.3584 -0.5987
 2033TIP3    H227591   0.575   4.501  12.597  1.3089 -2.0410 -0.1459
 2034TIP3   OH227592   1.245   0.667   6.153  0.1263  0.1400 -0.5491
 2034TIP3    H127593   1.321   0.610   6.141  0.1233  0.1862 -0.7966
 2034TIP3    H227594   1.282   0.756   6.157  0.0857  0.1626 -0.6710
 2035TIP3   OH227595   1.798   0.952   0.501 -0.1190 -0.3070  0.0254
 2035TIP3    H127596   1.848   0.889   0.555  1.4656  2.3015  1.8357
 2035TIP3    H227597   1.859   0.977   0.431 -0.7926 -0.8277 -0.7672
 2036TIP3   OH227598   4.153   1.008   4.437  0.1177  0.3477  0.6014
 2036TIP3    H127599   4.124   1.045   4.354  0.0478  1.5971  1.1680
 2036TIP3    H227600   4.073   0.971   4.476  0.0872  0.0709  0.2773
 2037TIP3   OH227601   6.744   5.470  17.163  0.2661 -0.6406 -0.2252
 2037TIP3    H127602   6.743   5.498  17.071  0.8476  1.1629  0.2798
 2037TIP3    H227603   6.665   5.510  17.201  0.2933 -0.9578  0.1691
 2038TIP3   OH227604   4.549   0.491   1.990  0.1654  0.4218  0.3710
 2038TIP3    H127605   4.456   0.498   1.970  0.4887  0.4539 -1.2398
 2038TIP3    H227606   4.593   0.506   1.906  1.6376  0.7445  1.1660
 2039TIP3   OH227607   3.895   4.796   2.044  0.4003  0.6360  0.4026
 2039TIP3    H127608   3.931   4.795   1.955 -0.1260 -0.2805  0.1923
 2039TIP3    H227609   3.949   4.734   2.093  0.0780  0.4085  0.4738
 2040TIP3   OH227610   3.043   4.480  11.395  0.6828  0.4411 -0.3789
 2040TIP3    H127611   2.988   4.494  11.472  0.5033 -0.6243 -0.2945
 2040TIP3    H227612   2.981   4.450  11.327  1.0893 -0.3651 -0.4038
 2041TIP3   OH227613   4.056   2.986   6.260  0.4150 -0.0890  0.3228
 2041TIP3    H127614   4.034   2.962   6.350  0.1213 -0.1969  0.2202
 2041TIP3    H227615   4.124   3.053   6.270  1.4090 -1.1018  0.6155
 2042TIP3   OH227616   1.644   1.841   6.724  0.1634 -0.2265  0.5214
 2042TIP3    H127617   1.668   1.752   6.696 -0.1977 -0.3507  0.5983
 2042TIP3    H227618   1.696   1.856   6.803  0.8892 -0.0281  0.0133
 2043TIP3   OH227619   0.532   4.852   1.415 -0.1556  0.3551  0.2082
 2043TIP3    H127620   0.468   4.922   1.430  0.0808  0.2177  2.1623
 2043TIP3    H227621   0.504   4.782   1.474 -1.2829 -1.9042 -2.7830
 2044TIP3   OH227622   4.182   3.603   2.878  0.5402  0.1866 -0.5021
 2044TIP3    H127623   4.141   3.531   2.926 -0.9782  0.5190 -1.2246
 2044TIP3    H227624   4.113   3.670   2.874  1.1930  0.8114 -1.6914
 2045TIP3   OH227625   4.343   5.404  12.858  0.4074 -0.0902 -0.1786
 2045TIP3    H127626   4.366   5.360  12.776 -0.5083 -0.3935 -0.2809
 2045TIP3    H227627   4.310   5.489  12.831  0.8524  0.1211 -0.0676
 2046TIP3   OH227628   5.656   1.148  14.881 -0.1812  0.4567 -0.1324
 2046TIP3    H127629   5.745   1.143  14.918 -0.7292 -2.5113  1.0553
 2046TIP3    H227630   5.601   1.175  14.954 -0.4234  1.1117 -0.5525
 2047TIP3   OH227631   2.753   1.061  15.413  0.0668  0.1061  0.4942
 2047TIP3    H127632   2.715   1.011  15.341 -0.9311  0.3312  0.8549
 2047TIP3    H227633   2.815   1.001  15.454 -0.8679 -0.7338  0.7153
 2048TIP3   OH227634   2.197   2.191  15.901 -0.5694  0.4843  0.0408
 2048TIP3    H127635   2.164   2.266  15.851 -2.2134 -0.0824  0.2114
 2048TIP3    H227636   2.144   2.118  15.871  0.2462 -0.4008  0.7016
 2049TIP3   OH227637   3.039   2.613  11.120 -0.1044  0.1100  0.2060
 2049TIP3    H127638   2.997   2.530  11.141  0.1254  0.2010  1.0948
 2049TIP3    H227639   2.987   2.679  11.166 -1.0168  0.6125 -1.4910
 2050TIP3   OH227640   2.221   2.324  14.077 -0.3667 -0.1799 -0.0530
 2050TIP3    H127641   2.291   2.387  14.094  1.0873 -2.2159  2.2057
 2050TIP3    H227642   2.251   2.275  13.999 -0.2450  0.2457 -0.2753
 2051TIP3   OH227643   1.834   1.172  16.911  0.1709 -0.2540 -0.5211
 2051TIP3    H127644   1.873   1.095  16.951  0.3366  0.5671  0.9673
 2051TIP3    H227645   1.812   1.229  16.985 -3.5886 -0.5216 -1.2188
 2052TIP3   OH227646   3.937   0.491  11.067 -0.0338  0.0500  0.2060
 2052TIP3    H127647   3.879   0.415  11.075 -0.5767  0.2102 -1.7769
 2052TIP3    H227648   3.879   0.567  11.069  0.1512  0.2435 -1.1007
 2053TIP3   OH227649   3.939   5.335   4.532  0.3023  0.2040  0.0799
 2053TIP3    H127650   4.035   5.333   4.532  0.3236 -2.9515 -0.7733
 2053TIP3    H227651   3.917   5.404   4.595  3.1077  1.0680  0.2493
 2054TIP3   OH227652   3.956   4.510  16.055 -0.7709  0.5364  0.6492
 2054TIP3    H127653   3.994   4.572  15.993 -2.3891  1.7198  0.7814
 2054TIP3    H227654   3.990   4.536  16.140 -0.0881  0.1368  0.5042
 2055TIP3   OH227655   1.230   6.346   0.910  0.2450  0.0856  0.5918
 2055TIP3    H127656   1.317   6.312   0.932  0.0775 -0.4169  0.4850
 2055TIP3    H227657   1.173   6.317   0.981 -0.1036 -0.7372 -0.0093
 2056TIP3   OH227658   1.693   5.194  15.399  0.3646 -0.4007  0.2454
 2056TIP3    H127659   1.686   5.249  15.321  2.5387  0.9433  0.8980
 2056TIP3    H227660   1.703   5.256  15.472 -1.7150 -1.6070  1.6570
 2057TIP3   OH227661   5.257   5.978   5.443  0.4433  1.1854 -0.3402
 2057TIP3    H127662   5.313   5.949   5.371  1.3868  0.9295  0.4615
 2057TIP3    H227663   5.250   6.073   5.433 -0.4237  1.0181 -1.4377
 2058TIP3   OH227664   5.642   6.505  15.244  0.3562  0.1810 -0.0229
 2058TIP3    H127665   5.691   6.587  15.247  0.6470  0.0790 -1.3459
 2058TIP3    H227666   5.575   6.515  15.312  0.0091  1.7623 -0.5445
 2059TIP3   OH227667   0.960   3.584   0.437 -0.0742  0.1762 -0.4823
 2059TIP3    H127668   0.937   3.491   0.431 -2.7515  0.5604  1.7563
 2059TIP3    H227669   1.024   3.589   0.508  0.5371  0.0146 -1.0109
 2060TIP3   OH227670   6.058   3.593  15.480 -0.3785  0.7678  0.6063
 2060TIP3    H127671   5.966   3.609  15.457 -0.9239 -1.6542  0.8278
 2060TIP3    H227672   6.075   3.505  15.448  1.7575  0.9715  1.0378
 2061TIP3   OH227673   0.952   1.799   1.250 -0.8747  0.3080 -0.1170
 2061TIP3    H127674   0.943   1.862   1.178  0.5808 -0.7982 -1.3438
 2061TIP3    H227675   1.040   1.764   1.239 -0.0814  1.0115  3.0131
 2062TIP3   OH227676   1.133   1.059   2.718  0.0098 -0.4793 -0.0050
 2062TIP3    H127677   1.167   1.147   2.733  0.8802 -0.6159 -1.0615
 2062TIP3    H227678   1.182   1.026   2.642 -0.6417 -1.6900  0.0635
 2063TIP3   OH227679   5.242   0.010   1.323  0.6412  0.3360  0.2804
 2063TIP3    H127680   5.149   0.029   1.309  0.9485  0.9754 -1.1416
 2063TIP3    H227681   5.280   0.014   1.235  1.8739 -0.7267  0.7420
 2064TIP3   OH227682   3.892   1.628   3.208 -0.5014  0.1130 -0.4197
 2064TIP3    H127683   3.821   1.688   3.186 -1.5723 -1.2294 -0.7649
 2064TIP3    H227684   3.954   1.637   3.136  0.5700  2.5002  0.6681
 2065TIP3   OH227685   3.774   3.758   1.064 -0.2776 -0.4678 -0.1053
 2065TIP3    H127686   3.689   3.767   1.021 -0.1734 -0.7096 -0.3655
 2065TIP3    H227687   3.755   3.715   1.148 -0.9755  3.1049  1.7783
 2066TIP3   OH227688   2.690   0.323   3.673  0.4407  0.4019 -0.0502
 2066TIP3    H127689   2.661   0.316   3.582 -0.7639  0.2542  0.3295
 2066TIP3    H227690   2.771   0.273   3.676 -0.4574 -1.1658 -0.6380
 2067TIP3   OH227691   5.050   2.656  11.371  0.0478  0.2881  0.7317
 2067TIP3    H127692   5.059   2.746  11.341  0.1021 -0.1445 -0.6130
 2067TIP3    H227693   5.012   2.609  11.297  2.9873 -1.4644  0.1564
 2068TIP3   OH227694   0.721   6.729  15.901  0.1983  0.5792 -0.4770
 2068TIP3    H127695   0.738   6.644  15.860 -0.1455 -0.2040  0.9578
 2068TIP3    H227696   0.807   6.772  15.899  0.1313  0.7325 -2.2994
 2069TIP3   OH227697   1.496   3.127   1.204  0.2243  0.1224 -0.0911
 2069TIP3    H127698   1.578   3.077   1.200  1.0168  1.1497  1.8636
 2069TIP3    H227699   1.429   3.061   1.222  1.1827 -0.3945  1.9494
 2070TIP3   OH227700   5.795   0.648   2.164  0.1489 -0.4727 -0.1181
 2070TIP3    H127701   5.829   0.559   2.162 -1.7943 -1.2402 -1.2288
 2070TIP3    H227702   5.791   0.674   2.071  0.1246  0.5520  0.1587
 2071TIP3   OH227703   5.717   4.940  15.480  0.1341  0.2375 -0.2262
 2071TIP3    H127704   5.651   4.977  15.538 -1.3563 -0.0057 -1.6826
 2071TIP3    H227705   5.716   4.998  15.403 -0.5049 -1.3992 -1.5117
 2072TIP3   OH227706   2.208   3.571  13.044  0.1597  0.4737 -0.4710
 2072TIP3    H127707   2.200   3.666  13.029 -0.3336  0.3877 -0.7477
 2072TIP3    H227708   2.225   3.535  12.957  0.1143  0.2782 -0.3970
 2073TIP3   OH227709   2.941   4.806  11.193  0.6572  0.4053  0.0693
 2073TIP3    H127710   2.969   4.849  11.112 -0.7626 -0.3601 -0.8653
 2073TIP3    H227711   2.944   4.712  11.174 -1.1247  0.2479  0.3688
 2074TIP3   OH227712   4.105   4.205  15.005  0.5133 -0.1072  0.5481
 2074TIP3    H127713   4.118   4.187  15.099  1.7644 -0.0343  0.4019
 2074TIP3    H227714   4.078   4.297  15.002  2.0127  0.3629  0.7436
 2075TIP3   OH227715   6.463   6.688   2.912  0.6061  0.4588  0.4838
 2075TIP3    H127716   6.534   6.746   2.939  0.3997  0.9423  0.0066
 2075TIP3    H227717   6.426   6.655   2.994  0.4000  1.4026  0.7892
 2076TIP3   OH227718   4.531   1.301  16.986 -0.0020 -0.7623 -0.3936
 2076TIP3    H127719   4.609   1.282  16.934  1.5624 -0.5381  1.7465
 2076TIP3    H227720   4.558   1.369  17.047 -2.0547 -0.2808  0.0638
 2077TIP3   OH227721   3.938   3.269   1.402 -0.4479  0.0323  0.3975
 2077TIP3    H127722   3.874   3.335   1.375  0.1772  0.2998 -0.4837
 2077TIP3    H227723   4.014   3.319   1.431  0.0983 -0.2835 -0.4451
 2078TIP3   OH227724   3.596   2.648   3.288 -0.2897  0.0729  0.3305
 2078TIP3    H127725   3.591   2.744   3.288  1.2615  0.1972 -0.7663
 2078TIP3    H227726   3.667   2.629   3.350 -0.8130 -0.4088  0.7981
 2079TIP3   OH227727   0.865   2.130  13.627 -0.3133 -0.2267 -0.1375
 2079TIP3    H127728   0.895   2.126  13.537  0.6277 -0.3909  0.1705
 2079TIP3    H227729   0.871   2.222  13.651 -0.9454 -0.1229 -0.3595
 2080TIP3   OH227730   5.967   1.526   6.404  0.0794 -0.0369 -0.1920
 2080TIP3    H127731   6.056   1.492   6.407 -0.2729 -0.9266  0.5257
 2080TIP3    H227732   5.921   1.468   6.343  0.1057  0.7413 -0.9812
 2081TIP3   OH227733   4.583   5.705   3.523 -0.4836  0.2876  0.3563
 2081TIP3    H127734   4.672   5.688   3.492 -0.3193  2.0139 -0.2339
 2081TIP3    H227735   4.594   5.735   3.613 -0.5671 -0.4275  0.6106
 2082TIP3   OH227736   3.010   6.659   5.069 -0.2969  0.1360  0.0614
 2082TIP3    H127737   3.012   6.754   5.078  1.5588  0.0923  0.5702
 2082TIP3    H227738   2.991   6.627   5.158 -0.4082  0.0204 -0.0029
 2083TIP3   OH227739   1.958   2.065  11.286  0.3136  0.0434 -0.2401
 2083TIP3    H127740   1.964   2.014  11.367  0.8433  0.1603 -0.2002
 2083TIP3    H227741   2.017   2.019  11.225  0.1081  0.0980 -0.4794
 2084TIP3   OH227742   2.252   4.269  16.040  0.1202  0.2360 -0.7182
 2084TIP3    H127743   2.308   4.201  16.079  0.1469  0.2524 -0.7287
 2084TIP3    H227744   2.192   4.293  16.111  0.9817  1.1713 -0.2743
 2085TIP3   OH227745   2.327   4.833  12.429  0.1444  0.0285  0.1392
 2085TIP3    H127746   2.309   4.891  12.355  1.8153  0.7276  0.2454
 2085TIP3    H227747   2.242   4.821  12.471 -0.7420  0.0324 -1.5850
 2086TIP3   OH227748   3.523   5.034  12.678 -0.1644  0.1004  0.3011
 2086TIP3    H127749   3.501   5.126  12.666 -0.0694 -0.1282 -1.9064
 2086TIP3    H227750   3.461   5.003  12.745 -1.0097  1.4618  0.1765
 2087TIP3   OH227751   2.360   3.580  16.550 -0.0514  0.1611  0.1177
 2087TIP3    H127752   2.310   3.499  16.552  0.1582  0.0106 -0.5947
 2087TIP3    H227753   2.340   3.623  16.633  0.5368 -1.0320  0.8965
 2088TIP3   OH227754   6.489   3.093   1.490 -0.1363 -0.1696 -0.5481
 2088TIP3    H127755   6.553   3.024   1.477 -1.3637 -1.8594  1.6458
 2088TIP3    H227756   6.406   3.055   1.461 -0.7701  0.4908  0.3463
 2089TIP3   OH227757   5.298   1.434   3.876  0.2480 -0.3042 -0.0767
 2089TIP3    H127758   5.217   1.424   3.827  0.8245  0.6969 -1.2881
 2089TIP3    H227759   5.278   1.401   3.964 -1.8332  1.0535  0.0123
 2090TIP3   OH227760   5.805   0.649   2.423  0.2734 -0.6742  0.3309
 2090TIP3    H127761   5.806   0.738   2.458 -0.2996 -1.2240  1.8368
 2090TIP3    H227762   5.826   0.660   2.331 -0.8761  1.1413  0.2180
 2091TIP3   OH227763   1.688   0.158  12.274 -0.6005  0.6264  0.2857
 2091TIP3    H127764   1.720   0.246  12.255  1.1080 -0.1456 -0.6002
 2091TIP3    H227765   1.608   0.172  12.326 -0.5365  2.6767 -0.0996
 2092TIP3   OH227766   0.807   0.530   0.737 -0.0579 -0.3116 -0.1390
 2092TIP3    H127767   0.738   0.595   0.754  0.3633  0.5579 -1.6003
 2092TIP3    H227768   0.805   0.517   0.643  0.8019 -1.4128 -0.0210
 2093TIP3   OH227769   5.701   3.734  16.638  0.5251  0.3947 -0.3476
 2093TIP3    H127770   5.789   3.700  16.621  0.8809  1.1662 -0.1154
 2093TIP3    H227771   5.655   3.726  16.554  1.4055  1.6848 -0.9800
 2094TIP3   OH227772   1.179   5.504  16.875  0.7945 -0.2794  0.0248
 2094TIP3    H127773   1.240   5.526  16.944  0.5278 -0.1578  0.2229
 2094TIP3    H227774   1.205   5.558  16.800  0.2456  0.5930  0.4499
 2095TIP3   OH227775   0.688   2.120   5.862 -0.2894 -0.1484  0.8257
 2095TIP3    H127776   0.725   2.155   5.943  1.2957 -3.2212  1.5893
 2095TIP3    H227777   0.597   2.149   5.862  0.4505  2.4540  2.1089
 2096TIP3   OH227778   5.405   2.385  12.482 -0.1960  0.1852 -0.2034
 2096TIP3    H127779   5.482   2.430  12.517  1.6498 -3.7633  1.4350
 2096TIP3    H227780   5.332   2.420  12.533  1.3119  0.4070  1.9336
 2097TIP3   OH227781   6.641   4.244  15.567  0.0284 -0.2557 -0.3988
 2097TIP3    H127782   6.599   4.227  15.483 -1.2654  1.6058 -0.1930
 2097TIP3    H227783   6.734   4.237  15.550 -0.2486 -2.7193 -1.3039
 2098TIP3   OH227784   1.545   4.457  15.487 -0.2448  0.1587  0.0538
 2098TIP3    H127785   1.607   4.530  15.491  0.4122 -0.3297 -0.8189
 2098TIP3    H227786   1.479   4.485  15.424  0.7816 -0.5451 -1.3816
 2099TIP3   OH227787   1.800   2.711   4.780  0.1578  0.2901  0.6165
 2099TIP3    H127788   1.889   2.698   4.812  1.4200 -2.2893 -3.2953
 2099TIP3    H227789   1.784   2.637   4.721 -3.3919  2.3350 -1.3585
 2100TIP3   OH227790   5.329   4.727   1.972 -0.1564 -0.7040 -1.2413
 2100TIP3    H127791   5.243   4.759   1.999  0.7109 -0.8463  2.2709
 2100TIP3    H227792   5.372   4.803   1.933 -0.5518  0.5496  0.6172
 2101TIP3   OH227793   2.044   1.170  13.745 -0.9258 -0.0558  0.9523
 2101TIP3    H127794   1.997   1.167  13.662 -0.2384 -0.4329  0.5646
 2101TIP3    H227795   1.976   1.172  13.811 -1.4851  0.2711  0.3755
 2102TIP3   OH227796   5.909   5.280  16.317 -0.0883  0.0596  0.4023
 2102TIP3    H127797   5.929   5.195  16.278  1.2843  0.4658  0.1472
 2102TIP3    H227798   5.848   5.321  16.255  0.9902  0.1362 -0.6380
 2103TIP3   OH227799   5.167   6.728   3.101 -0.6620  0.1330 -0.1664
 2103TIP3    H127800   5.133   6.815   3.123 -0.5476 -0.5182  3.0244
 2103TIP3    H227801   5.195   6.691   3.185  4.8769 -0.7520 -1.9723
 2104TIP3   OH227802   5.167   4.414   4.863 -0.1759  0.1266 -0.4722
 2104TIP3    H127803   5.180   4.509   4.857  0.6899 -0.0769 -2.6170
 2104TIP3    H227804   5.079   4.400   4.827  0.8143 -0.0950 -2.9705
 2105TIP3   OH227805   1.778   5.728   1.314  0.4457 -1.0400 -0.3621
 2105TIP3    H127806   1.735   5.654   1.355  0.4340 -0.9086 -0.1333
 2105TIP3    H227807   1.861   5.736   1.361  0.2752 -0.6645 -0.1171
 2106TIP3   OH227808   0.215   3.868  15.513  0.4287 -0.0954  0.4852
 2106TIP3    H127809   0.254   3.941  15.465 -0.1555  1.7738  2.6843
 2106TIP3    H227810   0.280   3.798  15.508  1.4077  0.8635 -0.9461
 2107TIP3   OH227811   1.684   0.271   4.355  0.6267  0.8919  0.4249
 2107TIP3    H127812   1.687   0.269   4.451 -0.8083 -0.0606  0.4913
 2107TIP3    H227813   1.597   0.305   4.334  0.5200  0.0953 -0.5168
 2108TIP3   OH227814   1.038   0.223   4.335  0.3885  0.0991  0.2964
 2108TIP3    H127815   1.041   0.317   4.356 -0.6022  0.1552  0.2134
 2108TIP3    H227816   0.958   0.213   4.284  0.8266 -0.6879 -0.2554
 2109TIP3   OH227817   0.739   4.260  15.336  0.1904 -0.1115 -0.3446
 2109TIP3    H127818   0.815   4.308  15.367  1.5580 -0.8939 -2.3198
 2109TIP3    H227819   0.697   4.318  15.272 -0.6380  0.1332  0.4017
 2110TIP3   OH227820   2.048   6.738   1.482  0.3406  0.1514 -0.2502
 2110TIP3    H127821   2.078   6.727   1.392 -0.9777 -0.4105 -0.6345
 2110TIP3    H227822   1.957   6.767   1.475 -0.6772 -2.4310  0.8503
 2111TIP3   OH227823   5.920   4.802  14.362 -0.2232  0.5337  0.4304
 2111TIP3    H127824   5.910   4.893  14.387  2.0741  1.2133 -0.8384
 2111TIP3    H227825   5.890   4.798  14.271  0.0016  0.1102  0.3693
 2112TIP3   OH227826   3.007   0.898   0.599  0.9673  0.1424 -0.4347
 2112TIP3    H127827   2.972   0.890   0.688  1.2615 -0.1180 -0.3392
 2112TIP3    H227828   3.037   0.989   0.593 -0.4586  0.6198 -0.7967
 2113TIP3   OH227829   4.822   1.179  16.279 -0.1530  0.0538  0.4118
 2113TIP3    H127830   4.899   1.200  16.225 -0.0926 -0.0325  0.4641
 2113TIP3    H227831   4.805   1.259  16.328  0.0568 -0.0078  0.5865
 2114TIP3   OH227832   0.577   3.479  13.591 -0.0827  0.1231 -0.9319
 2114TIP3    H127833   0.648   3.533  13.555 -0.0810  1.0329  0.3479
 2114TIP3    H227834   0.620   3.398  13.617  0.3448  0.3402 -0.9356
 2115TIP3   OH227835   5.871   6.529  12.437  0.4406 -0.1631 -0.6102
 2115TIP3    H127836   5.951   6.483  12.463  0.3618 -0.0695 -0.2034
 2115TIP3    H227837   5.868   6.518  12.342  0.9120 -0.2085 -0.6240
 2116TIP3   OH227838   2.070   5.103   3.124  0.6503  0.3236  0.0317
 2116TIP3    H127839   1.982   5.128   3.095  1.5477  1.4667 -1.8597
 2116TIP3    H227840   2.106   5.182   3.163  1.6778  0.5519 -1.3434
 2117TIP3   OH227841   6.292   2.548   4.507  0.4052  0.4457  0.3929
 2117TIP3    H127842   6.387   2.531   4.509  0.0409 -1.8545  0.0931
 2117TIP3    H227843   6.274   2.569   4.415  0.5887  0.7844  0.4296
 2118TIP3   OH227844   1.083   6.357  13.009 -0.6249  0.6268  0.2054
 2118TIP3    H127845   1.136   6.297  13.062 -0.1874  0.8557  0.0303
 2118TIP3    H227846   1.106   6.335  12.919 -0.7885  0.7659  0.1295
 2119TIP3   OH227847   3.686   0.049   5.861  0.2465 -0.2910  0.1861
 2119TIP3    H127848   3.723   0.106   5.929  0.4196 -0.1635 -0.0163
 2119TIP3    H227849   3.602   0.020   5.898  0.7324 -0.9241  0.8262
 2120TIP3   OH227850   1.783   3.851   0.810  0.4071  0.1722  0.1374
 2120TIP3    H127851   1.770   3.784   0.877  0.9574 -0.0252  0.0528
 2120TIP3    H227852   1.870   3.833   0.774 -0.0167  0.0644 -0.8682
 2121TIP3   OH227853   2.572   6.019  16.414  0.1001 -0.4187  0.1578
 2121TIP3    H127854   2.622   6.092  16.451  2.3504 -1.1208 -1.3393
 2121TIP3    H227855   2.615   5.941  16.446 -0.0010 -1.0522 -1.1722
 2122TIP3   OH227856   1.414   0.310  13.015  0.5274 -0.0352  0.1387
 2122TIP3    H127857   1.360   0.274  12.945 -0.6708  1.5647  0.1920
 2122TIP3    H227858   1.391   0.260  13.092 -1.1007  0.7832  0.2121
 2123TIP3   OH227859   2.172   2.758   0.723 -0.3940  0.0035 -1.0174
 2123TIP3    H127860   2.152   2.763   0.817  0.4742  2.0074 -0.8662
 2123TIP3    H227861   2.111   2.820   0.683  1.7744  2.1905 -1.1970
 2124TIP3   OH227862   0.442   5.634   5.816 -0.1634 -0.5290 -0.1388
 2124TIP3    H127863   0.477   5.545   5.813 -0.0494 -0.4667 -0.8394
 2124TIP3    H227864   0.354   5.626   5.779  0.0821 -0.2435 -0.7836
 2125TIP3   OH227865   5.984   5.987  13.930 -0.0847 -0.0504  0.8545
 2125TIP3    H127866   5.980   6.070  13.978  2.3482 -0.2113  1.4955
 2125TIP3    H227867   5.968   5.920  13.997 -1.4910 -0.1552  0.4439
 2126TIP3   OH227868   1.867   4.150  10.567  0.2228  0.2328  0.1114
 2126TIP3    H127869   1.957   4.158  10.537 -0.2374  0.5297 -1.2523
 2126TIP3    H227870   1.825   4.091  10.505 -1.2270  2.2945 -0.9976
 2127TIP3   OH227871   1.112   1.498   0.075  0.3320  0.1597 -0.1035
 2127TIP3    H127872   1.119   1.410   0.037 -0.7935  0.7614 -1.7790
 2127TIP3    H227873   1.181   1.500   0.142  1.4697 -1.4394 -1.1489
 2128TIP3   OH227874   2.222   4.939  15.807  1.0497  0.0978  0.2132
 2128TIP3    H127875   2.180   4.866  15.760  3.0810 -1.5019  0.7334
 2128TIP3    H227876   2.265   4.897  15.882  4.3964  1.3696 -0.8241
 2129TIP3   OH227877   3.612   1.442  15.294 -0.2938 -0.1514 -0.4892
 2129TIP3    H127878   3.601   1.376  15.363  1.1885 -0.5192 -0.5723
 2129TIP3    H227879   3.634   1.391  15.216 -0.2695  0.3707 -0.8262
 2130TIP3   OH227880   4.106   0.324  11.246  0.8624  0.0782  0.0516
 2130TIP3    H127881   4.072   0.381  11.177  0.9972  0.8119  0.5788
 2130TIP3    H227882   4.125   0.241  11.201  1.4465  0.7003 -0.9048
 2131TIP3   OH227883   4.664   1.945  11.549 -0.5194  0.2880  0.4970
 2131TIP3    H127884   4.569   1.941  11.541 -0.5228  0.1427  0.6011
 2131TIP3    H227885   4.688   1.863  11.592 -0.3558  0.3648  0.5555
 2132TIP3   OH227886   4.847   4.494  15.266 -0.4245 -0.1162  0.2945
 2132TIP3    H127887   4.868   4.571  15.213  1.3700  0.7083  2.0875
 2132TIP3    H227888   4.931   4.453  15.284 -0.8011  0.1650  3.1910
 2133TIP3   OH227889   5.322   6.052   6.346 -0.3975  0.0953 -0.4222
 2133TIP3    H127890   5.334   6.147   6.357 -2.4031  0.2314  1.2600
 2133TIP3    H227891   5.335   6.037   6.252  2.3479  1.5879 -0.4076
 2134TIP3   OH227892   5.530   1.528  14.674 -0.1162  0.0390  0.1616
 2134TIP3    H127893   5.624   1.517  14.667 -0.2899 -1.0690 -0.7357
 2134TIP3    H227894   5.496   1.440  14.691 -0.8670  0.6777  2.4120
 2135TIP3   OH227895   5.952   3.761   4.102 -0.3709 -0.4490  0.6602
 2135TIP3    H127896   5.881   3.712   4.144 -0.6434  0.3135  1.1227
 2135TIP3    H227897   6.028   3.704   4.107 -1.1920 -1.7566 -0.8401
 2136TIP3   OH227898   4.738   3.722  15.599  0.5143 -0.3031 -0.1224
 2136TIP3    H127899   4.798   3.732  15.673 -0.6964 -1.6795  1.0963
 2136TIP3    H227900   4.694   3.638  15.614 -2.1541  0.8882 -0.6276
 2137TIP3   OH227901   4.821   5.217  14.369 -0.0749  0.0328  0.2261
 2137TIP3    H127902   4.846   5.150  14.305 -0.3160 -1.5306  1.7029
 2137TIP3    H227903   4.869   5.295  14.341 -2.2324  0.2760 -3.4276
 2138TIP3   OH227904   3.555   5.124   0.592 -0.0963  1.0016  0.1297
 2138TIP3    H127905   3.610   5.078   0.529 -1.2114  0.0880 -0.2133
 2138TIP3    H227906   3.587   5.214   0.591  1.4898  0.4745  0.0795
 2139TIP3   OH227907   4.822   5.626   5.496  0.3159  0.2363 -0.5055
 2139TIP3    H127908   4.873   5.600   5.573 -1.5008 -1.8111  0.1283
 2139TIP3    H227909   4.871   5.593   5.422  0.0523 -1.6422  0.0871
 2140TIP3   OH227910   2.682   5.216   3.994  0.8382 -0.3166  0.5331
 2140TIP3    H127911   2.723   5.160   3.928 -1.5698 -3.9062  1.7296
 2140TIP3    H227912   2.753   5.240   4.053  2.4954  0.5015 -1.6330
 2141TIP3   OH227913   3.768   4.746   2.509 -0.1548  0.3510  0.3934
 2141TIP3    H127914   3.749   4.836   2.537 -1.0398  0.6778 -1.1131
 2141TIP3    H227915   3.683   4.712   2.480  0.3113 -0.7119  0.2468
 2142TIP3   OH227916   4.315   2.904   5.413 -0.6296  0.7224 -0.1618
 2142TIP3    H127917   4.283   2.990   5.385  0.1696  1.4707  1.1068
 2142TIP3    H227918   4.299   2.847   5.339 -3.0919  1.4808 -0.3127
 2143TIP3   OH227919   2.227   5.422  15.787 -0.2515 -0.1184 -0.1873
 2143TIP3    H127920   2.156   5.357  15.788 -1.5589  1.2279 -0.8534
 2143TIP3    H227921   2.306   5.372  15.803 -1.1941 -1.9133 -0.8936
 2144TIP3   OH227922   4.561   3.050   5.509 -0.3942 -0.3631  0.3837
 2144TIP3    H127923   4.503   3.126   5.504 -0.0998 -0.0930  0.9723
 2144TIP3    H227924   4.509   2.978   5.473  0.2046  0.5821 -2.6928
 2145TIP3   OH227925   6.273   1.104  11.918 -0.4048  0.2634 -0.2603
 2145TIP3    H127926   6.185   1.123  11.887 -0.5821 -0.2750 -0.0978
 2145TIP3    H227927   6.290   1.014  11.890  0.3902  0.6124 -0.9495
 2146TIP3   OH227928   1.193   4.747   0.722  1.5151 -0.1143  0.0493
 2146TIP3    H127929   1.265   4.719   0.778  1.6897  0.8200  0.3085
 2146TIP3    H227930   1.213   4.838   0.700 -0.0761  0.4852  0.9304
 2147TIP3   OH227931   4.395   2.302   5.047 -0.5342  0.1835 -0.5995
 2147TIP3    H127932   4.327   2.250   5.089  0.0593  1.3304  1.9838
 2147TIP3    H227933   4.453   2.237   5.007 -1.1176 -1.0017  0.4033
 2148TIP3   OH227934   5.155   0.471  12.464 -0.2369  0.4684 -0.0822
 2148TIP3    H127935   5.197   0.405  12.409  0.0385  0.4645  0.1293
 2148TIP3    H227936   5.143   0.427  12.549 -3.5205 -0.6230 -0.9643
 2149TIP3   OH227937   3.896   2.692   5.563  0.0582  0.6231  0.0955
 2149TIP3    H127938   3.822   2.728   5.612 -1.2285 -1.3013 -0.3440
 2149TIP3    H227939   3.948   2.769   5.540 -2.2699  2.1869 -0.3741
 2150TIP3   OH227940   2.308   6.559  13.469 -0.1521  0.8729 -0.0780
 2150TIP3    H127941   2.262   6.587  13.548  0.0718  3.2910 -0.7138
 2150TIP3    H227942   2.243   6.509  13.420 -0.4899 -0.1008  1.3002
 2151TIP3   OH227943   3.907   2.779   3.985  0.3243 -0.8747  0.0453
 2151TIP3    H127944   3.818   2.808   4.005  0.1661 -0.5548 -1.0683
 2151TIP3    H227945   3.912   2.780   3.890  1.9576  0.4336  0.0958
 2152TIP3   OH227946   4.342   4.685   3.656  0.1518  0.3091  0.1886
 2152TIP3    H127947   4.255   4.723   3.651  0.1024  0.5341  2.0120
 2152TIP3    H227948   4.331   4.595   3.625  0.0852  1.3587 -3.2749
 2153TIP3   OH227949   6.501   4.552   3.498  0.5846  0.3045 -0.0281
 2153TIP3    H127950   6.567   4.567   3.431  1.0601 -1.8478 -0.1201
 2153TIP3    H227951   6.551   4.540   3.579  0.5187 -2.9220 -0.3677
 2154TIP3   OH227952   5.342   1.714  15.131 -0.4968  0.1379 -0.1045
 2154TIP3    H127953   5.264   1.764  15.109 -0.6791 -0.3593 -0.6069
 2154TIP3    H227954   5.393   1.710  15.050  0.1880  0.6883  0.2847
 2155TIP3   OH227955   3.609   5.526  12.124 -0.3544  0.6954 -0.2364
 2155TIP3    H127956   3.669   5.479  12.066  1.4472  0.9741  1.3197
 2155TIP3    H227957   3.606   5.615  12.088  0.7715  0.8741  0.0821
 2156TIP3   OH227958   1.863   0.168  14.215  0.0603  0.2213 -0.0720
 2156TIP3    H127959   1.926   0.109  14.173 -1.0289 -1.0641  0.0134
 2156TIP3    H227960   1.840   0.125  14.297  0.1649  1.3978  0.5952
 2157TIP3   OH227961   0.996   2.229  11.950 -0.0626  0.5039 -0.6651
 2157TIP3    H127962   1.004   2.175  11.872  0.5947 -1.5344  0.7400
 2157TIP3    H227963   1.086   2.245  11.978 -0.2922  1.0963 -0.2349
 2158TIP3   OH227964   1.036   0.344  15.855  0.2673  0.5050  0.0376
 2158TIP3    H127965   1.056   0.416  15.796 -0.3948  0.8539  0.2422
 2158TIP3    H227966   1.118   0.295  15.860 -0.0725 -0.4562 -2.4149
 2159TIP3   OH227967   6.696   0.093  14.646  0.9754  0.0489  0.4022
 2159TIP3    H127968   6.739   0.033  14.586  0.2807  1.1306 -1.2333
 2159TIP3    H227969   6.625   0.131  14.596  1.7444  2.6937  1.1604
 2160TIP3   OH227970   4.621   0.194   1.949  0.0925  0.1373 -0.4847
 2160TIP3    H127971   4.563   0.218   1.877  0.7558  2.0502 -0.4508
 2160TIP3    H227972   4.677   0.271   1.961  1.6404 -1.0808  0.4635
 2161TIP3   OH227973   6.583   2.085  14.696 -0.3803 -0.1742 -0.0899
 2161TIP3    H127974   6.617   2.157  14.643 -2.4713  0.1559 -1.0863
 2161TIP3    H227975   6.630   2.092  14.779 -0.2169  2.0941 -0.3126
 2162TIP3   OH227976   1.633   2.370  13.372  0.2086  0.3838  0.4704
 2162TIP3    H127977   1.648   2.428  13.447 -1.1275 -0.2596  1.2796
 2162TIP3    H227978   1.712   2.378  13.319  1.2037  0.8544  1.9611
 2163TIP3   OH227979   5.381   0.083  13.857  0.1303 -0.0395 -0.0040
 2163TIP3    H127980   5.341   0.070  13.944  1.3600 -1.9965  0.3342
 2163TIP3    H227981   5.380  -0.004  13.817  1.4849  0.4115 -1.1081
 2164TIP3   OH227982   2.297   4.343   5.947  0.0326 -0.0263  0.0482
 2164TIP3    H127983   2.221   4.373   5.997 -0.9841  0.0689 -1.4828
 2164TIP3    H227984   2.268   4.344   5.856  1.3032 -1.6948 -0.4313
 2165TIP3   OH227985   5.600   6.457  13.875 -0.5486  0.7049  0.3810
 2165TIP3    H127986   5.534   6.422  13.935 -1.4149  2.3677  0.4285
 2165TIP3    H227987   5.606   6.550  13.896  2.5076  0.4825  1.0254
 2166TIP3   OH227988   0.335   6.581  10.692  0.4846 -0.2429  0.2141
 2166TIP3    H127989   0.241   6.592  10.700  0.5864  1.5883 -0.7493
 2166TIP3    H227990   0.345   6.509  10.629 -0.2313 -1.0862  1.0302
 2167TIP3   OH227991   4.414   6.749   1.591 -0.0661 -0.0076 -0.1472
 2167TIP3    H127992   4.420   6.823   1.529 -0.6811  0.1872  0.0223
 2167TIP3    H227993   4.385   6.789   1.673  2.5720  0.0372  0.8427
 2168TIP3   OH227994   2.540   4.318   3.195  0.0924  0.3205 -0.0040
 2168TIP3    H127995   2.595   4.279   3.126 -1.5147  0.5312 -1.4811
 2168TIP3    H227996   2.463   4.352   3.148 -0.8256  0.9475  1.8508
 2169TIP3   OH227997   1.042   4.279  16.529 -0.0623  0.2928  0.5177
 2169TIP3    H127998   1.109   4.304  16.465  0.1225 -1.8864 -0.2404
 2169TIP3    H227999   0.962   4.321  16.497 -0.1860 -1.4987 -1.8219
 2170TIP3   OH228000   3.550   5.036   5.334  0.2959  0.2378  0.3653
 2170TIP3    H128001   3.640   5.045   5.366  0.6103  0.5791 -0.5692
 2170TIP3    H228002   3.534   5.117   5.285  0.2710 -0.7603 -1.3574
 2171TIP3   OH228003   3.888   2.044  13.980  0.0565 -0.0017  0.4171
 2171TIP3    H128004   3.868   1.968  13.925  0.6247 -0.4524  0.8210
 2171TIP3    H228005   3.936   2.103  13.922  2.1720 -1.2131  0.8347
 2172TIP3   OH228006   2.161   2.925  11.628  0.0631  0.2886  0.0705
 2172TIP3    H128007   2.213   2.887  11.557 -0.3852 -3.0511  1.3577
 2172TIP3    H228008   2.074   2.889  11.615 -0.3174  0.6065  1.6203
 2173TIP3   OH228009   4.664   4.844  13.827  0.7363  0.5779 -0.5802
 2173TIP3    H128010   4.705   4.759  13.841  1.3027  0.4740 -2.5351
 2173TIP3    H228011   4.571   4.825  13.818  0.9976 -0.0416 -2.2621
 2174TIP3   OH228012   2.395   6.628  14.599 -0.1822  0.6062  0.5694
 2174TIP3    H128013   2.432   6.711  14.628 -0.0814  0.4867  0.7845
 2174TIP3    H228014   2.308   6.625  14.640 -0.7999  1.2919 -0.6431
 2175TIP3   OH228015   3.751   1.830  14.881  0.0268  1.0554 -0.3095
 2175TIP3    H128016   3.802   1.771  14.936  0.8781  1.6323 -0.4418
 2175TIP3    H228017   3.770   1.917  14.916 -0.0757  1.3595 -0.9837
 2176TIP3   OH228018   1.373   3.791  10.313  0.1303 -0.7390 -0.8761
 2176TIP3    H128019   1.332   3.853  10.373  2.4479  0.5719 -0.5483
 2176TIP3    H228020   1.302   3.731  10.289 -1.9640  1.3654 -0.3649
 2177TIP3   OH228021   1.816   3.265  13.711  0.2971  0.1065 -0.1339
 2177TIP3    H128022   1.904   3.253  13.745 -0.6401 -0.2361  2.3939
 2177TIP3    H228023   1.762   3.279  13.789 -2.3674 -2.6383 -1.2972
 2178TIP3   OH228024   6.477   5.330  13.093  0.3522 -0.3126  0.4288
 2178TIP3    H128025   6.441   5.347  13.006  2.9094 -0.0540 -0.6642
 2178TIP3    H228026   6.407   5.356  13.153 -1.8712 -1.4245 -1.5083
 2179TIP3   OH228027   6.237   3.768   3.446  0.1599 -0.1548 -0.2503
 2179TIP3    H128028   6.159   3.717   3.464  0.4010 -0.7984 -0.9959
 2179TIP3    H228029   6.278   3.780   3.531 -0.2893 -0.5661  0.0276
 2180TIP3   OH228030   3.916   4.786  13.523  0.1079 -0.1143 -1.1100
 2180TIP3    H128031   3.992   4.827  13.482  0.5230  0.3499  0.0738
 2180TIP3    H228032   3.850   4.855  13.524  1.3819  1.2875  2.5134
 2181TIP3   OH228033   3.155   1.527   5.429 -0.0489  0.1930  0.7969
 2181TIP3    H128034   3.216   1.503   5.499 -0.3136  0.9919  1.3135
 2181TIP3    H228035   3.206   1.520   5.349  0.4493 -0.0837  1.1372
 2182TIP3   OH228036   0.937   3.664  12.810 -0.6667  0.0294 -0.4051
 2182TIP3    H128037   0.922   3.689  12.719  1.5848  1.0461 -0.5602
 2182TIP3    H228038   0.965   3.744  12.854 -0.1281 -0.7718  0.7889
 2183TIP3   OH228039   3.028   3.311   1.638 -0.6819 -0.2106  0.0882
 2183TIP3    H128040   3.101   3.270   1.684 -0.7726 -0.3961  0.0683
 2183TIP3    H228041   2.995   3.242   1.580  1.0562  0.7448 -2.2158
 2184TIP3   OH228042   1.349   4.370   1.170  0.4838 -0.0504 -0.2391
 2184TIP3    H128043   1.283   4.420   1.121  1.1224  3.1679  1.8947
 2184TIP3    H228044   1.420   4.432   1.185  2.6777 -2.4980  0.2224
 2185TIP3   OH228045   5.041   5.272   4.939  0.5470 -0.1963  0.2886
 2185TIP3    H128046   5.036   5.289   4.845 -0.5284 -0.2837  0.3250
 2185TIP3    H228047   5.048   5.359   4.979  0.7229 -0.1462  0.1510
 2186TIP3   OH228048   2.852   0.759  15.854 -0.1976  0.1547  0.4537
 2186TIP3    H128049   2.874   0.670  15.826  0.9734  0.2670  0.9540
 2186TIP3    H228050   2.918   0.814  15.811  0.6403  0.4932  2.1193
 2187TIP3   OH228051   5.810   1.005  11.171  0.1222  0.0952 -0.0680
 2187TIP3    H128052   5.867   0.962  11.108 -1.9781 -3.1385 -0.0148
 2187TIP3    H228053   5.728   1.020  11.124 -0.2411  1.2136  0.8538
 2188TIP3   OH228054   4.400   4.198  14.546 -0.1967  0.1451  0.2595
 2188TIP3    H128055   4.447   4.246  14.615 -0.0144 -0.0957  0.3060
 2188TIP3    H228056   4.386   4.111  14.583 -2.2492  0.7213  0.9423
 2189TIP3   OH228057   1.113   2.585   0.136  0.0152  0.7354 -0.3253
 2189TIP3    H128058   1.082   2.661   0.086 -0.6980  0.4460 -0.3305
 2189TIP3    H228059   1.198   2.564   0.096  0.0995  1.3619 -0.4988
 2190TIP3   OH228060   1.118   5.638  13.546 -0.3839 -0.3139  0.3184
 2190TIP3    H128061   1.116   5.670  13.456 -1.3114 -0.5870  0.2373
 2190TIP3    H228062   1.203   5.669  13.580  0.7938 -1.7121 -1.1784
 2191TIP3   OH228063   0.626   3.003   4.418 -0.1076  0.0825  0.4706
 2191TIP3    H128064   0.569   3.026   4.344  0.0696 -1.0394 -0.0384
 2191TIP3    H228065   0.632   3.084   4.469 -1.0904  0.5889 -0.1678
 2192TIP3   OH228066   2.410   6.427   6.679 -0.1154  0.0827  0.1684
 2192TIP3    H128067   2.398   6.362   6.609  0.1444  1.1800 -0.9374
 2192TIP3    H228068   2.493   6.404   6.720  0.7686  0.6294 -1.2588
 2193TIP3   OH228069   4.573   6.123   0.940  1.1639 -0.1567 -0.1592
 2193TIP3    H128070   4.508   6.052   0.947  0.5976  0.2783 -0.8848
 2193TIP3    H228071   4.598   6.141   1.031  0.6706 -0.7088  0.0928
 2194TIP3   OH228072   3.143   3.907  13.770 -0.4885  0.4415  0.2403
 2194TIP3    H128073   3.153   3.935  13.679 -0.3016 -1.0106 -0.2044
 2194TIP3    H228074   3.213   3.953  13.817  0.2245  0.2095 -0.5810
 2195TIP3   OH228075   2.283   0.641  15.742 -0.7705 -0.2683  0.2108
 2195TIP3    H128076   2.293   0.628  15.648 -2.3663  0.1766 -0.0581
 2195TIP3    H228077   2.371   0.634  15.777 -0.1922 -0.8096 -1.2701
 2196TIP3   OH228078   5.380   4.059  11.853  0.0823 -0.0257 -0.2075
 2196TIP3    H128079   5.319   4.029  11.920 -1.2513  1.8965 -0.4822
 2196TIP3    H228080   5.328   4.115  11.796  1.8537  0.7549 -1.1448
 2197TIP3   OH228081   0.730   4.814  12.487  0.2431 -0.6042  0.0719
 2197TIP3    H128082   0.738   4.862  12.569  0.4017 -0.8819  0.2200
 2197TIP3    H228083   0.720   4.723  12.513  0.1510 -0.6785 -0.2135
 2198TIP3   OH228084   0.819   1.310  11.922 -0.6928 -0.2312 -0.7055
 2198TIP3    H128085   0.810   1.249  11.848 -3.6285 -0.8236 -0.0050
 2198TIP3    H228086   0.887   1.272  11.977  1.0954 -0.1164 -2.7246
 2199TIP3   OH228087   1.643   0.597   0.708  0.2478  0.5306  0.1009
 2199TIP3    H128088   1.649   0.549   0.626  2.8057  2.2701 -0.8677
 2199TIP3    H228089   1.575   0.663   0.691 -0.6624 -0.3956  0.1183
 2200TIP3   OH228090   1.432   0.001  14.948  0.7657  0.1894 -0.1387
 2200TIP3    H128091   1.392  -0.084  14.927  0.0569  0.2111  1.0344
 2200TIP3    H228092   1.523  -0.021  14.968 -0.2237 -1.0416  4.1026
 2201TIP3   OH228093   3.469   4.953   3.471  0.1904  0.5076 -0.4381
 2201TIP3    H128094   3.412   4.994   3.406  0.3419  1.6959  0.1629
 2201TIP3    H228095   3.549   4.933   3.422  0.8528  2.6791 -0.3477
 2202TIP3   OH228096   3.264   5.288   1.284  0.2165 -0.1631  0.2501
 2202TIP3    H128097   3.217   5.333   1.355  0.3801  1.9292 -0.8753
 2202TIP3    H228098   3.349   5.332   1.281 -0.1942  0.5926 -1.9352
 2203TIP3   OH228099   3.726   5.647   0.769  0.0854 -0.4265  0.3680
 2203TIP3    H128100   3.704   5.696   0.689  1.1405  0.5765  0.6650
 2203TIP3    H228101   3.727   5.713   0.838 -1.3608 -1.3764  1.3485
 2204TIP3   OH228102   1.245   3.210  15.403 -0.1912  0.5575  0.1163
 2204TIP3    H128103   1.178   3.243  15.343  1.3900  1.3289 -1.2974
 2204TIP3    H228104   1.292   3.144  15.352 -1.2749 -1.6956  1.8578
 2205TIP3   OH228105   2.472   5.331  15.796  0.2381 -0.3332  0.2056
 2205TIP3    H128106   2.547   5.367  15.843  1.3972 -1.8883 -0.3593
 2205TIP3    H228107   2.510   5.284  15.722 -1.3657 -0.4404 -0.5908
 2206TIP3   OH228108   5.728   0.464   0.827  0.7695  0.1178 -0.3123
 2206TIP3    H128109   5.654   0.418   0.788 -0.4528  0.1831  1.7464
 2206TIP3    H228110   5.707   0.467   0.921  2.9020  1.0531  0.1966
 2207TIP3   OH228111   3.657   0.622  12.565  0.1962 -0.2460  0.7638
 2207TIP3    H128112   3.651   0.627  12.469  1.6641  0.8193  0.7043
 2207TIP3    H228113   3.694   0.535  12.582 -0.3777 -0.5682  0.3897
 2208TIP3   OH228114   2.007   2.533  16.964  0.0610  0.0498  0.4631
 2208TIP3    H128115   1.961   2.608  16.927  0.8155 -0.6691 -2.1609
 2208TIP3    H228116   2.061   2.570  17.033 -0.1261  1.8324 -0.2746
 2209TIP3   OH228117   5.809   6.327   3.273  0.0202 -0.0033 -0.3466
 2209TIP3    H128118   5.815   6.416   3.307 -1.6599 -0.4974  1.3994
 2209TIP3    H228119   5.888   6.284   3.307  0.3244  0.5309 -0.3600
 2210TIP3   OH228120   4.826   4.370  14.458 -0.0762 -0.5918  0.4214
 2210TIP3    H128121   4.816   4.432  14.530  2.8399  0.8118 -0.2178
 2210TIP3    H228122   4.742   4.371  14.413 -0.5919  1.7558  1.3259
 2211TIP3   OH228123   2.254   0.777  16.604  0.4193 -0.1222 -0.0859
 2211TIP3    H128124   2.263   0.784  16.699  0.2438  0.7458 -0.1182
 2211TIP3    H228125   2.275   0.865  16.572  2.9437 -0.9962 -1.0791
 2212TIP3   OH228126   0.187   2.300   5.434  0.2653 -0.3602 -0.7443
 2212TIP3    H128127   0.240   2.266   5.363 -1.5999 -1.4064 -1.7096
 2212TIP3    H228128   0.207   2.394   5.437  2.2989 -0.7471 -0.8791
 2213TIP3   OH228129   2.697   6.044  15.538 -0.1149 -0.5454  0.2933
 2213TIP3    H128130   2.692   6.120  15.595  0.9457  0.1341 -0.4889
 2213TIP3    H228131   2.766   5.989  15.577  1.2938  0.3742 -0.8180
 2214TIP3   OH228132   1.812   2.649   3.156 -0.1913 -0.2001 -0.4114
 2214TIP3    H128133   1.901   2.614   3.161  0.3168  1.1262  3.2136
 2214TIP3    H228134   1.755   2.573   3.168  0.6306 -0.7036  0.4248
 2215TIP3   OH228135   3.472   1.714  12.867 -0.2800 -0.0550 -0.0895
 2215TIP3    H128136   3.450   1.807  12.868 -1.5025 -0.3210 -0.2990
 2215TIP3    H228137   3.533   1.702  12.940 -0.9382  0.7161  0.5928
 2216TIP3   OH228138   5.559   4.346  11.652  0.4489 -1.0124  0.3406
 2216TIP3    H128139   5.605   4.262  11.660  0.6326 -0.9627 -0.1599
 2216TIP3    H228140   5.626   4.412  11.671  1.0655 -0.8584 -2.0264
 2217TIP3   OH228141   6.453   1.139   4.212 -0.0742 -0.2412  0.3285
 2217TIP3    H128142   6.386   1.147   4.145 -0.8477  1.0866  1.2270
 2217TIP3    H228143   6.493   1.226   4.216  0.9217 -0.7000  0.6151
 2218TIP3   OH228144   0.459   1.109  13.787 -0.0614 -0.4211  0.0331
 2218TIP3    H128145   0.368   1.135  13.803 -0.0205  0.0819 -0.5282
 2218TIP3    H228146   0.491   1.081  13.873 -0.0681  1.4969  0.7023
 2219TIP3   OH228147   6.515   0.128  12.763 -0.7127  0.9188 -0.0722
 2219TIP3    H128148   6.550   0.212  12.734 -1.3470  1.4194  0.5672
 2219TIP3    H228149   6.477   0.090  12.684  1.9955 -0.0741 -1.0174
 2220TIP3   OH228150   2.692   6.785   5.722  0.4995 -0.2516 -0.1692
 2220TIP3    H128151   2.784   6.759   5.719  0.2882 -0.9476 -1.0351
 2220TIP3    H228152   2.671   6.807   5.631  0.7603  3.3728  0.4999
 2221TIP3   OH228153   0.335   2.871  16.467  0.3881 -0.4274  0.0594
 2221TIP3    H128154   0.327   2.962  16.497 -3.3186 -0.7327  0.4564
 2221TIP3    H228155   0.378   2.878  16.382 -1.0854  1.9265 -0.6028
 2222TIP3   OH228156   2.184   5.263   5.807 -0.4797  0.0451 -0.3529
 2222TIP3    H128157   2.110   5.240   5.864 -0.2436  0.5815  0.1743
 2222TIP3    H228158   2.201   5.355   5.825  1.2456 -0.4278  0.6116
 2223TIP3   OH228159   0.659   1.185   0.691  0.1976 -0.4835 -1.0360
 2223TIP3    H128160   0.621   1.229   0.767  0.5566 -1.3307 -0.3381
 2223TIP3    H228161   0.708   1.253   0.645  1.9723 -0.4051  0.8171
 2224TIP3   OH228162   3.630   4.763   0.943 -0.3340 -0.1079  0.1298
 2224TIP3    H128163   3.656   4.784   0.854 -2.6439 -0.5280 -0.7155
 2224TIP3    H228164   3.621   4.667   0.944 -0.7664 -0.0704  0.6731
 2225TIP3   OH228165   1.693   3.161  13.091  0.0106  0.5234 -0.4631
 2225TIP3    H128166   1.786   3.145  13.107  0.0530  0.8233 -0.4065
 2225TIP3    H228167   1.686   3.171  12.996  0.0512  0.5862 -0.4598
 2226TIP3   OH228168   0.843   2.888  14.389 -0.6464  0.3041 -0.2557
 2226TIP3    H128169   0.851   2.805  14.435  1.7233  0.7152  0.2193
 2226TIP3    H228170   0.798   2.946  14.450  0.7117  0.2877  0.7937
 2227TIP3   OH228171   5.631   6.633   3.510 -0.6216  0.0054 -0.0707
 2227TIP3    H128172   5.698   6.624   3.577 -0.1800 -0.0071 -0.5140
 2227TIP3    H228173   5.646   6.719   3.472 -0.4218 -0.2712 -0.6350
 2228TIP3   OH228174   2.172   0.017  11.296  0.2326 -0.1532  0.1440
 2228TIP3    H128175   2.156   0.075  11.370  1.7658  0.6722 -0.1220
 2228TIP3    H228176   2.224   0.069  11.235 -0.0493 -1.1740 -1.0145
 2229TIP3   OH228177   3.548   2.536  13.823 -0.3120  0.2040 -0.2007
 2229TIP3    H128178   3.480   2.598  13.797 -1.0423 -0.4386  0.1503
 2229TIP3    H228179   3.500   2.459  13.854  0.5762 -0.3094 -0.0718
 2230TIP3   OH228180   6.255   4.561  10.801  0.1555 -0.6144  0.3977
 2230TIP3    H128181   6.165   4.532  10.784  0.7868 -1.3696 -2.1196
 2230TIP3    H228182   6.275   4.619  10.728  1.2013  0.8701  1.8040
 2231TIP3   OH228183   3.452   6.765  17.133  0.3138 -0.6004  0.4715
 2231TIP3    H128184   3.495   6.848  17.154  2.2364 -1.0730 -1.2869
 2231TIP3    H228185   3.424   6.731  17.218  1.5268  0.7790  1.4797
 2232TIP3   OH228186   0.096   3.102  17.277 -0.6535  0.1583  0.4912
 2232TIP3    H128187   0.153   3.101  17.354  1.3498  0.1807 -0.9124
 2232TIP3    H228188   0.078   3.195  17.262 -1.3777  0.1272  1.1601
 2233TIP3   OH228189   0.679   3.595   3.230  0.2286  0.6669 -0.1288
 2233TIP3    H128190   0.650   3.512   3.192  0.9272  0.2114  0.3140
 2233TIP3    H228191   0.727   3.638   3.160  1.6013 -0.2154  0.2426
 2234TIP3   OH228192   5.844   0.580   4.279 -0.3086 -0.3010 -0.4284
 2234TIP3    H128193   5.890   0.504   4.242  0.1588 -0.0458 -0.3746
 2234TIP3    H228194   5.910   0.625   4.331 -0.7257 -0.1507 -0.0223
 2235TIP3   OH228195   4.628   2.839   3.552  1.0671 -0.1193 -0.1363
 2235TIP3    H128196   4.586   2.850   3.467  0.7414  2.4838  0.2668
 2235TIP3    H228197   4.585   2.764   3.592 -1.1566  0.6715 -0.9263
 2236TIP3   OH228198   0.386   1.164   0.698  0.0864 -0.2723 -0.4636
 2236TIP3    H128199   0.411   1.072   0.706 -0.3075 -0.1771  2.9269
 2236TIP3    H228200   0.467   1.209   0.676  0.5425 -1.2407 -0.8408
 2237TIP3   OH228201   1.061   1.610   0.372 -0.2370  0.3061  0.1228
 2237TIP3    H128202   1.114   1.651   0.304 -0.4401 -1.0818 -0.9064
 2237TIP3    H228203   0.974   1.648   0.360  0.2412  1.8560  1.1916
 2238TIP3   OH228204   0.944   1.589  11.051 -0.0819 -0.1695  0.3561
 2238TIP3    H128205   0.886   1.652  11.009 -0.7458 -0.2828  1.0773
 2238TIP3    H228206   0.903   1.504  11.035 -0.7077 -0.1579  1.7664
 2239TIP3   OH228207   2.910   5.391   1.874  0.4746 -0.2766 -0.4901
 2239TIP3    H128208   2.825   5.347   1.873  0.4535 -0.2447 -0.1129
 2239TIP3    H228209   2.959   5.348   1.803  0.3977 -0.8037 -0.2335
 2240TIP3   OH228210   6.476   5.394   1.177  0.5568  0.3161  0.3882
 2240TIP3    H128211   6.454   5.380   1.269  2.2336  0.1876  0.8004
 2240TIP3    H228212   6.480   5.306   1.139  2.0712  0.1995  0.7609
 2241TIP3   OH228213   3.351   4.777   5.999  0.3335 -0.5637 -0.5153
 2241TIP3    H128214   3.260   4.745   5.995 -0.0909  0.6174 -0.7603
 2241TIP3    H228215   3.392   4.724   6.067 -1.0336  0.0476  0.8573
 2242TIP3   OH228216   1.089   5.424  13.302  0.1191  0.5531  0.0156
 2242TIP3    H128217   1.050   5.424  13.214 -2.5047  1.0023  1.0805
 2242TIP3    H228218   1.096   5.331  13.325 -0.8599  0.4587 -0.0215
 2243TIP3   OH228219   1.852   6.750  13.486  0.4059 -0.1062 -0.2267
 2243TIP3    H128220   1.832   6.829  13.538 -0.0316  0.2361 -0.9083
 2243TIP3    H228221   1.768   6.722  13.452  0.6482 -0.5154 -0.4929
 2244TIP3   OH228222   3.959   2.240  11.819 -0.8044  0.0894 -0.1736
 2244TIP3    H128223   3.906   2.212  11.894 -0.8905 -2.4364 -1.0914
 2244TIP3    H228224   3.913   2.204  11.743  0.9767 -0.1546 -1.1820
 2245TIP3   OH228225   1.074   3.493  11.801 -0.0530  0.9159  0.2562
 2245TIP3    H128226   0.985   3.474  11.831 -0.2061 -0.1004 -0.7473
 2245TIP3    H228227   1.109   3.407  11.776  1.4097  1.2180  1.1249
 2246TIP3   OH228228   6.122   1.897  15.740  0.0821 -0.5732 -0.5771
 2246TIP3    H128229   6.031   1.926  15.742 -0.1203 -1.2004 -0.4880
 2246TIP3    H228230   6.146   1.900  15.648  1.1861  3.2191 -0.3350
 2247TIP3   OH228231   0.800   2.936   2.582  0.0648 -0.1453 -0.1643
 2247TIP3    H128232   0.719   2.983   2.604  0.7891  1.4915 -0.8560
 2247TIP3    H228233   0.844   2.924   2.666  0.7736  2.2100 -0.1138
 2248TIP3   OH228234   4.017   0.248  12.150 -0.4563 -0.2979  0.1698
 2248TIP3    H128235   4.001   0.174  12.209 -0.6868 -0.3813  0.0019
 2248TIP3    H228236   3.999   0.326  12.203 -1.6394 -0.3874 -0.0758
 2249TIP3   OH228237   2.316   0.031   1.027 -0.0156 -0.0106 -0.5083
 2249TIP3    H128238   2.393   0.048   1.081  0.7021  0.1632 -1.5557
 2249TIP3    H228239   2.286   0.118   1.000 -1.5082  0.0330  1.0958
 2250TIP3   OH228240   1.310   1.375   2.444 -0.0338  0.0682 -0.6395
 2250TIP3    H128241   1.376   1.339   2.503 -0.2509 -0.0955 -0.4973
 2250TIP3    H228242   1.229   1.373   2.494  0.1978  2.0974 -0.0917
 2251TIP3   OH228243   4.468   6.366   3.232  0.2309  0.0609 -0.1393
 2251TIP3    H128244   4.427   6.301   3.289  0.5563  0.3976  0.4888
 2251TIP3    H228245   4.558   6.334   3.222  0.3664  0.3690  0.0999
 2252TIP3   OH228246   2.290   4.716  16.822 -0.1773  0.2612  0.0692
 2252TIP3    H128247   2.354   4.693  16.888 -0.6814  0.0826  0.5060
 2252TIP3    H228248   2.287   4.811  16.823  0.6749  0.3009 -0.5374
 2253TIP3   OH228249   3.284   3.249   6.291 -0.5423 -0.2036 -0.0993
 2253TIP3    H128250   3.329   3.179   6.245 -0.2885 -0.7574  0.9806
 2253TIP3    H228251   3.191   3.229   6.279 -0.4768 -0.4704 -0.1695
 2254TIP3   OH228252   2.573   0.374  12.408  0.0034 -0.3634 -0.1782
 2254TIP3    H128253   2.522   0.318  12.350 -1.9834  1.3227 -0.2083
 2254TIP3    H228254   2.529   0.368  12.493 -0.0211  0.7803 -0.0816
 2255TIP3   OH228255   2.379   6.699   6.719 -0.5534  0.2244  0.1609
 2255TIP3    H128256   2.383   6.604   6.730  0.2510  0.0364 -1.4003
 2255TIP3    H228257   2.467   6.729   6.738 -0.8422  0.6917  0.7952
 2256TIP3   OH228258   3.620   5.613  11.477 -0.5333 -0.1823  0.0177
 2256TIP3    H128259   3.672   5.593  11.399  0.6860 -3.3272  1.4576
 2256TIP3    H228260   3.685   5.634  11.544 -1.4854  1.2442  0.5294
 2257TIP3   OH228261   0.244   1.439  11.792 -0.0919  0.4310 -0.4845
 2257TIP3    H128262   0.241   1.454  11.886 -1.2560 -0.3214 -0.3684
 2257TIP3    H228263   0.308   1.501  11.759 -0.7609  1.7578  0.6157
 2258TIP3   OH228264   1.498   3.035   2.653 -0.2314  0.2899  0.0256
 2258TIP3    H128265   1.593   3.025   2.667 -0.3645 -2.0791 -0.2550
 2258TIP3    H228266   1.487   3.030   2.558 -0.7011 -0.6076  0.1142
 2259TIP3   OH228267   6.450   6.649  14.041 -0.9626 -0.4596  0.4376
 2259TIP3    H128268   6.544   6.667  14.036 -1.3838  1.8746 -0.2462
 2259TIP3    H228269   6.422   6.689  14.123 -1.3926 -0.9567  0.5350
 2260TIP3   OH228270   5.885   1.674  13.577  0.3608 -0.2046  0.2158
 2260TIP3    H128271   5.933   1.682  13.659 -0.7402 -2.7171  1.2139
 2260TIP3    H228272   5.953   1.661  13.510  1.1993  0.1419  0.9788
 2261TIP3   OH228273   2.395   6.795  16.219  0.0749 -0.1770  0.7564
 2261TIP3    H128274   2.363   6.782  16.308 -0.9047 -0.3910  0.3823
 2261TIP3    H228275   2.330   6.853  16.178 -0.3246 -1.2905 -0.2738
 2262TIP3   OH228276   4.545   6.201   1.374  0.1841 -0.1148  0.4116
 2262TIP3    H128277   4.609   6.164   1.312 -1.0310  0.0283 -0.9757
 2262TIP3    H228278   4.583   6.285   1.399  0.7612 -0.2320 -0.0369
 2263TIP3   OH228279   0.892   2.115  15.969  0.2603 -0.0213 -0.1015
 2263TIP3    H128280   0.807   2.157  15.966  1.5627  2.7421 -1.7996
 2263TIP3    H228281   0.898   2.067  15.886  0.1076 -0.7809  0.3211
 2264TIP3   OH228282   4.803   2.979  13.295 -0.3583 -0.0164  0.0156
 2264TIP3    H128283   4.891   3.016  13.296 -0.5476  0.4655  1.6888
 2264TIP3    H228284   4.761   3.019  13.218  0.1457  1.5860  0.5389
 2265TIP3   OH228285   1.187   5.932  16.852  0.4513 -0.3832 -0.2203
 2265TIP3    H128286   1.120   5.997  16.830 -1.1415 -1.8474  0.0847
 2265TIP3    H228287   1.137   5.854  16.876  2.2916 -1.5007  0.1354
 2266TIP3   OH228288   6.136   4.324   2.491  0.5035  0.6894 -0.6244
 2266TIP3    H128289   6.067   4.348   2.552  0.4239 -1.0571  0.0273
 2266TIP3    H228290   6.106   4.357   2.406 -1.5496 -0.7228 -0.5072
 2267TIP3   OH228291   2.652   0.006   3.834 -0.1501 -0.2979  0.5350
 2267TIP3    H128292   2.670   0.031   3.743 -0.0380 -1.9182  0.0796
 2267TIP3    H228293   2.713  -0.066   3.851 -2.1299 -1.9624  0.9251
 2268TIP3   OH228294   4.908   0.395   1.024  0.0883  0.2919 -0.1731
 2268TIP3    H128295   4.903   0.308   1.064  0.9796  0.1840 -0.2815
 2268TIP3    H228296   4.971   0.442   1.078  0.5212  0.4819 -0.8428
 2269TIP3   OH228297   1.361   3.656   0.142  1.0006  0.2329 -0.2727
 2269TIP3    H128298   1.387   3.723   0.078 -0.8453  1.1244 -0.1587
 2269TIP3    H228299   1.421   3.583   0.126  2.8087  1.7267 -0.6909
 2270TIP3   OH228300   0.120   4.666  15.927  0.0059  0.3349  0.3519
 2270TIP3    H128301   0.211   4.653  15.952  0.1529  1.4974  0.4612
 2270TIP3    H228302   0.073   4.597  15.973  0.7899 -0.0791  0.5507
 2271TIP3   OH228303   3.398   0.256  14.123  0.1817  0.5403  0.5213
 2271TIP3    H128304   3.309   0.221  14.133  1.2554 -1.8834  2.9845
 2271TIP3    H228305   3.418   0.295  14.209  2.4800 -1.6928  1.1092
 2272TIP3   OH228306   3.026   1.366   3.650 -0.1271  0.8638  0.6981
 2272TIP3    H128307   3.071   1.282   3.664  0.7882  0.8678 -1.5990
 2272TIP3    H228308   2.934   1.347   3.666 -0.1063 -0.9663 -0.9065
 2273TIP3   OH228309   3.468   3.005  14.102 -0.0679  0.0963  0.3165
 2273TIP3    H128310   3.513   3.009  14.186  0.2798 -0.1751  0.1469
 2273TIP3    H228311   3.479   2.914  14.074  0.1110  0.2692 -0.1788
 2274TIP3   OH228312   0.751   5.845  12.476 -0.0185  0.1237 -0.4203
 2274TIP3    H128313   0.818   5.776  12.474  0.9538  1.0620 -1.5706
 2274TIP3    H228314   0.771   5.895  12.555 -0.0168 -0.2191 -0.1995
 2275TIP3   OH228315   3.570   6.089  15.252 -0.4928 -0.5118 -0.0037
 2275TIP3    H128316   3.653   6.059  15.214  0.4775  0.8057  0.9989
 2275TIP3    H228317   3.564   6.042  15.335  0.0023  0.4903  0.6095
 2276TIP3   OH228318   2.731   2.703   1.813 -0.7378 -0.0702 -0.5076
 2276TIP3    H128319   2.803   2.694   1.875 -0.3401  0.3182 -0.9105
 2276TIP3    H228320   2.661   2.647   1.849 -0.8954  0.9459  0.8291
 2277TIP3   OH228321   4.644   5.959   2.416 -0.0058  0.0657 -0.3018
 2277TIP3    H128322   4.632   5.932   2.325 -0.9878 -1.6275  0.2863
 2277TIP3    H228323   4.565   5.928   2.460  1.1333 -0.5066  1.4217
 2278TIP3   OH228324   5.037   4.248   6.462 -0.1078 -0.8589 -0.1844
 2278TIP3    H128325   4.943   4.254   6.478 -0.0910  0.7708 -0.4901
 2278TIP3    H228326   5.065   4.169   6.508 -1.7209 -1.7067 -0.5996
 2279TIP3   OH228327   5.495   4.882  15.162 -0.1139  0.3407  0.1207
 2279TIP3    H128328   5.544   4.844  15.235  1.4800  0.2034 -0.9600
 2279TIP3    H228329   5.471   4.969  15.193  1.3637  0.6528  0.5105
 2280TIP3   OH228330   3.432   4.345   3.907 -0.6175  0.1036 -0.8295
 2280TIP3    H128331   3.340   4.370   3.921 -0.6781  0.6670 -2.0735
 2280TIP3    H228332   3.478   4.429   3.899  1.0978  0.2026  5.2260
 2281TIP3   OH228333   6.526   2.573   1.021  0.7076 -0.5432 -0.0885
 2281TIP3    H128334   6.537   2.552   1.114  0.0396  0.1219  0.1506
 2281TIP3    H228335   6.491   2.493   0.982  0.3774 -0.6212  0.3616
 2282TIP3   OH228336   1.222   2.939   1.972  0.7542  0.7782 -0.2313
 2282TIP3    H128337   1.199   3.031   1.986  1.1317  1.1911 -2.0228
 2282TIP3    H228338   1.197   2.922   1.881  0.9295 -0.8213 -0.0010
 2283TIP3   OH228339   4.355   2.655  14.479  0.8313 -0.0755  0.2624
 2283TIP3    H128340   4.342   2.659  14.574  0.4401 -0.6906  0.2419
 2283TIP3    H228341   4.332   2.743  14.448  2.4862  0.6103  0.8980
 2284TIP3   OH228342   4.372   5.233  16.149  0.6286 -0.3568 -0.5162
 2284TIP3    H128343   4.406   5.194  16.230 -1.2699  1.1406  1.1017
 2284TIP3    H228344   4.395   5.326  16.155  0.3116 -0.1883 -1.6270
 2285TIP3   OH228345   0.050   5.750   3.985 -0.5573  0.0541 -0.6791
 2285TIP3    H128346   0.075   5.663   4.016 -1.1499  0.1188  0.0327
 2285TIP3    H228347   0.111   5.770   3.914 -0.0635 -0.7073 -0.4761
 2286TIP3   OH228348   0.062   0.248  16.702 -0.0842 -0.0884 -0.1968
 2286TIP3    H128349   0.022   0.270  16.786 -2.2787 -3.7076 -0.1003
 2286TIP3    H228350   0.016   0.303  16.638  0.3993  1.4351  0.6997
 2287TIP3   OH228351   5.617   3.923   0.556  0.5426  0.6434 -0.2387
 2287TIP3    H128352   5.536   3.934   0.506  0.9522 -0.0251 -1.0754
 2287TIP3    H228353   5.682   3.896   0.491  1.6642  1.9908  0.2510
 2288TIP3   OH228354   3.593   1.541   0.445 -0.4678  0.3061 -0.1800
 2288TIP3    H128355   3.622   1.529   0.354 -2.3309 -0.0908 -0.7642
 2288TIP3    H228356   3.584   1.452   0.478  0.8113  0.4498  0.6463
 2289TIP3   OH228357   2.503   2.584   3.192 -0.4048  0.2808  0.0180
 2289TIP3    H128358   2.592   2.550   3.186  0.0894  1.5989 -0.6286
 2289TIP3    H228359   2.514   2.678   3.201 -1.7192  0.3009  1.8773
 2290TIP3   OH228360   5.902   5.604   4.892 -0.0537  0.0425  0.1597
 2290TIP3    H128361   5.900   5.700   4.895 -1.5091  0.0300  0.4053
 2290TIP3    H228362   5.985   5.581   4.933 -0.0237  1.1891  0.7936
 2291TIP3   OH228363   6.731   0.584  16.938  0.3286 -0.4969 -0.5915
 2291TIP3    H128364   6.794   0.634  16.887 -0.8273  1.7533  0.0771
 2291TIP3    H228365   6.647   0.599  16.894 -0.1101 -1.5635 -0.1531
 2292TIP3   OH228366   5.462   4.411  14.650  0.0046 -0.3113 -0.4688
 2292TIP3    H128367   5.519   4.355  14.703  0.2042 -0.0124 -0.3596
 2292TIP3    H228368   5.413   4.351  14.594  1.8810 -0.5050 -2.0321
 2293TIP3   OH228369   0.008   5.561  15.495 -0.2584  0.0940 -1.0946
 2293TIP3    H128370  -0.070   5.519  15.530 -0.6396  0.0127 -2.0019
 2293TIP3    H228371   0.017   5.525  15.407  0.9587 -0.0903 -0.9095
 2294TIP3   OH228372   1.163   3.366  16.029  0.8281  0.0620 -0.2356
 2294TIP3    H128373   1.235   3.417  15.993  1.1417 -1.2438 -1.5190
 2294TIP3    H228374   1.160   3.287  15.976 -0.9891 -0.3209  0.3674
 2295TIP3   OH228375   1.613   5.146   2.071  0.2024  0.6347 -0.7029
 2295TIP3    H128376   1.633   5.066   2.120  0.4442 -0.1891 -2.0983
 2295TIP3    H228377   1.651   5.131   1.984 -1.1197  1.6183 -1.4840
 2296TIP3   OH228378   5.629   3.474  17.112 -0.2221 -0.0800  0.0492
 2296TIP3    H128379   5.678   3.392  17.122 -0.2782  0.0222  1.2792
 2296TIP3    H228380   5.553   3.451  17.059  1.4419 -0.1170 -2.4622
 2297TIP3   OH228381   1.115   4.730   2.422 -0.2650 -0.3331 -0.1493
 2297TIP3    H128382   1.079   4.746   2.335  0.9432 -1.1540 -0.8267
 2297TIP3    H228383   1.054   4.666   2.461 -0.0560 -1.0411 -0.9415
 2298TIP3   OH228384   1.450   1.525  15.458 -0.0877  0.5078  0.2830
 2298TIP3    H128385   1.355   1.537  15.456 -0.1549 -0.0422  0.1811
 2298TIP3    H228386   1.467   1.483  15.542  0.2429  2.0195  1.0191
 2299TIP3   OH228387   5.758   4.676  15.732 -0.3188  0.5611 -0.5122
 2299TIP3    H128388   5.834   4.646  15.682 -2.3769 -0.6185 -3.1502
 2299TIP3    H228389   5.762   4.771  15.726  0.5886  0.4989 -1.1280
 2300TIP3   OH228390   0.456   2.854  12.081 -0.2760 -0.6984 -0.2932
 2300TIP3    H128391   0.493   2.837  11.995  2.0720 -0.7124  0.6442
 2300TIP3    H228392   0.496   2.788  12.138 -0.5933  0.2563  1.0906
 2301TIP3   OH228393   5.918   0.069  16.767 -0.1433  0.1341 -0.3661
 2301TIP3    H128394   5.852   0.136  16.748 -1.5779 -0.8751  0.8407
 2301TIP3    H228395   5.963   0.101  16.845 -0.5318 -0.0748 -0.0501
 2302TIP3   OH228396   1.150   4.177  15.821  0.4405  0.0918 -0.4225
 2302TIP3    H128397   1.075   4.145  15.772 -0.4616  1.4638 -0.0036
 2302TIP3    H228398   1.123   4.176  15.912  0.5174  1.5551 -0.3522
 2303TIP3   OH228399   1.386   4.628   5.095 -0.1458  0.2716  0.0672
 2303TIP3    H128400   1.445   4.566   5.053  1.5328  0.7697  1.5540
 2303TIP3    H228401   1.393   4.607   5.189 -2.0486  0.6183  0.3306
 2304TIP3   OH228402   0.608   6.721   1.454 -0.0783 -0.2649 -0.4820
 2304TIP3    H128403   0.606   6.804   1.406  0.9655 -0.1362 -0.3236
 2304TIP3    H228404   0.528   6.676   1.426 -0.1578  0.3643 -1.3352
 2305TIP3   OH228405   3.599   2.547  12.669 -0.1873  0.1991 -0.7011
 2305TIP3    H128406   3.630   2.616  12.728  0.2307  0.4065 -1.1635
 2305TIP3    H228407   3.651   2.557  12.590 -0.9515  0.1066 -1.2247
 2306TIP3   OH228408   2.015   0.013  15.802  0.3272  0.0120 -0.0566
 2306TIP3    H128409   1.956  -0.017  15.734 -0.7762 -0.7179  1.1691
 2306TIP3    H228410   1.983   0.100  15.826 -0.0195 -0.2159  0.3246
 2307TIP3   OH228411   4.048   6.072   4.587 -0.3425  0.9222 -0.2093
 2307TIP3    H128412   4.030   6.164   4.608 -1.3579  0.3545  1.6955
 2307TIP3    H228413   3.961   6.035   4.571  0.0563  0.2523 -0.8485
 2308TIP3   OH228414   5.124   4.531   2.104  0.4853  0.0211 -0.0272
 2308TIP3    H128415   5.057   4.579   2.055 -1.1483 -1.0716  1.0149
 2308TIP3    H228416   5.075   4.486   2.173  2.6186  1.1521  2.3837
 2309TIP3   OH228417   0.394   4.996  11.476  0.1448  0.3721  0.1114
 2309TIP3    H128418   0.423   5.060  11.542  0.7433  0.2986 -0.0741
 2309TIP3    H228419   0.432   5.028  11.394  0.0599  0.0349 -0.0607
 2310TIP3   OH228420   2.168   3.537  14.769  0.1407  0.1129 -0.5061
 2310TIP3    H128421   2.197   3.457  14.725 -0.5807  0.5692 -1.8334
 2310TIP3    H228422   2.099   3.508  14.829 -1.3274 -0.0606 -2.2146
 2311TIP3   OH228423   0.406   4.464   3.510 -0.6154 -0.4003 -0.2329
 2311TIP3    H128424   0.358   4.465   3.593 -2.7882 -0.3930 -1.3974
 2311TIP3    H228425   0.376   4.384   3.467  1.2810 -0.9499 -0.6164
 2312TIP3   OH228426   6.250   2.894  15.296 -0.3526 -0.1563  0.1192
 2312TIP3    H128427   6.213   2.810  15.322 -0.2876 -0.0841  0.4514
 2312TIP3    H228428   6.282   2.880  15.207  1.1983 -0.9731  0.7638
 2313TIP3   OH228429   5.278   2.948   4.182 -0.3271  0.0390  0.3507
 2313TIP3    H128430   5.286   3.012   4.253  0.0479  0.3553  0.0344
 2313TIP3    H228431   5.184   2.939   4.169 -0.4312 -0.8494  1.6084
 2314TIP3   OH228432   1.955   1.100   5.266  0.6002  0.3760  0.0066
 2314TIP3    H128433   1.882   1.038   5.274  0.4385  0.6010  0.2659
 2314TIP3    H228434   1.937   1.167   5.331  0.3016  1.1886 -0.8851
 2315TIP3   OH228435   2.787   5.804   1.022  0.4187 -0.2856 -0.0387
 2315TIP3    H128436   2.796   5.883   1.076  1.8142 -0.5717  0.1813
 2315TIP3    H228437   2.746   5.740   1.079  0.1108  0.0087  0.0712
 2316TIP3   OH228438   6.749   0.841  15.261  0.6075 -0.5271 -0.2901
 2316TIP3    H128439   6.802   0.779  15.312  0.9147 -0.0827 -0.0521
 2316TIP3    H228440   6.811   0.879  15.199  0.0858 -1.5618 -1.4835
 2317TIP3   OH228441   2.527   6.712  13.176 -0.0210 -0.0758 -0.1302
 2317TIP3    H128442   2.515   6.618  13.179  0.0700 -0.0747  0.5020
 2317TIP3    H228443   2.445   6.748  13.208  0.4058  0.0162  0.9125
 2318TIP3   OH228444   2.739   1.796   5.810 -0.4689  0.8194  0.4865
 2318TIP3    H128445   2.670   1.784   5.875 -0.2098  0.5331  0.7128
 2318TIP3    H228446   2.723   1.728   5.745 -0.9825  1.3753  0.0210
 2319TIP3   OH228447   1.805   2.008  16.932  0.2098 -0.5063 -0.5142
 2319TIP3    H128448   1.847   1.983  17.015 -1.0132 -0.5625  0.1211
 2319TIP3    H228449   1.864   2.071  16.893  0.8675 -0.5576  0.3669
 2320TIP3   OH228450   4.294   1.214   0.710  0.3839 -0.0531 -0.6366
 2320TIP3    H128451   4.255   1.133   0.741 -0.6284 -0.0984 -1.9419
 2320TIP3    H228452   4.383   1.214   0.746 -0.1036 -0.9778  0.6402
 2321TIP3   OH228453   5.749   6.327  11.762  0.3108 -0.4660  0.7160
 2321TIP3    H128454   5.755   6.359  11.672 -1.9519  0.3742  0.8090
 2321TIP3    H228455   5.840   6.321  11.792  1.0056  3.1536 -0.2689
 2322TIP3   OH228456   5.972   4.947  12.522  0.1422 -0.0369 -0.1426
 2322TIP3    H128457   6.030   4.900  12.462 -0.1557 -1.8379  0.9071
 2322TIP3    H228458   6.022   5.025  12.547  0.6877  0.2235 -1.8863
 2323TIP3   OH228459   6.192   4.662   2.478  0.5521  0.3354 -0.2597
 2323TIP3    H128460   6.154   4.749   2.474  2.0544  1.0856  0.5528
 2323TIP3    H228461   6.119   4.604   2.500 -0.6404  1.2282 -1.6757
 2324TIP3   OH228462   6.162   4.006   2.435  0.3652 -0.6433  0.2507
 2324TIP3    H128463   6.184   4.097   2.418  2.0582 -0.6024  2.1997
 2324TIP3    H228464   6.090   4.010   2.499 -1.4039 -0.7667 -1.6074
 2325TIP3   OH228465   0.222   0.270  13.015  0.3729 -0.1579  0.2608
 2325TIP3    H128466   0.259   0.243  12.930 -0.3362 -1.5898  0.3770
 2325TIP3    H228467   0.296   0.266  13.076  1.0192  1.4124 -0.3585
 2326TIP3   OH228468   1.241   5.445  15.307 -0.1866 -0.5880  0.8606
 2326TIP3    H128469   1.147   5.442  15.294 -0.3134  0.1882  1.4720
 2326TIP3    H228470   1.277   5.380  15.247 -1.1947 -1.7723  1.5036
 2327TIP3   OH228471   3.568   6.079   3.563 -0.0318  0.0153 -0.0919
 2327TIP3    H128472   3.566   6.091   3.658  2.7135 -0.5599  0.1132
 2327TIP3    H228473   3.507   6.007   3.547  0.3871 -0.7088  1.4113
 2328TIP3   OH228474   4.990   5.822   0.352  0.0011 -0.1409  0.3089
 2328TIP3    H128475   4.964   5.908   0.384 -1.7303 -0.9718  1.3209
 2328TIP3    H228476   5.047   5.786   0.420 -1.0493 -0.6160  0.9752
 2329TIP3   OH228477   1.159   3.675   1.755  0.0190 -0.6739 -0.5868
 2329TIP3    H128478   1.106   3.596   1.742  1.5795 -1.6779 -1.1993
 2329TIP3    H228479   1.240   3.643   1.795 -0.4525  1.0323  1.9093
 2330TIP3   OH228480   2.936   4.306   4.083  0.6806  0.0365 -0.4336
 2330TIP3    H128481   2.949   4.397   4.110 -1.6107 -0.0873  1.3702
 2330TIP3    H228482   2.921   4.259   4.165  0.7250 -1.7732 -1.4276
 2331TIP3   OH228483   1.238   4.614  16.265 -0.2984  0.6253 -0.0319
 2331TIP3    H128484   1.246   4.570  16.181  0.5658  0.9197 -0.1085
 2331TIP3    H228485   1.327   4.638  16.289 -0.6976  1.9593  0.2092
 2332TIP3   OH228486   4.965   3.332   6.366  0.0295 -0.0849 -0.0672
 2332TIP3    H128487   5.013   3.290   6.295  0.1319 -0.5861  0.2994
 2332TIP3    H228488   5.018   3.408   6.390  0.2627 -0.2178 -0.1649
 2333TIP3   OH228489   3.400   0.855  16.073  0.4485  0.1517 -0.4043
 2333TIP3    H128490   3.396   0.831  16.166  0.2631  0.4234 -0.3419
 2333TIP3    H228491   3.318   0.902  16.057  0.3391 -0.1665 -0.7836
 2334TIP3   OH228492   1.334   1.277  11.879  0.3010  0.3046  0.1025
 2334TIP3    H128493   1.338   1.312  11.790  1.4314  0.4791  0.2145
 2334TIP3    H228494   1.422   1.244  11.896  0.6886  2.0656  1.8660
 2335TIP3   OH228495   6.276   4.674  11.206  0.4303 -0.4626 -0.3516
 2335TIP3    H128496   6.279   4.688  11.301  0.2215  1.2812 -0.5590
 2335TIP3    H228497   6.184   4.689  11.183  0.5727 -0.3766 -0.8812
 2336TIP3   OH228498   4.854   4.817  17.059 -0.2930 -0.5581 -0.2950
 2336TIP3    H128499   4.915   4.779  16.995  0.2045 -0.5822  0.1817
 2336TIP3    H228500   4.818   4.742  17.105  0.3453 -0.4867  0.3379
 2337TIP3   OH228501   3.198   5.736   2.489 -0.5268 -0.1483  0.2761
 2337TIP3    H128502   3.232   5.725   2.578 -1.8551 -0.7703  0.7426
 2337TIP3    H228503   3.241   5.668   2.438 -1.1934 -1.0597  0.8980
 2338TIP3   OH228504   0.028   4.310  12.582  0.0670  0.0284 -0.2380
 2338TIP3    H128505   0.073   4.269  12.508  2.4687  0.0200  1.1259
 2338TIP3    H228506   0.083   4.385  12.604 -0.5643 -0.0027  1.5713
 2339TIP3   OH228507   4.190   2.985  12.278 -0.0844  0.0456 -0.1707
 2339TIP3    H128508   4.098   3.005  12.297  0.2269  1.2046  0.1670
 2339TIP3    H228509   4.203   3.015  12.188 -0.4305 -1.5589 -0.7889
 2340TIP3   OH228510   5.814   5.412  12.387 -0.2953 -0.0533 -0.0522
 2340TIP3    H128511   5.879   5.445  12.326  0.9938 -1.4663  0.5009
 2340TIP3    H228512   5.750   5.483  12.395  1.6272  1.7593  0.0571
 2341TIP3   OH228513   5.367   3.992  15.684 -0.0795 -0.3581 -0.9989
 2341TIP3    H128514   5.433   3.945  15.735 -0.3000 -0.5360 -0.8735
 2341TIP3    H228515   5.296   4.010  15.746 -0.5524 -0.9850 -1.3414
 2342TIP3   OH228516   3.887   4.117  14.605 -0.3979 -0.1184 -0.5836
 2342TIP3    H128517   3.793   4.113  14.583 -0.5810 -1.8526  0.3507
 2342TIP3    H228518   3.924   4.177  14.540 -1.8757 -0.7279 -2.0671
 2343TIP3   OH228519   6.640   5.301  13.956 -0.2901  0.6077  0.4014
 2343TIP3    H128520   6.588   5.220  13.961  1.7793 -0.7433  1.3855
 2343TIP3    H228521   6.595   5.361  14.016 -0.5326 -0.6426  1.5186
 2344TIP3   OH228522   1.854   4.719  14.252 -0.5110  0.2881 -0.5156
 2344TIP3    H128523   1.860   4.627  14.280  0.5309  0.6679  0.6380
 2344TIP3    H228524   1.846   4.715  14.157 -1.0867 -1.0129 -0.4328
 2345TIP3   OH228525   2.178   3.508   6.753 -0.5007  0.5692  0.5153
 2345TIP3    H128526   2.199   3.415   6.752 -2.0422  0.1921 -0.8743
 2345TIP3    H228527   2.236   3.547   6.688  1.5444  0.9757  2.4799
 2346TIP3   OH228528   5.925   5.379  14.612  0.7441  0.4152 -0.4359
 2346TIP3    H128529   5.840   5.362  14.571  0.3556 -0.1159  0.5448
 2346TIP3    H228530   5.913   5.354  14.704  1.8922  0.5602 -0.2238
 2347TIP3   OH228531   0.016   5.286   0.435  0.8935 -0.6271 -0.5093
 2347TIP3    H128532   0.065   5.309   0.356  2.5813 -0.4455  0.5468
 2347TIP3    H228533   0.020   5.365   0.490 -1.0607 -0.4222 -0.5922
 2348TIP3   OH228534   2.473   6.592   1.422  0.1537 -0.7708  0.7695
 2348TIP3    H128535   2.540   6.607   1.488 -1.5645  0.3047  2.3552
 2348TIP3    H228536   2.407   6.660   1.438 -0.4404 -0.5978 -1.9321
 2349TIP3   OH228537   4.908   3.796   0.771  0.7687  0.0282  0.5045
 2349TIP3    H128538   4.937   3.811   0.681 -1.2283  2.0568  0.0915
 2349TIP3    H228539   4.823   3.754   0.762  0.4027  0.5414  1.3971
 2350TIP3   OH228540   6.266   4.480  11.913 -0.4971  0.1205 -0.1819
 2350TIP3    H128541   6.283   4.551  11.851 -2.2725 -0.8246 -1.8387
 2350TIP3    H228542   6.323   4.500  11.988 -0.8648  3.2228 -0.5945
 2351TIP3   OH228543   0.749   4.726   3.673  0.1616 -0.4508 -0.4223
 2351TIP3    H128544   0.796   4.778   3.738 -2.1970  2.9073 -1.1051
 2351TIP3    H228545   0.703   4.660   3.723  1.2288 -0.2807  0.8377
 2352TIP3   OH228546   2.897   1.922   0.025 -0.0859  0.7328  0.3752
 2352TIP3    H128547   2.844   1.960  -0.045 -0.6344  3.0383  1.9093
 2352TIP3    H228548   2.847   1.847   0.055 -0.4835  0.5024 -0.8261
 2353TIP3   OH228549   3.490   6.286  14.978  0.0881 -0.4668 -0.0777
 2353TIP3    H128550   3.574   6.280  15.024  1.1510  1.0566 -1.6935
 2353TIP3    H228551   3.476   6.380  14.966 -1.4877 -0.7276 -0.5276
 2354TIP3   OH228552   6.779   2.589  11.408 -0.3527  0.3615  0.1447
 2354TIP3    H128553   6.812   2.526  11.344 -1.6811 -2.8814  2.3826
 2354TIP3    H228554   6.688   2.604  11.382 -0.3003  0.6676  0.1344
 2355TIP3   OH228555   3.783   4.699  12.566  0.6151 -0.2243 -0.8803
 2355TIP3    H128556   3.703   4.653  12.591 -0.0619 -1.0082 -4.0459
 2355TIP3    H228557   3.845   4.629  12.546  1.4877  0.3611 -0.3054
 2356TIP3   OH228558   3.294   0.345  11.780 -0.1401  0.2807 -0.3607
 2356TIP3    H128559   3.234   0.343  11.705 -0.2005 -0.8699 -0.2859
 2356TIP3    H228560   3.243   0.386  11.850 -1.0973 -1.3121 -0.0927
 2357TIP3   OH228561   4.146   3.436   1.930  0.2061  0.0554 -0.4609
 2357TIP3    H128562   4.117   3.356   1.887 -1.6714  0.3892  0.1311
 2357TIP3    H228563   4.223   3.463   1.880  0.5952 -1.8415 -0.9607
 2358TIP3   OH228564   1.201   0.650  15.213 -0.2774  0.1548 -0.2146
 2358TIP3    H128565   1.215   0.708  15.138 -2.8513 -0.6167 -1.4115
 2358TIP3    H228566   1.284   0.603  15.223  1.0672  2.2584 -0.7287
 2359TIP3   OH228567   0.270   4.455  14.949 -0.0427  0.4195 -0.5841
 2359TIP3    H128568   0.308   4.375  14.985 -1.6980  0.2916  1.0383
 2359TIP3    H228569   0.314   4.526  14.997  0.1450  0.4055 -0.7341
 2360TIP3   OH228570   6.698   5.233  16.914  0.5526 -0.3220 -0.2139
 2360TIP3    H128571   6.762   5.267  16.977  0.7278  0.2847 -0.7113
 2360TIP3    H228572   6.747   5.169  16.862 -0.0127 -2.1506  1.3517
 2361TIP3   OH228573   2.592   6.484   1.144 -0.6836  0.5733 -0.1888
 2361TIP3    H128574   2.683   6.484   1.173 -0.3934 -0.8724 -0.9959
 2361TIP3    H228575   2.542   6.463   1.223 -0.4509  2.3977  0.4968
 2362TIP3   OH228576   4.699   2.125   3.934  0.6399  0.1054 -0.2221
 2362TIP3    H128577   4.646   2.133   4.014  0.4134 -0.7799 -0.2704
 2362TIP3    H228578   4.772   2.068   3.959 -0.3046 -1.5480 -1.0410
 2363TIP3   OH228579   6.163   2.883   3.807 -0.2925  0.0921  0.1596
 2363TIP3    H128580   6.157   2.975   3.833 -1.0338  0.2021 -0.3766
 2363TIP3    H228581   6.074   2.850   3.815 -0.6770  0.2504 -2.6482
 2364TIP3   OH228582   1.959   2.765   5.980  0.3283  0.1582 -0.5277
 2364TIP3    H128583   2.033   2.716   6.016 -1.0648 -1.4678  0.2249
 2364TIP3    H228584   1.885   2.741   6.034 -1.5244 -1.0829 -3.3886
 2365TIP3   OH228585   3.137   4.178   1.495 -0.1222  0.2407 -0.1307
 2365TIP3    H128586   3.079   4.155   1.567 -0.5969 -0.1108 -0.6138
 2365TIP3    H228587   3.171   4.094   1.464 -1.0118  0.2491 -1.2020
 2366TIP3   OH228588   0.569   4.315   5.200 -0.2200 -0.5290  0.2012
 2366TIP3    H128589   0.641   4.261   5.233  1.9988  1.5965 -0.7948
 2366TIP3    H228590   0.594   4.336   5.109 -2.4131 -0.1665 -0.3903
 2367TIP3   OH228591   6.319   6.061   1.289  0.6651 -0.0181 -0.7294
 2367TIP3    H128592   6.231   6.073   1.326  1.3467  2.4560  0.2765
 2367TIP3    H228593   6.306   6.069   1.194  0.0960  3.3254 -0.4760
 2368TIP3   OH228594   5.837   2.741   4.490 -0.0744  0.4940 -0.2122
 2368TIP3    H128595   5.912   2.800   4.478  0.2041 -0.2343 -2.4222
 2368TIP3    H228596   5.811   2.717   4.401  0.2259 -3.2011  0.5754
 2369TIP3   OH228597   1.487   6.193   5.140 -0.1338  0.0649 -0.0675
 2369TIP3    H128598   1.404   6.146   5.143 -0.2722  0.2577 -0.7138
 2369TIP3    H228599   1.515   6.198   5.232 -1.3428  0.8842  0.2838
 2370TIP3   OH228600   6.571   5.843  13.561  0.4272  0.3988 -0.7537
 2370TIP3    H128601   6.619   5.926  13.557  1.3473 -0.0752  0.1537
 2370TIP3    H228602   6.636   5.778  13.585 -0.4603 -0.4417 -0.5571
 2371TIP3   OH228603   0.908   6.302  13.292  0.2179  0.4637 -0.2752
 2371TIP3    H128604   0.977   6.237  13.302 -1.1772 -0.7963  2.2663
 2371TIP3    H228605   0.857   6.273  13.216  0.4346 -0.6438 -0.0153
 2372TIP3   OH228606   6.185   0.603   2.856 -0.7173  0.3096  0.3076
 2372TIP3    H128607   6.134   0.679   2.830 -2.5909 -0.3611  1.7326
 2372TIP3    H228608   6.257   0.639   2.909 -0.7989  1.1671 -0.1550
 2373TIP3   OH228609   6.004   0.619   0.493  0.1545  0.0188 -0.0559
 2373TIP3    H128610   5.927   0.580   0.452  0.5087 -0.5076 -0.2257
 2373TIP3    H228611   5.979   0.631   0.585 -2.0999  4.7661 -0.9640
 2374TIP3   OH228612   5.104   3.210  12.856  0.1929 -0.2864 -0.0017
 2374TIP3    H128613   5.175   3.246  12.803 -0.0331 -0.5353 -0.4817
 2374TIP3    H228614   5.147   3.157  12.923  0.4316 -2.5811 -1.8321
 2375TIP3   OH228615   5.206   1.586   6.297 -0.4100  0.4573  0.4353
 2375TIP3    H128616   5.237   1.542   6.377  1.1464  1.8171  0.6455
 2375TIP3    H228617   5.214   1.679   6.317 -1.4012  0.8428 -0.8200
 2376TIP3   OH228618   4.198   2.285  15.909  0.0864  0.2358 -0.0430
 2376TIP3    H128619   4.283   2.254  15.880  0.6220  0.6819  0.9873
 2376TIP3    H228620   4.148   2.299  15.829  0.2287 -2.0949 -0.5837
 2377TIP3   OH228621   0.056   3.167  14.639  0.1598  0.0946  0.4170
 2377TIP3    H128622   0.090   3.084  14.673 -1.4435 -0.5746  0.4802
 2377TIP3    H228623  -0.024   3.183  14.690 -1.0826  0.2275 -1.4612
 2378TIP3   OH228624   0.516   0.792  14.290 -0.2603  0.1464 -0.1009
 2378TIP3    H128625   0.453   0.728  14.257 -0.0061  0.1883 -0.6906
 2378TIP3    H228626   0.571   0.813  14.214 -0.4730  1.2180  0.0239
 2379TIP3   OH228627   0.856   4.170  12.842  0.3502 -0.4110  0.0355
 2379TIP3    H128628   0.899   4.224  12.908  0.6483  0.2571 -0.6796
 2379TIP3    H228629   0.766   4.202  12.838 -0.2524 -1.8133  1.5373
 2380TIP3   OH228630   4.088   3.242   1.695  0.1203 -0.6950  0.0928
 2380TIP3    H128631   3.999   3.277   1.688 -0.1448 -1.4738 -0.5834
 2380TIP3    H228632   4.128   3.262   1.610 -1.1648 -4.9832 -1.7940
 2381TIP3   OH228633   1.854   2.273   1.150 -0.0243  0.5633  0.3312
 2381TIP3    H128634   1.856   2.331   1.073  0.3601  0.7424  0.4766
 2381TIP3    H228635   1.831   2.187   1.114  0.2229  0.6309  0.0053
 2382TIP3   OH228636   0.515   3.175  12.094 -0.1701  0.2237 -0.0321
 2382TIP3    H128637   0.597   3.128  12.079 -0.7643 -0.4817 -1.2332
 2382TIP3    H228638   0.474   3.129  12.168 -0.2809 -0.5320 -0.5537
 2383TIP3   OH228639   6.101   0.745  14.459 -0.0066  0.9130 -0.2681
 2383TIP3    H128640   6.126   0.830  14.496  0.4773  0.7634 -0.2421
 2383TIP3    H228641   6.070   0.694  14.534 -2.2822  1.7436 -0.5654
 2384TIP3   OH228642   1.818   2.336   0.381 -0.4027 -0.2530 -0.5258
 2384TIP3    H128643   1.840   2.363   0.292 -0.6363  0.4608 -0.3728
 2384TIP3    H228644   1.722   2.336   0.383 -0.4294  1.4809  0.2195
 2385TIP3   OH228645   1.395   0.433   6.510  0.3271  0.3148 -0.3592
 2385TIP3    H128646   1.437   0.410   6.593 -0.4108  1.8387  0.4931
 2385TIP3    H228647   1.361   0.521   6.525 -0.0920  0.4988 -2.1999
 2386TIP3   OH228648   4.472   0.355   5.427  0.3108 -0.0726 -0.0422
 2386TIP3    H128649   4.478   0.282   5.488 -0.4027 -1.1630 -1.2320
 2386TIP3    H228650   4.435   0.317   5.347  2.5785  0.9824 -1.7134
 2387TIP3   OH228651   4.059   6.365  17.046  0.1013  0.2646  0.1383
 2387TIP3    H128652   4.002   6.408  17.109  0.0992 -0.1036  0.3915
 2387TIP3    H228653   4.028   6.395  16.961 -2.2696 -2.0045  0.0858
 2388TIP3   OH228654   6.737   6.038   1.865  0.5202  0.5121  0.1203
 2388TIP3    H128655   6.695   6.111   1.820 -2.2103 -0.2240  1.2664
 2388TIP3    H228656   6.743   5.969   1.800 -0.6479  0.4415  0.0704
 2389TIP3   OH228657   2.012   5.673  11.820  0.0780  0.6629 -0.2319
 2389TIP3    H128658   2.072   5.607  11.786  0.1221  0.6852 -0.1972
 2389TIP3    H228659   2.063   5.720  11.887 -0.3433 -0.0785  0.6378
 2390TIP3   OH228660   4.346   2.619  14.774 -0.0759  0.2444  0.6823
 2390TIP3    H128661   4.350   2.693  14.834  0.6647  0.2341  0.6617
 2390TIP3    H228662   4.258   2.583  14.785 -1.0503  2.0783 -0.4750
 2391TIP3   OH228663   1.581   1.059   1.138  0.2875  0.5093 -0.1365
 2391TIP3    H128664   1.559   1.035   1.228  1.5895  0.0736  0.0769
 2391TIP3    H228665   1.511   1.119   1.113 -0.3576  0.2768  0.9980
 2392TIP3   OH228666   4.937   1.094  17.262 -0.1392  0.5466 -0.2535
 2392TIP3    H128667   4.979   1.159  17.206  1.7596 -2.0797 -2.1566
 2392TIP3    H228668   4.845   1.094  17.235  0.2087  1.2151 -1.4860
 2393TIP3   OH228669   1.430   3.232  16.029  0.3789 -0.8227 -0.3321
 2393TIP3    H128670   1.466   3.222  16.117 -0.5744 -0.5352  0.1029
 2393TIP3    H228671   1.444   3.148  15.987 -0.0833 -1.2983  0.4498
 2394TIP3   OH228672   0.815   2.768   4.301 -0.6808  0.6706  0.0914
 2394TIP3    H128673   0.780   2.857   4.302 -0.8689  0.6506 -1.5734
 2394TIP3    H228674   0.907   2.778   4.324 -0.6873  1.3062 -0.1351
 2395TIP3   OH228675   1.492   2.483   5.912 -0.3057 -0.1531 -0.1393
 2395TIP3    H128676   1.495   2.486   6.008  0.9325  0.0003 -0.1665
 2395TIP3    H228677   1.534   2.400   5.890  0.2464  0.2347 -0.5708
 2396TIP3   OH228678   0.660   0.851   5.642  0.3800  0.0021  0.4524
 2396TIP3    H128679   0.613   0.931   5.667  0.2222 -0.0095  0.2001
 2396TIP3    H228680   0.752   0.877   5.640  0.1592  0.9348 -2.2799
 2397TIP3   OH228681   0.435   1.740   5.861  0.0722  0.4872 -0.7163
 2397TIP3    H128682   0.366   1.759   5.797 -0.3848  2.1102  0.1748
 2397TIP3    H228683   0.416   1.800   5.934  1.7962  0.1940  0.0196
 2398TIP3   OH228684   3.483   5.233   2.393 -0.2865 -0.0836 -0.2070
 2398TIP3    H128685   3.570   5.261   2.363 -1.3020  1.6843 -1.6663
 2398TIP3    H228686   3.493   5.221   2.487  1.3632  0.7541 -0.2420
 2399TIP3   OH228687   6.405   4.937  15.051 -0.1944 -0.0959 -0.0559
 2399TIP3    H128688   6.382   4.982  15.132 -0.7610 -0.4915  0.0023
 2399TIP3    H228689   6.500   4.949  15.044 -0.2031  0.3129  0.4362
 2400TIP3   OH228690   3.828   2.515  12.899 -0.2552 -0.0120  0.0704
 2400TIP3    H128691   3.813   2.569  12.822 -2.7762 -0.3541  0.2379
 2400TIP3    H228692   3.759   2.448  12.896  1.2319 -1.7127  1.1986
 2401TIP3   OH228693   2.942   3.303  13.414 -0.1938 -0.0713  0.6283
 2401TIP3    H128694   3.022   3.274  13.369 -0.8300 -0.8168 -0.0487
 2401TIP3    H228695   2.915   3.382  13.367  0.5279  0.6043  1.3160
 2402TIP3   OH228696   2.395   2.648  16.517  0.6693 -0.1450 -0.1699
 2402TIP3    H128697   2.311   2.691  16.501  0.9313  0.4835  0.0811
 2402TIP3    H228698   2.405   2.650  16.613  0.4452 -1.2536 -0.1083
 2403TIP3   OH228699   4.753   6.078  13.798 -0.2944  0.2257  0.4790
 2403TIP3    H128700   4.741   6.047  13.708  2.2358 -0.6663  0.3730
 2403TIP3    H228701   4.682   6.036  13.847 -0.5356 -0.8967 -0.7584
 2404TIP3   OH228702   2.158   2.985   3.110  0.2723  0.2559 -0.6249
 2404TIP3    H128703   2.205   3.053   3.062 -1.3217  1.0296 -1.1603
 2404TIP3    H228704   2.066   3.000   3.088 -0.3227 -0.6221  1.0991
 2405TIP3   OH228705   6.754   0.444  12.718 -0.0353  0.2405  0.0158
 2405TIP3    H128706   6.820   0.410  12.658 -0.5396 -0.4739 -0.1483
 2405TIP3    H228707   6.763   0.390  12.797 -1.2538 -0.7314 -0.4742
 2406TIP3   OH228708   5.001   6.042  11.420  0.4920  0.3036  0.4079
 2406TIP3    H128709   4.921   6.042  11.472  0.3520  0.7539  0.1991
 2406TIP3    H228710   5.065   6.089  11.473  0.3965  0.6156  0.2530
 2407TIP3   OH228711   6.478   5.034  12.055 -0.5267 -0.4533  0.4689
 2407TIP3    H128712   6.414   5.100  12.029  0.3082 -0.2508 -1.2268
 2407TIP3    H228713   6.519   5.071  12.134 -0.3986  0.8433 -0.1759
 2408TIP3   OH228714   2.124   5.211  12.897 -0.4609 -0.5270 -0.4954
 2408TIP3    H128715   2.106   5.298  12.933 -0.8921  0.7237 -3.4548
 2408TIP3    H228716   2.097   5.150  12.966  2.0246  1.6167  2.6334
 2409TIP3   OH228717   2.791   1.156   5.522 -0.3925  0.3980  0.3468
 2409TIP3    H128718   2.842   1.230   5.489  1.3290 -0.6889  0.4375
 2409TIP3    H228719   2.758   1.185   5.607 -0.0256  1.1901  0.2265
 2410TIP3   OH228720   4.025   3.595  13.221  0.0798  0.0183  0.1798
 2410TIP3    H128721   4.107   3.583  13.269  0.5560  2.0701 -0.0084
 2410TIP3    H228722   3.997   3.507  13.199  1.8821 -0.7787  0.8482
 2411TIP3   OH228723   6.106   3.333  15.441 -0.0745 -0.2786  0.3341
 2411TIP3    H128724   6.161   3.368  15.510 -0.7258 -0.3292  0.8882
 2411TIP3    H228725   6.123   3.239  15.442  0.5433 -0.1769 -0.1435
 2412TIP3   OH228726   1.852   6.519   3.999 -0.0203 -0.1835 -0.7614
 2412TIP3    H128727   1.763   6.508   3.967 -0.4377 -0.4662  0.4240
 2412TIP3    H228728   1.841   6.547   4.090  1.0991  1.2195 -1.0289
 2413TIP3   OH228729   0.114   2.482   5.117  0.5970  0.0034 -1.1276
 2413TIP3    H128730   0.111   2.400   5.069  2.0972 -0.3244 -0.7232
 2413TIP3    H228731   0.207   2.497   5.133  0.2696  1.1418 -0.1176
 2414TIP3   OH228732   2.479   3.122  16.562  0.1063  0.5120  0.4330
 2414TIP3    H128733   2.558   3.070  16.578 -1.0300 -1.5353 -0.1587
 2414TIP3    H228734   2.508   3.192  16.504  1.4440 -0.3278  0.0248
 2415TIP3   OH228735   6.410   2.163  16.940  0.5338 -0.7512  0.0589
 2415TIP3    H128736   6.485   2.202  16.984  1.0935 -0.3105 -1.2557
 2415TIP3    H228737   6.407   2.205  16.854 -0.3105 -1.8448 -0.4764
 2416TIP3   OH228738   0.752   6.370   0.562 -0.4538  0.4011 -0.2130
 2416TIP3    H128739   0.814   6.337   0.497 -0.3729  1.2930 -0.6003
 2416TIP3    H228740   0.696   6.294   0.582 -1.8226  0.5722 -2.8597
 2417TIP3   OH228741   4.329   2.453   5.714  0.4656  0.6832  0.3312
 2417TIP3    H128742   4.335   2.501   5.797 -0.1032  1.5150 -0.0882
 2417TIP3    H228743   4.296   2.366   5.739  2.2865  0.1929  1.1937
 2418TIP3   OH228744   1.827   0.698  11.886 -0.1539  0.3711  0.0432
 2418TIP3    H128745   1.759   0.676  11.823 -0.4133  1.7099 -0.1843
 2418TIP3    H228746   1.903   0.721  11.833  0.7397 -1.7262  0.3005
 2419TIP3   OH228747   1.648   3.040   3.293 -0.6104  0.1552 -0.1520
 2419TIP3    H128748   1.651   3.059   3.387 -1.7258  0.1900 -0.1102
 2419TIP3    H228749   1.621   3.122   3.252 -0.3698  0.0740 -0.4761
 2420TIP3   OH228750   4.668   3.347  11.286  0.2595 -0.3121  0.1165
 2420TIP3    H128751   4.715   3.265  11.301 -1.7866 -1.7095 -0.5335
 2420TIP3    H228752   4.656   3.350  11.191  0.9083  1.1298  0.0609
 2421TIP3   OH228753   5.285   2.347   6.013  0.1663 -0.0297 -0.2253
 2421TIP3    H128754   5.214   2.386   6.065  1.3683 -0.1322  1.5790
 2421TIP3    H228755   5.240   2.291   5.950 -1.4558  1.8359 -0.8352
 2422TIP3   OH228756   0.242   6.288   2.249 -0.9384  0.0288  0.0398
 2422TIP3    H128757   0.270   6.204   2.284 -1.5484 -0.5803 -0.9045
 2422TIP3    H228758   0.150   6.276   2.226 -1.4885  1.4532  1.3793
 2423TIP3   OH228759   2.458   5.519   3.160 -0.3360  0.9053 -0.9133
 2423TIP3    H128760   2.421   5.554   3.241  0.6275 -0.7213  0.3084
 2423TIP3    H228761   2.462   5.594   3.101  0.0347  2.4454  0.9445
 2424TIP3   OH228762   6.254   3.270   5.646  0.4147  0.2465  0.1986
 2424TIP3    H128763   6.214   3.196   5.692 -0.0436 -1.6662 -2.9753
 2424TIP3    H228764   6.192   3.342   5.658  0.0792 -0.2935  2.0466
 2425TIP3   OH228765   0.117   0.152   3.889 -0.1140 -0.4058 -0.3503
 2425TIP3    H128766   0.207   0.122   3.901 -0.2771 -2.0137 -2.5621
 2425TIP3    H228767   0.065   0.096   3.948  0.3041  0.9220  1.3828
 2426TIP3   OH228768   4.726   4.873  13.365 -0.2160 -0.0641 -0.4430
 2426TIP3    H128769   4.672   4.848  13.290 -0.7496  0.5638 -0.2795
 2426TIP3    H228770   4.804   4.913  13.327  0.0185 -0.7362 -0.6768
 2427TIP3   OH228771   1.480   6.057  15.851  0.0556  0.1661  0.5281
 2427TIP3    H128772   1.564   6.011  15.857  0.1882  0.4012  0.5160
 2427TIP3    H228773   1.500   6.137  15.802 -0.6743 -0.9284 -1.6910
 2428TIP3   OH228774   6.648   3.121   1.931 -0.2032  0.7493 -0.2503
 2428TIP3    H128775   6.553   3.131   1.937 -0.4330  0.1966 -2.2566
 2428TIP3    H228776   6.683   3.207   1.956 -1.1455  0.7098  1.3736
 2429TIP3   OH228777   4.688   0.465  17.087  0.0779  0.3429  0.2243
 2429TIP3    H128778   4.704   0.373  17.111 -0.0214  0.2889  0.0834
 2429TIP3    H228779   4.716   0.471  16.996  0.0202  0.4377  0.2130
 2430TIP3   OH228780   3.279   1.613  16.709 -0.1588  0.3204  0.2399
 2430TIP3    H128781   3.211   1.657  16.658  0.3309  1.4713  0.5401
 2430TIP3    H228782   3.236   1.592  16.792 -0.8080 -1.0932 -0.4292
 2431TIP3   OH228783   1.144   0.830  15.463 -0.5785  0.4458  0.1026
 2431TIP3    H128784   1.163   0.745  15.423 -0.1893  0.5661  0.0277
 2431TIP3    H228785   1.104   0.881  15.393 -0.5944  0.4011  0.0795
 2432TIP3   OH228786   5.258   3.678   3.644  0.1484 -0.5858  0.2143
 2432TIP3    H128787   5.264   3.680   3.739  0.1914  0.3008  0.2088
 2432TIP3    H228788   5.220   3.764   3.621  0.0818 -0.8130 -0.5584
 2433TIP3   OH228789   4.664   3.562  10.359 -0.7628  0.0187 -0.1607
 2433TIP3    H128790   4.597   3.615  10.314  0.6760  2.1218  0.0194
 2433TIP3    H228791   4.745   3.612  10.348  0.3596 -1.3042  1.5655
 2434TIP3   OH228792   1.143   5.972   4.857 -0.2406 -0.3136 -0.1794
 2434TIP3    H128793   1.151   5.996   4.765  0.5637 -1.1253 -0.3320
 2434TIP3    H228794   1.049   5.979   4.876 -0.4351 -0.3291 -1.1060
 2435TIP3   OH228795   6.223   1.675   1.351 -0.2222  0.2773 -0.0252
 2435TIP3    H128796   6.247   1.585   1.372  2.3904  0.6401 -1.0924
 2435TIP3    H228797   6.142   1.667   1.300 -0.8399 -1.3028  1.1014
 2436TIP3   OH228798   1.120   5.310  14.564 -0.1243 -0.2525 -0.6787
 2436TIP3    H128799   1.137   5.314  14.470 -0.5469 -0.6678 -0.7743
 2436TIP3    H228800   1.150   5.223  14.591  1.9031  0.5686 -0.0285
 2437TIP3   OH228801   2.082   4.892   1.745  0.1787  0.5105  0.2584
 2437TIP3    H128802   2.058   4.972   1.793  1.8553  0.3963  1.3656
 2437TIP3    H228803   2.098   4.827   1.814 -1.3225 -0.8826 -0.6221
 2438TIP3   OH228804   6.202   0.668   4.596 -0.6183 -0.5767 -0.2057
 2438TIP3    H128805   6.275   0.730   4.596 -1.4540  0.4232  0.0806
 2438TIP3    H228806   6.244   0.583   4.584  0.9637 -0.4765  3.3701
 2439TIP3   OH228807   6.244   1.544  16.886  0.3118  0.3847  0.2975
 2439TIP3    H128808   6.303   1.517  16.956  0.9795 -1.3952 -0.8572
 2439TIP3    H228809   6.163   1.497  16.904  1.0397 -1.4899 -0.9815
 2440TIP3   OH228810   6.624   4.791   6.218 -0.1138 -0.0048  0.4385
 2440TIP3    H128811   6.583   4.877   6.232  0.5725  0.1184  1.9026
 2440TIP3    H228812   6.714   4.803   6.247  0.5711 -0.6879 -1.2784
 2441TIP3   OH228813   3.591   3.257  13.975  0.2728  0.4584 -0.1408
 2441TIP3    H128814   3.534   3.193  14.017  0.6282  0.7990  0.8854
 2441TIP3    H228815   3.594   3.330  14.036  0.8189  0.9596 -0.7547
 2442TIP3   OH228816   0.684   6.541  10.708  0.4986 -0.0024  0.5367
 2442TIP3    H128817   0.749   6.502  10.766  1.2623  1.7128  0.8880
 2442TIP3    H228818   0.630   6.596  10.765 -0.1344  0.0080 -0.0521
 2443TIP3   OH228819   1.411   2.464   5.540  0.1818  0.5488 -0.7013
 2443TIP3    H128820   1.344   2.425   5.485  0.0184  1.4251 -1.1437
 2443TIP3    H228821   1.362   2.512   5.607  0.2996 -2.4584  1.8047
 2444TIP3   OH228822   6.377   6.689  14.313 -0.0288 -0.2328  0.7801
 2444TIP3    H128823   6.316   6.734  14.371  0.3298 -0.2553  1.1802
 2444TIP3    H228824   6.450   6.750  14.303  0.3926 -0.6622  1.2059
 2445TIP3   OH228825   4.823   6.272  12.424  0.1047  0.4519 -0.3269
 2445TIP3    H128826   4.809   6.262  12.330  0.6477  0.2807 -0.3958
 2445TIP3    H228827   4.819   6.366  12.439 -2.2903  0.3738 -0.1307
 2446TIP3   OH228828   6.507   1.983  13.022 -0.4283 -0.3406 -0.3055
 2446TIP3    H128829   6.494   2.000  12.929 -1.8227  1.1360  0.1118
 2446TIP3    H228830   6.484   1.891  13.033 -2.9061  0.1033 -1.0276
 2447TIP3   OH228831   4.272   3.410  17.187  0.2450 -0.0629  0.0636
 2447TIP3    H128832   4.182   3.436  17.205  0.6627 -0.0023  2.4902
 2447TIP3    H228833   4.292   3.346  17.256  1.5966 -1.2060 -1.3275
 2448TIP3   OH228834   6.187   3.978  14.742 -0.0957  0.1481  0.1017
 2448TIP3    H128835   6.208   3.959  14.834 -0.5048  1.2786  0.4423
 2448TIP3    H228836   6.225   3.905  14.693  0.0343 -0.5288  1.1804
 2449TIP3   OH228837   1.674   6.752  17.151  0.4326 -0.3392  0.1215
 2449TIP3    H128838   1.678   6.847  17.157  0.3328 -0.3975  1.4466
 2449TIP3    H228839   1.613   6.735  17.080  0.2160  0.5896  0.0715
 2450TIP3   OH228840   4.888   0.741   2.766  0.1470 -0.1752  0.2505
 2450TIP3    H128841   4.859   0.826   2.800 -1.0651 -0.9239  1.1804
 2450TIP3    H228842   4.981   0.753   2.747  0.4843  0.8045  2.2627
 2451TIP3   OH228843   5.683   2.143  17.293 -0.2615  0.2090 -0.1758
 2451TIP3    H128844   5.631   2.196  17.233 -0.7233 -1.3378 -1.2036
 2451TIP3    H228845   5.669   2.184  17.379 -0.4252  1.8427 -0.9320
 2452TIP3   OH228846   5.565   6.137  16.357  0.1688  0.2763 -0.1828
 2452TIP3    H128847   5.528   6.165  16.273 -1.2410  0.4835  0.4786
 2452TIP3    H228848   5.504   6.170  16.423  1.1093 -0.1001  0.9241
 2453TIP3   OH228849   3.680   6.601   5.744  0.3162 -0.1873  0.2638
 2453TIP3    H128850   3.669   6.695   5.749  0.0623 -0.1723 -0.4144
 2453TIP3    H228851   3.695   6.583   5.651  1.9237 -0.6561  0.5805
 2454TIP3   OH228852   0.343   4.721   1.673  0.8165 -0.2106 -0.3648
 2454TIP3    H128853   0.323   4.790   1.610  1.3913 -0.6289 -1.0127
 2454TIP3    H228854   0.413   4.756   1.728 -0.4022  0.5658  0.7528
 2455TIP3   OH228855   2.165   5.744   5.013  0.0283  0.5863  0.0974
 2455TIP3    H128856   2.154   5.653   5.042  1.0450  0.6498  0.7459
 2455TIP3    H228857   2.126   5.796   5.084 -1.3761  0.6572 -0.6925
 2456TIP3   OH228858   0.111   2.436  14.669  0.5097 -0.0886 -0.2564
 2456TIP3    H128859   0.161   2.478  14.738  2.8161  0.7733 -2.3225
 2456TIP3    H228860   0.110   2.499  14.598  0.4124 -1.8885 -1.9397
 2457TIP3   OH228861   5.960   5.663  12.886  0.5280 -0.7891  0.8240
 2457TIP3    H128862   6.012   5.737  12.856 -1.9939  0.8787  0.2745
 2457TIP3    H228863   5.978   5.657  12.979  1.3047  0.0546  0.7438
 2458TIP3   OH228864   2.498   6.079  15.342 -0.0401  0.0941  0.4231
 2458TIP3    H128865   2.445   6.159  15.347  0.8942  0.6836  1.7892
 2458TIP3    H228866   2.543   6.076  15.427  0.8446 -1.2582 -0.0696
 2459TIP3   OH228867   6.082   2.586  12.183  0.1774  0.0757  0.7471
 2459TIP3    H128868   6.116   2.522  12.246 -0.6043 -0.1222  0.9713
 2459TIP3    H228869   5.988   2.571  12.181  0.0742  0.7396  0.2601
 2460TIP3   OH228870   2.571   4.041   0.547  0.1325  0.3247  0.1044
 2460TIP3    H128871   2.607   4.095   0.477 -0.5933 -2.4737 -2.6158
 2460TIP3    H228872   2.643   3.984   0.573 -0.1445  0.0201  0.2179
 2461TIP3   OH228873   5.707   1.896  11.464 -0.6748  0.2189 -0.2237
 2461TIP3    H128874   5.639   1.963  11.466 -1.0284 -0.1237  1.8720
 2461TIP3    H228875   5.745   1.898  11.552 -0.3230 -1.9290 -0.2636
 2462TIP3   OH228876   2.030   4.724  11.807 -0.0638  0.0146  0.0626
 2462TIP3    H128877   2.013   4.776  11.886 -0.9140 -0.2260  0.0525
 2462TIP3    H228878   2.118   4.749  11.780 -0.3335  1.2130  0.2456
 2463TIP3   OH228879   5.668   0.142  16.656  0.2949 -0.5626 -0.5133
 2463TIP3    H128880   5.665   0.160  16.562  1.4085 -1.1667 -0.6855
 2463TIP3    H228881   5.589   0.091  16.673 -0.9080  1.1444 -0.7378
 2464TIP3   OH228882   2.758   3.189   4.704  0.5158  0.6615 -0.9198
 2464TIP3    H128883   2.805   3.223   4.628  2.2424 -0.8849 -0.6288
 2464TIP3    H228884   2.735   3.099   4.680 -0.2962  0.6520 -0.1790
 2465TIP3   OH228885   0.874   2.760   3.836  0.3813  0.3283 -0.0411
 2465TIP3    H128886   0.853   2.674   3.873 -1.4214  0.9338  0.4514
 2465TIP3    H228887   0.851   2.822   3.906  2.5556  1.2046 -0.0168
 2466TIP3   OH228888   5.774   2.117  14.169  0.4205 -0.2229 -0.2268
 2466TIP3    H128889   5.841   2.174  14.132 -0.9294  0.6707 -1.3924
 2466TIP3    H228890   5.742   2.066  14.094 -0.5537 -0.2617  0.2070
 2467TIP3   OH228891   4.888   2.276  12.277  0.4533  0.5212  0.3511
 2467TIP3    H128892   4.802   2.235  12.276  1.2672 -1.2638 -0.5445
 2467TIP3    H228893   4.894   2.323  12.194  0.0581  1.3306  0.7672
 2468TIP3   OH228894   6.229   6.245   5.131 -0.0950  0.1889  0.5483
 2468TIP3    H128895   6.317   6.224   5.099 -0.1075  1.3536 -0.3121
 2468TIP3    H228896   6.216   6.337   5.107 -1.1322  0.3564  1.6373
 2469TIP3   OH228897   1.988   5.406  16.422 -0.4871 -0.0932  0.2295
 2469TIP3    H128898   1.962   5.479  16.366 -0.2319 -0.5646 -0.5145
 2469TIP3    H228899   1.913   5.394  16.481 -0.6074  0.6450  0.2318
 2470TIP3   OH228900   2.601   4.062  11.123 -0.4927 -0.0987  0.0927
 2470TIP3    H128901   2.587   4.134  11.185 -1.9562  0.3201 -0.6637
 2470TIP3    H228902   2.696   4.054  11.116 -0.2921  1.6829  0.3068
 2471TIP3   OH228903   6.817   4.301   4.290 -0.3821  0.4231  0.1476
 2471TIP3    H128904   6.812   4.208   4.310 -0.3018  0.1536 -1.0068
 2471TIP3    H228905   6.749   4.315   4.224 -3.8712  2.2029  3.6646
 2472TIP3   OH228906   1.779   1.739  13.630 -0.2337  0.0716 -0.0239
 2472TIP3    H128907   1.808   1.721  13.720 -0.6008  0.3049  0.1451
 2472TIP3    H228908   1.744   1.828  13.634  0.3685  0.3359 -0.5552
 2473TIP3   OH228909   4.790   1.775   1.279  0.9707  0.2399 -0.0448
 2473TIP3    H128910   4.782   1.680   1.291  0.4883  0.4901  2.0074
 2473TIP3    H228911   4.883   1.793   1.296  1.0950  0.1199 -0.5921
 2474TIP3   OH228912   3.701   2.070  15.242  0.0454 -0.0077  0.1084
 2474TIP3    H128913   3.654   2.100  15.319  0.2158 -1.0202  0.6305
 2474TIP3    H228914   3.792   2.096  15.257  0.0150  0.1214  0.0707
 2475TIP3   OH228915   2.523   2.817   2.548  0.0979  0.1024 -0.5542
 2475TIP3    H128916   2.524   2.890   2.486 -0.7945  0.7205  0.1346
 2475TIP3    H228917   2.613   2.786   2.551  0.8024  2.0797  0.1846
 2476TIP3   OH228918   5.769   2.467  14.739 -0.2919  0.7469  0.2961
 2476TIP3    H128919   5.749   2.522  14.664 -1.3230 -1.2460 -0.9541
 2476TIP3    H228920   5.840   2.514  14.784  1.4600  1.2875 -2.7478
 2477TIP3   OH228921   4.234   2.932  15.470 -0.1014 -0.2599  0.2598
 2477TIP3    H128922   4.225   2.860  15.407 -0.7125 -0.7130  0.8482
 2477TIP3    H228923   4.295   2.993  15.429 -2.2755  0.6379 -1.8547
 2478TIP3   OH228924   5.604   1.873   5.754  0.2417 -0.3549  0.0491
 2478TIP3    H128925   5.564   1.955   5.783 -0.0789 -0.2555 -0.6599
 2478TIP3    H228926   5.531   1.821   5.719  0.6849 -0.2800 -1.0061
 2479TIP3   OH228927   3.023   3.285   1.191  0.0739 -0.1616 -0.0396
 2479TIP3    H128928   3.026   3.191   1.204 -0.2305 -0.0353  1.0188
 2479TIP3    H228929   3.027   3.296   1.096 -1.0799 -1.2863 -0.2414
 2480TIP3   OH228930   4.478   0.934   3.440  0.1274  0.3558  0.6071
 2480TIP3    H128931   4.516   0.873   3.502  0.4192  1.4817  1.5708
 2480TIP3    H228932   4.545   0.946   3.373 -0.2622 -1.0080 -0.0602
 2481TIP3   OH228933   6.176   4.399  15.937 -0.2636 -0.0057  0.1172
 2481TIP3    H128934   6.227   4.322  15.963 -0.1687  0.2695  0.7790
 2481TIP3    H228935   6.101   4.364  15.890 -0.9129 -0.6038  1.5285
 2482TIP3   OH228936   2.129   4.702  16.160 -0.1207 -0.7526  0.5966
 2482TIP3    H128937   2.102   4.778  16.212  0.2399 -1.1941  1.4403
 2482TIP3    H228938   2.188   4.653  16.217  0.4148 -1.1650 -0.2923
 2483TIP3   OH228939   4.813   0.447   6.167 -0.3873  0.9307  0.5874
 2483TIP3    H128940   4.744   0.455   6.233 -1.2779  1.4995 -0.3815
 2483TIP3    H228941   4.850   0.360   6.182 -0.4899  1.0914  1.8967
 2484TIP3   OH228942   0.794   1.143  15.234  0.5669 -0.2658  0.0532
 2484TIP3    H128943   0.827   1.233  15.241  0.5040 -0.2567  0.2533
 2484TIP3    H228944   0.864   1.089  15.271  1.1386 -0.4159 -1.2226
 2485TIP3   OH228945   0.257   1.252   5.240  0.2631 -0.1512 -0.2040
 2485TIP3    H128946   0.204   1.240   5.319  0.1311 -1.0689 -0.4138
 2485TIP3    H228947   0.198   1.296   5.178 -0.4496 -1.6151 -0.6094
 2486TIP3   OH228948   4.343   4.996   4.789 -0.2871  0.1424 -1.1220
 2486TIP3    H128949   4.421   4.953   4.825  0.3590  1.1538 -1.2564
 2486TIP3    H228950   4.377   5.075   4.747 -1.4759  1.0921 -0.3818
 2487TIP3   OH228951   4.654   0.537   0.141  0.3028  0.3323  0.0049
 2487TIP3    H128952   4.634   0.629   0.152 -0.9594  0.0745  0.0165
 2487TIP3    H228953   4.600   0.508   0.068  1.7532 -0.0959 -0.9619
 2488TIP3   OH228954   1.988   2.185   6.532  0.0363 -0.6452  0.2872
 2488TIP3    H128955   1.975   2.212   6.623 -0.0251 -0.6832  0.2897
 2488TIP3    H228956   1.983   2.089   6.535 -0.5366 -0.6235  0.1526
 2489TIP3   OH228957   3.775   5.054   4.938  0.4077 -0.1188  0.3172
 2489TIP3    H128958   3.757   4.975   4.989  2.5073  1.0120  3.0238
 2489TIP3    H228959   3.868   5.050   4.918  0.3632  1.2367 -0.3118
 2490TIP3   OH228960   5.429   2.087   4.418 -0.1539  0.0939 -0.3521
 2490TIP3    H128961   5.334   2.090   4.408 -0.2186 -0.8603 -0.1328
 2490TIP3    H228962   5.456   2.013   4.365  0.4125  0.0797 -0.0469
 2491TIP3   OH228963   5.361   3.690   0.017 -0.1207  0.6183 -0.3945
 2491TIP3    H128964   5.398   3.758  -0.039 -1.5982  0.6050 -1.4379
 2491TIP3    H228965   5.334   3.621  -0.043 -0.5347  0.0182  0.4566
 2492TIP3   OH228966   2.551   3.509  15.151  0.3866 -0.0921  0.1939
 2492TIP3    H128967   2.524   3.579  15.210  0.3843  0.1421 -0.0838
 2492TIP3    H228968   2.469   3.471  15.119  0.3853  0.2495 -0.2117
 2493TIP3   OH228969   6.453   0.643   2.399 -1.0166 -0.7812 -0.6439
 2493TIP3    H128970   6.382   0.689   2.356 -0.1116 -0.6177 -2.0424
 2493TIP3    H228971   6.460   0.684   2.486 -3.2891 -1.5376 -0.0434
 2494TIP3   OH228972   5.549   4.124   5.603 -0.0762  0.1393  0.8558
 2494TIP3    H128973   5.641   4.151   5.603  0.2268 -0.8208 -0.0767
 2494TIP3    H228974   5.543   4.062   5.530 -1.9718  1.9465 -0.6435
 2495TIP3   OH228975   2.400   6.312   5.342 -0.2173  0.4329 -0.1701
 2495TIP3    H128976   2.385   6.251   5.414 -0.2187  1.1907  0.4865
 2495TIP3    H228977   2.485   6.287   5.305 -1.1203 -1.2506 -1.2349
 2496TIP3   OH228978   5.938   2.186  15.181 -0.0446 -0.4674 -0.4319
 2496TIP3    H128979   5.991   2.148  15.250  0.7121  0.5919 -0.4087
 2496TIP3    H228980   5.921   2.113  15.121 -1.5564 -1.6606  1.3204
 2497TIP3   OH228981   4.503   6.212  16.324  0.0696  0.2894 -0.3468
 2497TIP3    H128982   4.583   6.264  16.337  0.1588 -0.6061  4.8608
 2497TIP3    H228983   4.434   6.277  16.313  0.7445  1.4658  1.7815
 2498TIP3   OH228984   0.316   3.350   5.060 -0.5355 -0.7354  0.3284
 2498TIP3    H128985   0.325   3.270   5.009  0.4491  0.7235 -1.9484
 2498TIP3    H228986   0.403   3.388   5.060 -1.6424  2.2268 -2.1157
 2499TIP3   OH228987   3.426   4.944  17.028 -0.1121 -0.1992  0.1188
 2499TIP3    H128988   3.493   4.878  17.047  0.4973  0.5809  0.7581
 2499TIP3    H228989   3.344   4.903  17.055  0.5344  0.2927  3.3563
 2500TIP3   OH228990   2.543   5.652   4.928 -0.3990 -0.0062  0.1025
 2500TIP3    H128991   2.514   5.582   4.869 -0.7076  0.6566 -0.5415
 2500TIP3    H228992   2.617   5.614   4.975 -1.7391 -1.4378  1.1625
 2501TIP3   OH228993   5.905   2.053   3.275 -0.6923  0.4954 -0.2821
 2501TIP3    H128994   5.957   2.041   3.354 -0.9495  1.2865  0.0119
 2501TIP3    H228995   5.969   2.056   3.204 -0.1771  2.8300  0.2049
 2502TIP3   OH228996   0.276   1.207  12.396 -0.4940 -0.5147 -0.1957
 2502TIP3    H128997   0.255   1.114  12.389 -0.2750 -0.5100 -0.9202
 2502TIP3    H228998   0.232   1.235  12.477 -2.7063 -0.6613 -1.2755
 2503TIP3   OH228999   3.609   0.461   3.304  0.0216  0.3189  0.0872
 2503TIP3    H129000   3.591   0.425   3.391  2.4756 -0.0475  0.5189
 2503TIP3    H229001   3.629   0.385   3.250 -0.3791  0.6263 -0.5057
 2504TIP3   OH229002   5.903   1.691   1.464  0.1665  0.2483 -0.6561
 2504TIP3    H129003   5.937   1.670   1.378 -1.1276 -1.2333 -0.8532
 2504TIP3    H229004   5.980   1.699   1.520  0.9872  0.7071 -1.8201
 2505TIP3   OH229005   5.170   4.186   3.959 -0.2914 -0.0471 -0.3641
 2505TIP3    H129006   5.170   4.105   4.009  1.0491  1.5419  2.4632
 2505TIP3    H229007   5.078   4.212   3.954 -0.5448 -0.7581  0.4084
 2506TIP3   OH229008   3.154   6.278  10.332 -0.2120 -0.4623 -0.3384
 2506TIP3    H129009   3.060   6.292  10.336 -0.2027 -0.3049 -0.6033
 2506TIP3    H229010   3.187   6.312  10.415 -0.1586  1.4107 -1.0687
 2507TIP3   OH229011   3.045   0.171   2.671  0.5576  0.1574  0.4182
 2507TIP3    H129012   3.015   0.195   2.583 -1.1498 -0.8469  0.6734
 2507TIP3    H229013   3.099   0.245   2.699 -2.1895  2.4459  0.1161
 2508TIP3   OH229014   0.463   3.201  14.208 -0.1163  0.2971 -0.4290
 2508TIP3    H129015   0.455   3.257  14.131  2.4740 -0.1990 -1.1370
 2508TIP3    H229016   0.556   3.183  14.216 -0.5048 -1.1749  1.7715
 2509TIP3   OH229017   5.407   2.850  12.228 -0.3494 -0.0949 -0.4351
 2509TIP3    H129018   5.415   2.838  12.133  0.0285  0.0282 -0.4184
 2509TIP3    H229019   5.364   2.935  12.238 -1.9622 -0.8431 -0.5293
 2510TIP3   OH229020   0.833   5.090   6.024 -0.9995 -0.1615  0.5372
 2510TIP3    H129021   0.776   5.127   5.956 -1.4341 -2.0043 -0.1589
 2510TIP3    H229022   0.772   5.053   6.088 -0.5843  1.2009  1.7605
 2511TIP3   OH229023   3.907   0.768  16.507  0.0112  0.6493 -0.0160
 2511TIP3    H129024   3.984   0.715  16.529  0.7537  1.2917 -0.9956
 2511TIP3    H229025   3.835   0.705  16.500  0.6578 -0.0915 -0.0808
 2512TIP3   OH229026   0.154   4.988   5.198  0.5961 -1.0135 -0.2289
 2512TIP3    H129027   0.099   4.910   5.192 -1.3619  0.2386  0.5229
 2512TIP3    H229028   0.105   5.056   5.151  0.8825  0.4603  1.4905
 2513TIP3   OH229029   3.250   3.080  14.485  0.0327  0.2051  0.1889
 2513TIP3    H129030   3.217   3.115  14.403 -0.0164  0.0470  0.1405
 2513TIP3    H229031   3.340   3.053  14.466 -0.4560 -1.2245 -0.2250
 2514TIP3   OH229032   0.927   2.537  14.114 -0.2636 -0.2214  0.4501
 2514TIP3    H129033   1.015   2.513  14.144 -0.2898 -0.4673  0.3315
 2514TIP3    H229034   0.923   2.632  14.125 -0.6943 -0.4310  2.3405
 2515TIP3   OH229035   5.680   6.464   4.225 -0.6561 -0.3451 -0.1510
 2515TIP3    H129036   5.696   6.370   4.219  0.2780 -0.1826 -0.3944
 2515TIP3    H229037   5.640   6.487   4.141  2.9177  0.1483 -1.9048
 2516TIP3   OH229038   3.623   3.789   3.405 -0.5900 -0.0958 -0.4138
 2516TIP3    H129039   3.701   3.840   3.427 -0.6042  1.0678 -2.7437
 2516TIP3    H229040   3.550   3.847   3.423 -0.6716  0.3006 -1.8955
 2517TIP3   OH229041   1.182   5.110  12.782  0.2287  0.2453 -0.1347
 2517TIP3    H129042   1.186   5.205  12.798  0.3546  0.1574  0.3485
 2517TIP3    H229043   1.123   5.102  12.707 -1.0595  0.5904  0.8191
 2518TIP3   OH229044   1.198   6.390  11.858  0.3328  0.0365  0.0225
 2518TIP3    H129045   1.278   6.438  11.876  1.7699 -2.1462 -0.0626
 2518TIP3    H229046   1.227   6.299  11.847 -2.2043 -0.8990  0.3288
 2519TIP3   OH229047   0.938   5.326  11.428  0.4139  0.2126  0.7043
 2519TIP3    H129048   0.996   5.331  11.504 -0.1274  0.1481  1.1333
 2519TIP3    H229049   0.953   5.408  11.380  3.8245 -1.4515 -1.4348
 2520TIP3   OH229050   5.160   3.904  13.393  0.4894  0.0028  0.1642
 2520TIP3    H129051   5.198   3.816  13.398  0.8045  0.1040 -0.4048
 2520TIP3    H229052   5.223   3.955  13.343  0.6945  0.7645  1.1503
 2521TIP3   OH229053   0.743   5.749   4.608  0.0908 -0.3702 -0.4479
 2521TIP3    H129054   0.820   5.723   4.558  0.3346  1.9696 -1.3705
 2521TIP3    H229055   0.684   5.674   4.600  2.1730 -2.2012  0.2357
 2522TIP3   OH229056   2.343   2.683  13.548 -0.8259  0.1070 -0.0414
 2522TIP3    H129057   2.341   2.773  13.582  0.6710 -0.5416  1.9542
 2522TIP3    H229058   2.286   2.634  13.607 -1.5294 -0.3167 -1.0365
 2523TIP3   OH229059   3.131   1.482   3.106 -0.4784  0.1232 -0.0168
 2523TIP3    H129060   3.173   1.568   3.109 -0.6448  0.3271 -1.9926
 2523TIP3    H229061   3.202   1.420   3.093 -0.1117 -0.3610  3.4038
 2524TIP3   OH229062   3.519   5.497   1.025 -0.1407 -0.3662 -0.0561
 2524TIP3    H129063   3.600   5.547   1.032 -0.1359 -0.4929  1.0204
 2524TIP3    H229064   3.547   5.407   1.007 -0.1126 -0.1624 -1.0888
 2525TIP3   OH229065   0.293   4.453  12.343 -0.1350 -0.3208  0.0573
 2525TIP3    H129066   0.242   4.501  12.408 -0.3727 -0.0541 -0.3217
 2525TIP3    H229067   0.321   4.520  12.280 -1.7466 -0.8766 -1.3154
 2526TIP3   OH229068   6.470   6.082   4.392 -0.0764 -0.2869  0.3236
 2526TIP3    H129069   6.450   6.170   4.424 -0.2799  0.4164 -1.6418
 2526TIP3    H229070   6.460   6.087   4.297 -0.2927 -2.4946  0.1655
 2527TIP3   OH229071   2.755   3.287  15.285  0.0783  0.2587 -0.0743
 2527TIP3    H129072   2.786   3.300  15.196 -0.0266  3.0626  0.2097
 2527TIP3    H229073   2.683   3.225  15.276 -1.1581  1.8561 -2.2605
 2528TIP3   OH229074   4.156   5.868   0.110  0.0062 -0.2607  0.0401
 2528TIP3    H129075   4.218   5.937   0.133  0.2153 -0.1796 -0.7186
 2528TIP3    H229076   4.092   5.911   0.053  0.0663 -0.6625 -0.3368
 2529TIP3   OH229077   5.737   5.192  14.418 -0.6661 -0.4958 -0.1340
 2529TIP3    H129078   5.670   5.150  14.472 -0.9517 -0.1142 -0.1870
 2529TIP3    H229079   5.718   5.286  14.424  1.5745 -0.0780  2.1848
 2530TIP3   OH229080   1.891   3.739  11.501 -0.6581 -0.1734  0.2511
 2530TIP3    H129081   1.960   3.709  11.561  1.0230 -0.2958 -1.6349
 2530TIP3    H229082   1.876   3.830  11.525  2.7555  0.9934 -1.4350
 2531TIP3   OH229083   1.720   0.846   3.417 -0.2674  0.2579 -0.1250
 2531TIP3    H129084   1.713   0.757   3.384  1.3537  0.0252  0.0773
 2531TIP3    H229085   1.651   0.853   3.483 -0.2197 -0.9547  0.0779
 2532TIP3   OH229086   2.384   4.324  16.699  0.1551  0.5147 -0.5645
 2532TIP3    H129087   2.394   4.230  16.718  0.0004  0.3183 -1.4004
 2532TIP3    H229088   2.420   4.368  16.776 -1.0980 -0.2275  0.4861
 2533TIP3   OH229089   0.067   4.611   2.450  1.2225  0.0637  0.3261
 2533TIP3    H129090   0.115   4.601   2.367  0.9769  2.1499 -0.1503
 2533TIP3    H229091  -0.023   4.627   2.423  0.1899 -3.4942  1.2014
 2534TIP3   OH229092   2.783   6.187   4.674  0.4567 -0.3180  0.4126
 2534TIP3    H129093   2.762   6.180   4.581  3.1355  0.8461 -0.3813
 2534TIP3    H229094   2.716   6.246   4.710 -1.1353 -1.4883 -0.5140
 2535TIP3   OH229095   5.111   5.588  16.701 -0.5051  0.0156 -0.5198
 2535TIP3    H129096   5.061   5.669  16.704  0.7237  0.8546 -1.6794
 2535TIP3    H229097   5.186   5.604  16.758  0.4687  0.2519 -1.8091
 2536TIP3   OH229098   6.509   2.658   2.074  0.0066 -0.0610 -0.1060
 2536TIP3    H129099   6.490   2.585   2.015  2.7358 -1.2746  0.3615
 2536TIP3    H229100   6.487   2.625   2.161 -0.3007  0.2939 -0.0464
 2537TIP3   OH229101   4.028   3.924  14.966  0.2194 -0.2894  0.3794
 2537TIP3    H129102   4.027   4.020  14.959 -1.4069 -0.3484 -0.8980
 2537TIP3    H229103   3.940   3.902  14.996  0.2287 -1.4239 -0.3811
 2538TIP3   OH229104   0.741   1.109   3.943  0.1804 -0.0615  0.3018
 2538TIP3    H129105   0.745   1.074   4.032  0.7724 -1.6165 -0.2906
 2538TIP3    H229106   0.796   1.187   3.945  0.4092 -0.2336  1.2433
 2539TIP3   OH229107   4.815   5.332  15.961  0.0119 -0.4225  0.3905
 2539TIP3    H129108   4.893   5.381  15.986 -0.7825  0.6187  0.8881
 2539TIP3    H229109   4.798   5.275  16.035  2.0602 -2.9959 -0.9479
 2540TIP3   OH229110   1.509   2.031   2.982 -0.2126  0.1718 -0.0103
 2540TIP3    H129111   1.493   2.124   2.966 -1.5710  0.1362  0.9533
 2540TIP3    H229112   1.452   1.985   2.920  1.2778 -0.0829 -1.2784
 2541TIP3   OH229113   4.014   6.583  15.577 -0.2250  0.0906  0.5120
 2541TIP3    H129114   4.032   6.518  15.509  2.0802  0.0157  1.0951
 2541TIP3    H229115   3.975   6.657  15.530 -0.9711 -0.8890 -0.4700
 2542TIP3   OH229116   4.576   4.703   3.480  0.1729 -0.1680 -0.3970
 2542TIP3    H129117   4.583   4.798   3.488 -1.1799 -0.1384  0.8984
 2542TIP3    H229118   4.499   4.680   3.533  1.5498 -2.1665  0.8814
 2543TIP3   OH229119   4.835   2.818  16.927  0.1215  0.2603  0.0402
 2543TIP3    H129120   4.762   2.784  16.875 -0.0791 -0.0265  0.4990
 2543TIP3    H229121   4.812   2.909  16.945  0.6701  0.6642 -1.2178
 2544TIP3   OH229122   5.300   3.330  15.333 -0.3727 -0.6245 -0.3337
 2544TIP3    H129123   5.304   3.426  15.338 -0.6218 -0.6299  0.0154
 2544TIP3    H229124   5.381   3.300  15.373  0.3949 -0.5379 -1.7360
 2545TIP3   OH229125   2.551   1.689  14.513  0.1193  0.1324 -0.0577
 2545TIP3    H129126   2.541   1.724  14.425  1.7810  0.1449 -0.2661
 2545TIP3    H229127   2.578   1.598  14.501 -0.5113 -0.1324  0.4557
 2546TIP3   OH229128   1.255   1.996   3.406 -0.0044  0.5924 -0.0699
 2546TIP3    H129129   1.277   1.985   3.314  1.2479  1.7484  0.0607
 2546TIP3    H229130   1.284   1.915   3.448 -2.4264 -0.8503 -0.9274
 2547TIP3   OH229131   5.953   1.921  13.080  0.3948  0.1153  0.4943
 2547TIP3    H129132   5.981   1.834  13.050  0.2404  0.0474  0.5481
 2547TIP3    H229133   6.019   1.945  13.145 -0.2197 -0.4729  1.3459
 2548TIP3   OH229134   0.966   4.149   6.638  0.0366  0.1817  0.1414
 2548TIP3    H129135   0.992   4.184   6.724  0.3110  0.4554 -0.0522
 2548TIP3    H229136   0.877   4.117   6.652  0.5102 -0.8869  0.8488
 2549TIP3   OH229137   1.708   4.063  10.823 -0.6509 -0.0497 -0.5157
 2549TIP3    H129138   1.777   4.077  10.758 -0.0524 -1.4270 -0.2223
 2549TIP3    H229139   1.742   4.102  10.903 -0.1777 -0.7341 -0.3691
 2550TIP3   OH229140   0.579   0.226   5.622  0.0999  0.8597 -0.1467
 2550TIP3    H129141   0.492   0.230   5.662  0.0814  0.0385 -0.0849
 2550TIP3    H229142   0.620   0.149   5.661  0.1507  0.1340 -1.5583
 2551TIP3   OH229143   1.671   5.964   1.702  0.1887 -0.4205  0.6275
 2551TIP3    H129144   1.593   5.919   1.670 -0.3682  0.3113  0.9196
 2551TIP3    H229145   1.743   5.930   1.649 -0.5898  0.2140 -0.8914
 2552TIP3   OH229146   4.898   2.058  15.651 -0.5023 -0.1393 -0.4953
 2552TIP3    H129147   4.982   2.013  15.662  0.4592  1.7950  0.5987
 2552TIP3    H229148   4.882   2.100  15.735 -2.1467  0.2666 -0.9715
 2553TIP3   OH229149   0.429   0.550   2.777  0.9171 -0.2692 -0.0765
 2553TIP3    H129150   0.505   0.577   2.828  0.9010  0.1323 -0.2597
 2553TIP3    H229151   0.357   0.605   2.809  1.3277  1.4069 -1.8640
 2554TIP3   OH229152   2.509   5.864  12.428  0.6449 -0.2146  0.4116
 2554TIP3    H129153   2.511   5.872  12.332  0.4804 -2.7492  0.1353
 2554TIP3    H229154   2.419   5.888  12.451  0.1796 -1.1635 -0.2950
 2555TIP3   OH229155   2.986   0.820  12.356  0.1868 -0.0584  0.0168
 2555TIP3    H129156   3.018   0.730  12.354 -1.9917 -0.8838  0.3918
 2555TIP3    H229157   3.060   0.872  12.323  1.9686 -1.7941  1.0494
 2556TIP3   OH229158   0.375   5.524  17.197  0.2812 -0.1461 -0.2570
 2556TIP3    H129159   0.305   5.528  17.263  0.6441 -2.3520  0.3715
 2556TIP3    H229160   0.342   5.462  17.132  1.4349 -0.8865 -0.1720
 2557TIP3   OH229161   4.044   4.115   1.598  0.4524 -0.7126 -0.0385
 2557TIP3    H129162   3.972   4.177   1.587  0.6114 -0.7591 -1.6104
 2557TIP3    H229163   4.021   4.064   1.676 -1.3275 -0.8713 -0.6209
 2558TIP3   OH229164   4.053   2.774  16.969 -0.5817  0.6672  0.9503
 2558TIP3    H129165   4.145   2.802  16.974 -0.8348  1.4349  1.6650
 2558TIP3    H229166   4.048   2.722  16.889  0.5242  0.4185  1.0138
 2559TIP3   OH229167   6.467   0.379   3.860  0.6306  0.2755 -0.8014
 2559TIP3    H129168   6.403   0.443   3.892  0.5343  0.3715 -1.1808
 2559TIP3    H229169   6.498   0.416   3.777  1.1671  0.2228 -0.6260
 2560TIP3   OH229170   2.158   2.721   4.330  0.3237 -0.1189 -0.0229
 2560TIP3    H129171   2.190   2.734   4.240 -0.1466 -3.1459 -0.7373
 2560TIP3    H229172   2.218   2.773   4.384  2.4533 -0.4822 -1.8647
 2561TIP3   OH229173   2.102   1.327  13.357 -0.8667 -0.2300  0.3707
 2561TIP3    H129174   2.024   1.348  13.408 -0.8027  1.3621 -0.1250
 2561TIP3    H229175   2.118   1.234  13.374 -2.3950 -0.3877  1.1111
 2562TIP3   OH229176   5.136   3.246  14.230  0.2492 -0.5317  0.1000
 2562TIP3    H129177   5.113   3.168  14.281  0.0820 -0.1148  0.6773
 2562TIP3    H229178   5.076   3.313  14.262 -1.9563 -0.9532 -2.7094
 2563TIP3   OH229179   3.790   3.110   1.781 -0.2722  0.6928  0.0650
 2563TIP3    H129180   3.739   3.038   1.818  0.3092 -0.4726 -1.3164
 2563TIP3    H229181   3.834   3.072   1.705  1.2913  2.1113  0.2024
 2564TIP3   OH229182   2.830   2.826  12.984 -0.4448  0.8182 -0.1145
 2564TIP3    H129183   2.743   2.864  12.994 -0.0419  1.7635 -0.0939
 2564TIP3    H229184   2.816   2.746  12.934 -1.4871  0.2289  1.0688
 2565TIP3   OH229185   1.199   5.260   1.789  0.4472  0.4027 -0.3537
 2565TIP3    H129186   1.245   5.183   1.754  1.5666  1.4303 -1.2395
 2565TIP3    H229187   1.130   5.277   1.726  1.1653  1.0157 -0.9974
 2566TIP3   OH229188   1.601   6.310  17.005  0.4690  0.1179  0.3010
 2566TIP3    H129189   1.515   6.300  17.046  1.1130 -0.8819  1.4846
 2566TIP3    H229190   1.639   6.223  17.009  1.7040  0.6396  0.1575
 2567TIP3   OH229191   4.741   1.516   6.568 -0.2815 -0.2957  0.0754
 2567TIP3    H129192   4.660   1.483   6.605  0.4403 -0.4550  1.6198
 2567TIP3    H229193   4.805   1.508   6.639  1.1986 -0.6040 -1.2275
 2568TIP3   OH229194   5.478   1.292   3.433  0.0320  0.6846 -0.3140
 2568TIP3    H129195   5.482   1.205   3.393  1.6870  1.3502 -1.7421
 2568TIP3    H229196   5.446   1.276   3.522 -2.1664 -1.0587 -1.3241
 2569TIP3   OH229197   5.636   6.462   3.117  0.1344  0.6390  0.4960
 2569TIP3    H129198   5.689   6.386   3.140 -0.5031 -0.2806 -0.9225
 2569TIP3    H229199   5.546   6.436   3.138  0.0026  1.3115  0.7782
 2570TIP3   OH229200   6.092   4.957   4.210  0.0983  0.2325 -0.2657
 2570TIP3    H129201   6.166   4.901   4.234  0.5620  0.9510  0.0162
 2570TIP3    H229202   6.100   4.969   4.115  0.3163  0.2648 -0.2429
 2571TIP3   OH229203   3.077   2.125   1.959  0.2858 -0.4082  1.4059
 2571TIP3    H129204   3.013   2.197   1.968  1.0051  0.2462  1.3533
 2571TIP3    H229205   3.038   2.067   1.894  0.4880  0.8346  0.1140
 2572TIP3   OH229206   3.013   5.162  13.452  0.3481 -0.0439 -0.2589
 2572TIP3    H129207   2.959   5.083  13.451  0.7652 -0.3451  0.3343
 2572TIP3    H229208   3.001   5.198  13.540  0.2990  0.4540 -0.4703
 2573TIP3   OH229209   2.763   0.806   2.514  0.7666  0.2958  0.4182
 2573TIP3    H129210   2.771   0.885   2.459  0.4168  0.1385  0.1340
 2573TIP3    H229211   2.846   0.761   2.502  1.0259  0.6938  0.6941
 2574TIP3   OH229212   4.052   5.360  13.913 -1.1124  0.1841 -0.3102
 2574TIP3    H129213   3.998   5.283  13.924  0.9477 -1.3320 -0.2334
 2574TIP3    H229214   4.074   5.360  13.819 -2.8493  1.9780 -0.7863
 2575TIP3   OH229215   3.828   3.242   5.411 -0.1767  0.5839  0.3762
 2575TIP3    H129216   3.879   3.286   5.479 -0.3324  0.4576  0.5770
 2575TIP3    H229217   3.881   3.250   5.332  1.2062 -1.3982  1.0077
 2576TIP3   OH229218   3.624   2.505  12.076  0.2312  0.7095 -0.2825
 2576TIP3    H129219   3.685   2.576  12.095 -0.3768  1.6268 -1.6048
 2576TIP3    H229220   3.538   2.548  12.069 -0.3654 -0.3560  0.2342
 2577TIP3   OH229221   1.589   0.648  14.309 -0.3330 -0.1259 -0.0884
 2577TIP3    H129222   1.553   0.711  14.247  0.2374 -2.0465 -2.5112
 2577TIP3    H229223   1.556   0.563  14.280  1.2127 -1.2793  1.3062
 2578TIP3   OH229224   2.211   5.311   3.260 -0.4280  0.0705 -0.5237
 2578TIP3    H129225   2.298   5.285   3.289  0.3290  1.3938 -1.5061
 2578TIP3    H229226   2.172   5.353   3.337  1.2807  2.8870 -1.0368
 2579TIP3   OH229227   3.096   6.281   2.138  0.2952  0.5327 -0.3607
 2579TIP3    H129228   3.027   6.261   2.201  0.7300 -0.7978 -0.2684
 2579TIP3    H229229   3.151   6.347   2.181  0.4275 -0.1536  0.5529
 2580TIP3   OH229230   0.783   3.874  13.260  0.1381 -0.1334 -0.5866
 2580TIP3    H129231   0.851   3.852  13.324 -0.3166 -1.2426 -0.4634
 2580TIP3    H229232   0.790   3.805  13.194  0.2407  0.6944 -1.4524
 2581TIP3   OH229233   6.192   4.903  10.428 -0.3121  0.0331 -0.2400
 2581TIP3    H129234   6.108   4.872  10.391 -0.6561 -0.7099  1.0935
 2581TIP3    H229235   6.176   4.995  10.449 -0.8198 -0.1052  0.0206
 2582TIP3   OH229236   3.877   3.061   5.048  0.2239 -0.1627  0.9473
 2582TIP3    H129237   3.960   3.028   5.013  0.3041 -0.0483  1.0306
 2582TIP3    H229238   3.884   3.051   5.142  0.2847  0.1791  0.9789
 2583TIP3   OH229239   5.570   0.907   1.324  0.0832 -0.3082 -0.0894
 2583TIP3    H129240   5.561   0.983   1.268  1.0326 -0.8480 -1.0176
 2583TIP3    H229241   5.493   0.910   1.381 -0.0339  1.1733 -0.2869
 2584TIP3   OH229242   5.026   5.658   0.624 -0.3893 -0.9410 -0.7638
 2584TIP3    H129243   5.111   5.698   0.645 -1.7597  0.3645  3.1580
 2584TIP3    H229244   5.045   5.600   0.550  3.1572  1.8256 -2.3540
 2585TIP3   OH229245   5.445   1.404  11.606  0.5104  0.5578 -0.0724
 2585TIP3    H129246   5.454   1.309  11.597 -0.5280  0.4252  0.1373
 2585TIP3    H229247   5.474   1.422  11.696 -2.0986  0.0015  0.9639
 2586TIP3   OH229248   2.599   3.595   1.726 -0.6452  0.2496  0.5273
 2586TIP3    H129249   2.677   3.546   1.700 -0.9714  0.3957 -0.8347
 2586TIP3    H229250   2.633   3.672   1.771 -0.0969 -0.7503  1.8889
 2587TIP3   OH229251   2.897   1.484   0.968  0.0379  0.2263  0.0280
 2587TIP3    H129252   2.962   1.455   0.903 -2.0470  0.5052 -2.3107
 2587TIP3    H229253   2.813   1.472   0.925 -1.3461  2.6940  1.8160
 2588TIP3   OH229254   3.294   1.912  15.409 -0.4377 -0.2628 -0.3962
 2588TIP3    H129255   3.210   1.947  15.437 -1.3494 -2.4271 -0.2213
 2588TIP3    H229256   3.284   1.817  15.415  2.2335 -0.5910  0.2270
 2589TIP3   OH229257   6.136   2.917  15.727 -0.0159 -0.3782  0.0285
 2589TIP3    H129258   6.116   3.008  15.750 -2.0987 -0.2203 -2.0292
 2589TIP3    H229259   6.053   2.871  15.735  0.7658 -1.8618 -0.0723
 2590TIP3   OH229260   4.605   4.412   1.020 -0.3784 -0.4709  0.2824
 2590TIP3    H129261   4.595   4.371   1.106  0.5720 -1.4778 -0.0662
 2590TIP3    H229262   4.548   4.361   0.962  0.9598 -1.4951 -0.1936
 2591TIP3   OH229263   2.184   1.800  17.167  0.0674  0.2257 -0.2037
 2591TIP3    H129264   2.135   1.804  17.085  0.5689  3.6999 -0.4538
 2591TIP3    H229265   2.168   1.884  17.209  0.8672 -0.9570  2.7090
 2592TIP3   OH229266   4.297   3.950   1.652  0.0668 -0.3408 -0.2089
 2592TIP3    H129267   4.240   4.016   1.614  0.1262  0.0840  0.4199
 2592TIP3    H229268   4.366   4.000   1.696 -1.6420 -0.6132  3.1132
 2593TIP3   OH229269   2.000   4.109   1.217  0.4474 -0.1090 -0.7084
 2593TIP3    H129270   2.078   4.144   1.259  0.0773  0.6384 -0.6274
 2593TIP3    H229271   1.961   4.184   1.171 -1.2750  0.0352  0.8572
 2594TIP3   OH229272   1.620   0.263  14.532 -0.1935  0.0554  0.2069
 2594TIP3    H129273   1.696   0.321  14.535 -0.9428  1.7248 -4.2332
 2594TIP3    H229274   1.656   0.176  14.516  0.8722  0.7332 -1.2706
 2595TIP3   OH229275   4.313   0.154  16.280  0.1110  0.1229 -0.7143
 2595TIP3    H129276   4.350   0.072  16.312  0.6375  0.6705  0.1177
 2595TIP3    H229277   4.279   0.198  16.358  3.0488  2.3204 -0.4635
 2596TIP3   OH229278   4.400   2.347  15.566  0.7056 -0.4153 -0.4400
 2596TIP3    H129279   4.310   2.375  15.548  1.1386  0.8524 -0.7175
 2596TIP3    H229280   4.417   2.374  15.656  0.5793 -1.3086 -0.1379
 2597TIP3   OH229281   2.871   1.123  13.795  0.2430 -0.3187  0.0984
 2597TIP3    H129282   2.781   1.091  13.785  0.2639 -0.1560 -0.7214
 2597TIP3    H229283   2.860   1.212  13.830 -0.0271  0.4393 -1.7856
 2598TIP3   OH229284   2.363   0.986  12.141  0.2335 -0.1208  0.0635
 2598TIP3    H129285   2.330   1.010  12.054 -1.0652  1.1275  0.8536
 2598TIP3    H229286   2.309   0.911  12.168 -0.7333  0.7302  0.5729
 2599TIP3   OH229287   0.032   2.516  11.125 -0.2636 -0.2051 -0.2386
 2599TIP3    H129288  -0.041   2.456  11.142 -1.1862  0.4367 -1.7227
 2599TIP3    H229289   0.091   2.467  11.068 -1.8409  0.7696 -2.8517
 2600TIP3   OH229290   5.357   2.441   0.530  0.6299 -0.7581  0.5655
 2600TIP3    H129291   5.329   2.435   0.439  1.4924  3.2417 -0.1602
 2600TIP3    H229292   5.449   2.414   0.528  1.0369  0.5787 -0.0904
 2601TIP3   OH229293   1.603   1.435  16.560  0.6030 -0.3674 -0.2388
 2601TIP3    H129294   1.522   1.404  16.519  0.5063 -1.0489  0.4489
 2601TIP3    H229295   1.594   1.530  16.561 -0.1608 -0.4329 -0.2428
 2602TIP3   OH229296   2.825   0.790  16.868  0.3179  0.1529  0.1438
 2602TIP3    H129297   2.817   0.807  16.774  1.0686 -1.0163 -0.1476
 2602TIP3    H229298   2.809   0.696  16.876 -2.8579  0.6933  1.5818
 2603TIP3   OH229299   6.668   3.247   0.611 -0.0641  0.1011  0.2236
 2603TIP3    H129300   6.646   3.176   0.551  1.8257  0.5530 -1.0785
 2603TIP3    H229301   6.667   3.206   0.698 -1.8978 -0.7820 -0.1706
 2604TIP3   OH229302   5.027   1.209  11.413 -0.1788 -0.3566 -0.2362
 2604TIP3    H129303   4.997   1.151  11.483 -1.5369  1.0751  0.4377
 2604TIP3    H229304   4.950   1.220  11.357  0.6362 -0.7514 -1.4652
 2605TIP3   OH229305   0.581   4.024   2.848 -0.0424 -0.0840  0.0866
 2605TIP3    H129306   0.573   4.113   2.814  1.2899  0.6113  1.4909
 2605TIP3    H229307   0.562   4.032   2.941 -0.1634 -1.3297  0.1821
 2606TIP3   OH229308   3.616   3.559  13.717  0.0864 -0.2259  0.1944
 2606TIP3    H129309   3.698   3.514  13.741  0.3227 -0.7004 -1.3738
 2606TIP3    H229310   3.630   3.649  13.744  0.9892 -0.3800  0.2980
 2607TIP3   OH229311   5.298   3.644   0.469  0.7004 -0.0180 -0.4084
 2607TIP3    H129312   5.319   3.738   0.465  1.5803 -0.1652  0.4068
 2607TIP3    H229313   5.360   3.604   0.407 -0.1927  0.0000 -1.3480
 2608TIP3   OH229314   6.217   6.431   2.775  0.1984 -0.3259  0.3342
 2608TIP3    H129315   6.151   6.391   2.718  1.2478  0.8975 -1.8397
 2608TIP3    H229316   6.286   6.365   2.781 -0.2800 -0.7874  0.9221
 2609TIP3   OH229317   3.104   0.885   4.634  0.8615  0.1400 -0.0931
 2609TIP3    H129318   3.091   0.916   4.724  2.4598  0.2648  0.1318
 2609TIP3    H229319   3.034   0.927   4.584 -0.1366 -0.0282  1.0976
 2610TIP3   OH229320   2.585   2.134   4.207  0.1377  0.0103 -1.0154
 2610TIP3    H129321   2.504   2.182   4.189 -0.0551 -0.0848 -0.4198
 2610TIP3    H229322   2.556   2.053   4.250  0.6001  0.3961  0.0551
 2611TIP3   OH229323   2.109   5.823  17.065  0.1009 -0.0528 -0.7376
 2611TIP3    H129324   2.076   5.775  17.141  0.4295  0.0336 -0.5428
 2611TIP3    H229325   2.173   5.884  17.100  3.5484 -2.9209 -1.4661
 2612TIP3   OH229326   2.604   3.458  11.118 -0.2641 -0.6526  0.3654
 2612TIP3    H129327   2.576   3.546  11.142 -0.4822 -0.7030  0.3009
 2612TIP3    H229328   2.638   3.468  11.029 -2.7958 -1.1048 -0.7438
 2613TIP3   OH229329   2.609   1.164  16.047 -0.0856  0.0356 -0.3224
 2613TIP3    H129330   2.591   1.205  16.131  0.5964 -0.8375  0.2632
 2613TIP3    H229331   2.532   1.184  15.993 -0.2129  1.1935  0.2712
 2614TIP3   OH229332   6.431   2.312  11.314  0.3307  0.6749  0.1676
 2614TIP3    H129333   6.389   2.296  11.230 -0.4327  1.4475  0.3828
 2614TIP3    H229334   6.363   2.292  11.379  1.0498 -0.3525  0.6279
 2615TIP3   OH229335   4.366   0.376  16.099  0.1621  0.2294  0.2174
 2615TIP3    H129336   4.355   0.341  16.011  0.9065  1.2851 -0.3237
 2615TIP3    H229337   4.404   0.304  16.149  0.7394 -0.0587 -0.6096
 2616TIP3   OH229338   5.761   4.759   4.921  0.1249  0.3329  0.0042
 2616TIP3    H129339   5.806   4.696   4.978  2.0950  1.2360 -0.4348
 2616TIP3    H229340   5.777   4.726   4.832 -0.5482  0.3878 -0.1378
 2617TIP3   OH229341   4.845   2.415  12.026  0.5345  0.2136 -0.1977
 2617TIP3    H129342   4.893   2.420  11.943  0.7325  0.3654 -0.0729
 2617TIP3    H229343   4.756   2.390  12.000  0.5908  0.2790 -0.4587
 2618TIP3   OH229344   1.608   6.580  11.416  0.3636  0.1192  0.5558
 2618TIP3    H129345   1.568   6.634  11.348 -0.3091  0.7933  1.4741
 2618TIP3    H229346   1.696   6.561  11.382  0.2426  0.9244 -0.2417
 2619TIP3   OH229347   3.212   4.562  16.284  0.4869  0.2441 -0.3016
 2619TIP3    H129348   3.265   4.540  16.207  0.2479  1.9474 -0.9931
 2619TIP3    H229349   3.122   4.548  16.256  0.3426  1.7750 -0.6846
 2620TIP3   OH229350   3.060   6.365  16.234 -0.2102  0.7101  0.4530
 2620TIP3    H129351   2.972   6.380  16.270 -0.5370  1.2385 -0.5151
 2620TIP3    H229352   3.057   6.275  16.201  0.1763  0.1336  1.9453
 2621TIP3   OH229353   2.620   2.489   3.777 -0.0334 -0.0830  0.3502
 2621TIP3    H129354   2.594   2.483   3.868  0.3374 -0.4807  0.4373
 2621TIP3    H229355   2.635   2.398   3.751  0.7647  0.0931  0.1644
 2622TIP3   OH229356   0.964   0.554  11.800 -0.1196  0.1993 -0.0393
 2622TIP3    H129357   0.979   0.610  11.724 -3.2031  0.0776 -0.8878
 2622TIP3    H229358   0.931   0.472  11.764  1.8868 -1.3293  1.3264
 2623TIP3   OH229359   2.074   2.468   0.001 -0.2406 -0.2058  0.1208
 2623TIP3    H129360   2.121   2.477   0.084  1.1053  0.3020 -0.6588
 2623TIP3    H229361   2.131   2.510  -0.063 -0.6871 -1.6240 -1.2705
 2624TIP3   OH229362   3.005   3.520  14.973 -0.4206 -0.2294  0.3396
 2624TIP3    H129363   3.039   3.599  14.931 -0.2567 -1.6580 -2.4260
 2624TIP3    H229364   2.920   3.547  15.009  0.5722  1.6896  1.3885
 2625TIP3   OH229365   5.041   6.039   4.008 -0.2090  0.3507  0.6783
 2625TIP3    H129366   5.098   6.071   3.939 -0.3821 -1.4467 -0.3368
 2625TIP3    H229367   5.027   5.947   3.988 -0.2109 -0.2563  3.1504
 2626TIP3   OH229368   3.283   6.385  12.937  0.3332  0.3522 -0.0040
 2626TIP3    H129369   3.233   6.445  12.882 -1.5439 -1.6704 -0.6677
 2626TIP3    H229370   3.350   6.349  12.879  0.1701  0.3332 -0.1820
 2627TIP3   OH229371   4.974   4.317   0.854 -0.0661 -0.1453  0.0860
 2627TIP3    H129372   5.070   4.324   0.858  0.1691 -0.3669 -2.7405
 2627TIP3    H229373   4.957   4.222   0.856  0.2157 -0.4074 -3.4132
 2628TIP3   OH229374   3.582   6.566   0.094  0.2591  0.2795  0.5312
 2628TIP3    H129375   3.653   6.511   0.127  1.2514  0.8504 -0.6208
 2628TIP3    H229376   3.539   6.513   0.027  0.6430  0.5582  0.0622
 2629TIP3   OH229377   5.755   4.389   4.750  0.0344 -0.2017  0.0643
 2629TIP3    H129378   5.717   4.304   4.727  0.1247 -0.1514 -0.2831
 2629TIP3    H229379   5.848   4.381   4.726 -0.1467  0.3142 -0.8990
 2630TIP3   OH229380   6.612   2.980  12.077 -0.0128  0.3239  0.0164
 2630TIP3    H129381   6.555   2.945  12.009  1.1506 -0.8043 -0.4186
 2630TIP3    H229382   6.628   2.907  12.136  0.4683  0.7918  0.4887
 2631TIP3   OH229383   1.739   5.097   0.430 -0.3621  0.0917 -0.6061
 2631TIP3    H129384   1.673   5.153   0.470  0.3848 -0.4361  1.4749
 2631TIP3    H229385   1.820   5.148   0.437 -0.2634  0.1248 -1.7939
 2632TIP3   OH229386   4.644   5.298   3.335  0.1731 -0.1916 -0.5620
 2632TIP3    H129387   4.722   5.243   3.326  0.0798 -0.1399 -1.8178
 2632TIP3    H229388   4.586   5.248   3.392  1.7670  0.5097  1.8178
 2633TIP3   OH229389   3.495   3.249   3.658  0.4096 -0.1539  0.0041
 2633TIP3    H129390   3.520   3.161   3.630  1.2094 -0.5024  1.6791
 2633TIP3    H229391   3.578   3.292   3.680 -0.0788  0.4183  0.8234
 2634TIP3   OH229392   0.162   5.402   3.729 -0.0432 -0.2815  0.0491
 2634TIP3    H129393   0.211   5.460   3.671  2.3056 -0.8676  1.3019
 2634TIP3    H229394   0.169   5.316   3.688  0.4043 -0.4516  0.4780
 2635TIP3   OH229395   4.693   4.291  16.397 -0.3514  0.3418 -0.1574
 2635TIP3    H129396   4.650   4.301  16.482 -0.2384  0.8888 -0.1655
 2635TIP3    H229397   4.728   4.377  16.377  2.1954 -0.4242  0.6295
 2636TIP3   OH229398   6.819   5.264   5.820 -0.0123  0.0260  0.5210
 2636TIP3    H129399   6.731   5.230   5.801  0.4387 -1.0852  0.3498
 2636TIP3    H229400   6.805   5.330   5.888 -1.2997  1.8303 -1.3902
 2637TIP3   OH229401   4.295   3.834   2.936  0.2192  0.0045  0.1242
 2637TIP3    H129402   4.352   3.828   3.012  1.5734 -1.0693 -0.9056
 2637TIP3    H229403   4.292   3.744   2.902 -1.7002  0.1382 -0.1542
 2638TIP3   OH229404   2.015   0.543   2.967  0.3018 -0.5965  0.6321
 2638TIP3    H129405   2.013   0.574   3.057  1.7813  0.8013  0.2177
 2638TIP3    H229406   2.079   0.472   2.967  0.6526 -0.2827  0.5996
 2639TIP3   OH229407   1.893   5.404  10.262  0.2260 -0.0528  0.4041
 2639TIP3    H129408   1.878   5.416  10.356  0.4857 -3.0295  0.9413
 2639TIP3    H229409   1.987   5.420  10.251  0.4293 -0.8493  0.9025
 2640TIP3   OH229410   6.045   4.206  14.743  0.0105 -0.1967  0.3901
 2640TIP3    H129411   6.101   4.129  14.752  2.1350  0.8318 -2.6058
 2640TIP3    H229412   5.995   4.190  14.663  1.2100  1.8603 -0.8494
 2641TIP3   OH229413   3.210   1.925   4.465  0.3495 -0.6903  0.2287
 2641TIP3    H129414   3.238   1.946   4.376 -0.3642 -0.7205 -0.0072
 2641TIP3    H229415   3.186   1.832   4.462 -1.8569 -0.1692 -0.1464
 2642TIP3   OH229416   4.866   2.783  11.596  0.1058  0.4688 -0.3584
 2642TIP3    H129417   4.851   2.770  11.503  0.9256  0.9447 -0.5693
 2642TIP3    H229418   4.885   2.695  11.629  1.2599  0.4783 -0.9337
 2643TIP3   OH229419   6.490   3.465   1.238  0.0968  0.2406 -0.1740
 2643TIP3    H129420   6.420   3.510   1.191 -0.5559  0.2622  0.8005
 2643TIP3    H229421   6.477   3.372   1.216 -0.3627  0.2230  0.1460
 2644TIP3   OH229422   6.562   5.898   0.694  0.3179 -0.3656 -0.0813
 2644TIP3    H129423   6.591   5.845   0.620  0.2168  1.3847 -1.4491
 2644TIP3    H229424   6.470   5.872   0.707  0.1009 -0.1604 -1.0972
 2645TIP3   OH229425   5.761   2.997   4.221 -0.0747 -0.3322  0.3570
 2645TIP3    H129426   5.847   2.962   4.198 -0.7668 -1.4456 -0.6567
 2645TIP3    H229427   5.699   2.936   4.180 -1.3485  1.8626 -1.2097
 2646TIP3   OH229428   0.509   0.772  14.571  0.5321  0.1531  0.7651
 2646TIP3    H129429   0.572   0.701  14.558  1.5857  1.2870 -0.6886
 2646TIP3    H229430   0.485   0.799  14.482 -2.0018 -0.1952  1.2756
 2647TIP3   OH229431   5.639   0.242  12.892 -0.3454 -0.1379 -0.3850
 2647TIP3    H129432   5.724   0.202  12.908 -0.8713 -0.3162  2.3997
 2647TIP3    H229433   5.576   0.171  12.900 -0.8864  0.2507 -1.0224
 2648TIP3   OH229434   6.564   2.542  15.152  0.3447 -0.3082 -0.1287
 2648TIP3    H129435   6.653   2.509  15.144 -0.2822 -2.5127  1.1367
 2648TIP3    H229436   6.526   2.529  15.065  0.9245 -0.3183 -0.3898
 2649TIP3   OH229437   3.846   0.808  15.245  0.1718 -0.1320 -0.5321
 2649TIP3    H129438   3.860   0.819  15.339  0.2761 -1.7903 -0.3300
 2649TIP3    H229439   3.863   0.715  15.229 -1.8466 -0.3444 -1.8319
 2650TIP3   OH229440   6.814   0.131   6.609 -0.3036  0.3243  0.0943
 2650TIP3    H129441   6.893   0.095   6.569  0.6133  1.1499  1.0754
 2650TIP3    H229442   6.831   0.226   6.613 -1.3986  0.5257  0.2162
 2651TIP3   OH229443   1.959   3.380   5.633 -0.3710 -0.2932  0.2991
 2651TIP3    H129444   1.867   3.357   5.618 -0.0572 -1.5136  0.1424
 2651TIP3    H229445   1.975   3.356   5.724 -0.0040 -0.8555  0.0947
 2652TIP3   OH229446   0.919   1.137  16.633  0.4236 -0.3112  0.4051
 2652TIP3    H129447   0.830   1.164  16.654  0.9136  1.0652  0.8280
 2652TIP3    H229448   0.912   1.044  16.611 -0.7087 -0.9180  3.0035
 2653TIP3   OH229449   5.353   6.081   3.099  0.3256 -0.6034 -0.7957
 2653TIP3    H129450   5.340   6.026   3.177  1.9369 -1.0873 -0.8196
 2653TIP3    H229451   5.448   6.097   3.097  0.2820 -0.3819 -2.5055
 2654TIP3   OH229452   0.081   2.384  14.309 -0.5620  0.3453 -0.9588
 2654TIP3    H129453  -0.007   2.363  14.278 -0.6413  0.3015 -0.7029
 2654TIP3    H229454   0.100   2.470  14.272 -0.2076 -0.1967 -2.0784
 2655TIP3   OH229455   1.968   1.186  15.985 -0.0794  0.3607 -0.3716
 2655TIP3    H129456   2.028   1.176  15.911  1.9288  0.3056  1.1451
 2655TIP3    H229457   1.941   1.277  15.982  0.0611  0.3843 -1.1147
 2656TIP3   OH229458   4.458   5.827  12.929 -0.1548 -0.3422  0.1046
 2656TIP3    H129459   4.507   5.896  12.974 -0.1047 -0.5720  0.4040
 2656TIP3    H229460   4.461   5.852  12.836 -2.7378  1.7230  0.4675
 2657TIP3   OH229461   2.825   6.627   3.911  0.7324  0.0990 -0.7227
 2657TIP3    H129462   2.814   6.533   3.897  0.1387 -0.6275  3.2984
 2657TIP3    H229463   2.918   6.642   3.896  1.0036 -1.3407 -0.6914
 2658TIP3   OH229464   0.731   5.855  17.007  0.0121 -0.2030 -0.2491
 2658TIP3    H129465   0.673   5.802  17.062 -0.2615  0.6654  0.3345
 2658TIP3    H229466   0.813   5.806  17.005 -0.9045 -1.8021 -1.6648
 2659TIP3   OH229467   1.532   0.400   6.748  0.3990  0.6766 -0.3536
 2659TIP3    H129468   1.462   0.336   6.737  0.3639  0.7067 -0.3076
 2659TIP3    H229469   1.590   0.361   6.814  1.6460 -0.3890 -2.0112
 2660TIP3   OH229470   4.707   4.016   4.775  0.0882 -0.4277  0.3485
 2660TIP3    H129471   4.678   4.106   4.793  0.5548 -0.0231 -0.8385
 2660TIP3    H229472   4.625   3.967   4.760 -0.2063 -0.3783  1.6829
 2661TIP3   OH229473   1.605   6.118   3.165 -0.3437 -0.2322 -0.6078
 2661TIP3    H129474   1.616   6.023   3.168 -0.1088 -0.2979 -2.3129
 2661TIP3    H229475   1.593   6.144   3.256  0.2264 -1.8207 -0.0417
 2662TIP3   OH229476   2.039   6.661   4.358 -0.3592  0.4407  0.4136
 2662TIP3    H129477   1.946   6.658   4.334 -0.1854  0.3435 -0.2769
 2662TIP3    H229478   2.060   6.572   4.384 -0.4000  0.4061  0.3294
 2663TIP3   OH229479   2.070   0.052   1.782 -0.1669  0.2567 -0.2956
 2663TIP3    H129480   2.111   0.138   1.786 -0.0439  0.1591  0.7868
 2663TIP3    H229481   2.086   0.022   1.692 -0.3156  1.3990 -0.7200
 2664TIP3   OH229482   3.823   3.042   5.847  0.5013  0.3467 -0.1585
 2664TIP3    H129483   3.918   3.054   5.842  0.7555 -1.3396 -0.0314
 2664TIP3    H229484   3.809   2.994   5.929 -0.1826 -1.5614 -1.3228
 2665TIP3   OH229485   5.683   3.968  16.216  0.2508  0.1639 -0.9749
 2665TIP3    H129486   5.757   3.976  16.155  0.3113  1.9631 -0.7161
 2665TIP3    H229487   5.623   4.038  16.189 -0.9888 -0.7680 -0.6699
 2666TIP3   OH229488   0.839   0.023   3.355 -0.0765  0.0628 -0.5003
 2666TIP3    H129489   0.907   0.007   3.420  0.6625  1.8378 -0.7879
 2666TIP3    H229490   0.886   0.051   3.277 -1.1357  1.6487 -0.6050
 2667TIP3   OH229491   1.768   6.497   0.269 -0.4382  0.1690  0.2228
 2667TIP3    H129492   1.820   6.546   0.333  1.9651 -0.9835 -0.7341
 2667TIP3    H229493   1.788   6.538   0.185  0.3498 -1.3887 -0.3851
 2668TIP3   OH229494   5.693   2.786   3.623 -0.4634  0.8347  0.0399
 2668TIP3    H129495   5.715   2.864   3.573  2.7406  1.5623  2.2735
 2668TIP3    H229496   5.740   2.715   3.579  1.0204  1.1928  0.9629
 2669TIP3   OH229497   2.108   6.605  16.233  0.2176  0.3203 -0.1418
 2669TIP3    H129498   2.171   6.544  16.269  1.0550  0.7425 -0.8539
 2669TIP3    H229499   2.054   6.553  16.174  0.3676  0.1090 -0.0916
 2670TIP3   OH229500   0.562   3.410  16.754 -0.3296 -0.1082  0.1179
 2670TIP3    H129501   0.537   3.330  16.801 -0.8200  0.3053  0.5636
 2670TIP3    H229502   0.497   3.475  16.780  0.1454  0.4805 -0.1413
 2671TIP3   OH229503   1.333   2.097   5.214  0.5995  0.3101 -0.2172
 2671TIP3    H129504   1.299   2.180   5.180  0.2772  0.2260 -0.1099
 2671TIP3    H229505   1.255   2.049   5.241  0.7280 -0.3322 -0.9554
 2672TIP3   OH229506   6.564   3.028   4.271 -0.2602  0.4662 -0.2980
 2672TIP3    H129507   6.636   3.000   4.215  0.3125  0.5051  0.4021
 2672TIP3    H229508   6.606   3.080   4.340 -1.0816  1.4500 -0.5065
 2673TIP3   OH229509   2.182   0.475   1.996  0.5000  0.0010  0.1595
 2673TIP3    H129510   2.162   0.429   2.078 -0.4932 -0.9281 -0.5604
 2673TIP3    H229511   2.230   0.553   2.022  1.3474 -0.9446  1.5220
 2674TIP3   OH229512   6.499   1.562  17.036 -0.0061  0.4928  0.0383
 2674TIP3    H129513   6.511   1.599  17.123  0.8204  2.3150 -0.8147
 2674TIP3    H229514   6.587   1.536  17.008 -0.0271  1.2968 -0.8274
 2675TIP3   OH229515   0.684   5.907  14.926 -0.3857 -0.0733 -0.3629
 2675TIP3    H129516   0.697   5.813  14.915  0.0098  0.0173 -0.7360
 2675TIP3    H229517   0.749   5.932  14.992  0.5520  0.1825 -1.3594
 2676TIP3   OH229518   0.029   6.557  13.274 -0.4340  0.5727  0.6266
 2676TIP3    H129519  -0.023   6.539  13.196  1.2475 -0.4693 -0.3026
 2676TIP3    H229520   0.119   6.537  13.249  0.3020  1.2423  2.5185
 2677TIP3   OH229521   1.075   0.780  16.286 -0.1128 -0.6483 -0.1137
 2677TIP3    H129522   1.161   0.739  16.296  0.3757  0.5329  0.7628
 2677TIP3    H229523   1.085   0.837  16.210 -0.6503 -1.7457 -1.0412
 2678TIP3   OH229524   4.970   2.175  16.419 -0.2598  0.1020  0.3653
 2678TIP3    H129525   4.908   2.224  16.473  1.1573  1.6854  0.6480
 2678TIP3    H229526   4.963   2.213  16.332  0.1214  0.1160  0.3366
 2679TIP3   OH229527   5.528   6.246   2.354 -0.2864  0.7137 -0.0170
 2679TIP3    H129528   5.594   6.285   2.298  0.3041  0.9460  0.8101
 2679TIP3    H229529   5.449   6.297   2.339 -0.0173  1.0373 -0.3213
 2680TIP3   OH229530   3.182   2.915  11.703  0.1017  0.4601  0.1841
 2680TIP3    H129531   3.104   2.930  11.650  0.2081 -1.0426 -0.4609
 2680TIP3    H229532   3.157   2.944  11.791 -1.9920 -1.8930  0.4952
 2681TIP3   OH229533   6.178   5.551   0.867  0.5295 -0.3840  0.4473
 2681TIP3    H129534   6.220   5.581   0.948  0.7289  0.6946 -0.0273
 2681TIP3    H229535   6.094   5.597   0.866  1.5457  1.6006 -1.1223
 2682TIP3   OH229536   4.584   6.338  12.614 -0.1779  0.0798  0.0042
 2682TIP3    H129537   4.623   6.290  12.540 -0.0074 -0.5907  0.5216
 2682TIP3    H229538   4.558   6.270  12.676 -1.3897  0.5711  0.0623
 2683TIP3   OH229539   2.175   2.635   6.091 -0.3168 -0.6211 -0.0524
 2683TIP3    H129540   2.141   2.547   6.107 -0.3241 -0.9599 -1.7500
 2683TIP3    H229541   2.224   2.657   6.171 -2.1247 -1.2528  1.2757
 2684TIP3   OH229542   1.434   0.248  16.755  0.1195  0.1519 -0.2769
 2684TIP3    H129543   1.411   0.163  16.717  1.7519 -0.3238 -0.2670
 2684TIP3    H229544   1.366   0.264  16.821  0.2570 -1.5711  0.3365
 2685TIP3   OH229545   5.969   1.952  13.499 -0.6647 -0.2424 -0.1258
 2685TIP3    H129546   5.882   1.914  13.484 -0.9083  0.7011 -1.2120
 2685TIP3    H229547   6.009   1.955  13.412  0.5951 -0.9695  0.4097
 2686TIP3   OH229548   0.488   0.252   0.737 -0.6105 -0.0933  0.1341
 2686TIP3    H129549   0.520   0.290   0.819 -0.1673  2.4394 -1.0970
 2686TIP3    H229550   0.567   0.228   0.688 -0.8827 -2.5669  0.7851
 2687TIP3   OH229551   3.165   2.931  15.848 -0.0495 -0.2616 -0.6358
 2687TIP3    H129552   3.141   2.842  15.823 -0.5442 -0.0392 -0.9588
 2687TIP3    H229553   3.132   2.986  15.777 -1.3468  0.3744  0.4066
 2688TIP3   OH229554   6.740   5.699  13.981  0.0370  0.1843 -0.4251
 2688TIP3    H129555   6.719   5.686  13.888  0.1033 -2.2159 -0.1694
 2688TIP3    H229556   6.818   5.646  13.996 -1.3314 -1.4324  1.4861
 2689TIP3   OH229557   0.388   4.278   1.259  0.2549 -0.0168 -0.1305
 2689TIP3    H129558   0.294   4.264   1.253  0.2244  0.6663 -2.3806
 2689TIP3    H229559   0.403   4.360   1.212  1.8185  0.7342  1.5540
 2690TIP3   OH229560   1.967   4.318   5.657  0.3343 -0.2804 -0.3291
 2690TIP3    H129561   1.880   4.342   5.687  0.6758  2.8468 -1.5310
 2690TIP3    H229562   1.961   4.223   5.642 -2.1722 -0.5339  1.6123
 2691TIP3   OH229563   2.896   5.928   0.120  0.1741  0.2226 -0.0260
 2691TIP3    H129564   2.954   5.880   0.062 -0.1011 -0.6907  0.4442
 2691TIP3    H229565   2.890   5.875   0.199  0.4684  1.3995  0.8184
 2692TIP3   OH229566   1.155   6.059   5.820 -0.4313  0.0722 -0.3279
 2692TIP3    H129567   1.077   6.052   5.875 -0.1302 -0.0857  0.0805
 2692TIP3    H229568   1.127   6.023   5.735 -0.1246 -2.3159  0.5164
 2693TIP3   OH229569   5.531   5.552   0.494  0.6799 -0.0827  0.7542
 2693TIP3    H129570   5.578   5.501   0.560 -0.4018 -0.6476  1.0990
 2693TIP3    H229571   5.536   5.498   0.415 -1.5332 -1.3954  1.4224
 2694TIP3   OH229572   4.090   6.728  10.562 -0.3318 -0.0519  0.0837
 2694TIP3    H129573   4.090   6.633  10.553  0.4907 -0.0067 -0.4503
 2694TIP3    H229574   4.177   6.750  10.594 -0.3573  0.5642 -0.2522
 2695TIP3   OH229575   6.220   6.625  12.529  0.1354 -0.4717  0.6500
 2695TIP3    H129576   6.309   6.603  12.556  0.5858 -0.7220 -0.9772
 2695TIP3    H229577   6.181   6.542  12.502 -0.1126 -0.1560  0.0111
 2696TIP3   OH229578   2.646   0.155  13.349  0.1153  0.9078 -0.2504
 2696TIP3    H129579   2.710   0.216  13.385 -1.3741  0.6911  3.1420
 2696TIP3    H229580   2.688   0.069  13.355 -0.0659  0.8879  1.0246
 2697TIP3   OH229581   0.057   3.468  13.313 -0.3031  0.4480  0.3278
 2697TIP3    H129582   0.134   3.523  13.305  0.5524 -0.7849 -0.3097
 2697TIP3    H229583   0.005   3.487  13.235  1.7851 -2.2268 -1.9037
 2698TIP3   OH229584   6.610   4.317   3.237 -0.3456 -0.0024 -0.1497
 2698TIP3    H129585   6.579   4.240   3.284  0.7254 -0.9797 -1.0012
 2698TIP3    H229586   6.675   4.356   3.295 -0.8079  0.2156  0.2323
 2699TIP3   OH229587   4.090   2.774  17.257 -0.1208  0.2154 -0.1412
 2699TIP3    H129588   4.056   2.765  17.168  0.0201  0.4001 -0.2136
 2699TIP3    H229589   4.139   2.692  17.271  0.8651  0.6941 -0.6792
 2700TIP3   OH229590   6.399   5.529   1.919 -0.4899 -0.2675  0.4526
 2700TIP3    H129591   6.392   5.443   1.959  0.6883 -0.1168  1.0390
 2700TIP3    H229592   6.493   5.547   1.918 -0.4631 -0.1401 -2.1419
 2701TIP3   OH229593   4.226   5.773  11.139 -0.2224 -0.0001  0.0811
 2701TIP3    H129594   4.202   5.709  11.072  0.1736  0.3918 -0.4425
 2701TIP3    H229595   4.168   5.848  11.124  0.5776  0.5164 -0.5075
 2702TIP3   OH229596   0.246   5.250  11.066 -0.6969 -0.6873  0.1427
 2702TIP3    H129597   0.264   5.204  10.984 -2.1600  1.6686 -1.6642
 2702TIP3    H229598   0.262   5.342  11.046 -0.7296 -0.0520  2.6692
 2703TIP3   OH229599   2.882   5.804   2.755 -0.2942  0.3045  0.4583
 2703TIP3    H129600   2.861   5.741   2.823 -1.0846  0.0463 -0.0188
 2703TIP3    H229601   2.877   5.755   2.673  2.9881 -0.0301  0.2975
 2704TIP3   OH229602   4.935   4.930   2.923  0.5127 -0.0053 -0.5333
 2704TIP3    H129603   4.958   4.985   2.848 -1.3663  1.1642 -0.3374
 2704TIP3    H229604   4.870   4.982   2.971 -0.1662 -1.7608  0.5329
 2705TIP3   OH229605   5.711   4.517   3.557  0.3523  0.3757 -0.0352
 2705TIP3    H129606   5.786   4.505   3.615 -0.4125  0.0290  0.9298
 2705TIP3    H229607   5.730   4.596   3.508  0.6248  1.2153  1.3714
 2706TIP3   OH229608   0.863   4.466   5.406  0.2936 -0.0923  0.1927
 2706TIP3    H129609   0.944   4.418   5.388  0.6634  0.0029  1.4478
 2706TIP3    H229610   0.888   4.533   5.470 -0.5202  0.7953 -0.3910
 2707TIP3   OH229611   2.191   5.984  12.300 -0.3139 -0.3417  0.3767
 2707TIP3    H129612   2.209   6.077  12.289 -0.2557 -0.1231  2.0987
 2707TIP3    H229613   2.115   5.967  12.245 -0.0865  0.6174 -0.2616
 2708TIP3   OH229614   2.398   4.344  14.717 -0.1057 -0.0995 -0.2323
 2708TIP3    H129615   2.407   4.259  14.760  1.1963  0.0556 -0.1552
 2708TIP3    H229616   2.305   4.351  14.697 -0.2185 -1.6017 -0.3590
 2709TIP3   OH229617   2.459   1.637   1.206  0.6609 -0.3308 -0.5980
 2709TIP3    H129618   2.439   1.580   1.279  2.4501 -1.6331 -1.0486
 2709TIP3    H229619   2.375   1.676   1.182 -0.0002  0.0635  2.0275
 2710TIP3   OH229620   0.395   0.868   0.844 -0.2150 -0.1951 -0.2301
 2710TIP3    H129621   0.328   0.846   0.779 -1.8626 -1.4063  1.7466
 2710TIP3    H229622   0.355   0.938   0.896  0.3750 -0.3613  0.4593
 2711TIP3   OH229623   6.679   4.441   4.075 -0.1528  0.0972 -0.8635
 2711TIP3    H129624   6.622   4.499   4.024 -1.2071  0.2560  0.4134
 2711TIP3    H229625   6.687   4.485   4.160 -0.3522 -1.2532 -0.1223
 2712TIP3   OH229626   3.436   1.646  15.423  0.3791  0.1497  0.3863
 2712TIP3    H129627   3.474   1.638  15.510  2.1668  0.1255 -0.3533
 2712TIP3    H229628   3.500   1.605  15.365 -1.7476 -1.7666 -0.7389
 2713TIP3   OH229629   5.928   4.100  16.621 -0.0121 -0.5527 -0.2525
 2713TIP3    H129630   5.850   4.130  16.668  0.0840  1.3904 -1.2509
 2713TIP3    H229631   5.971   4.180  16.592  0.3480 -1.6460 -3.0083
 2714TIP3   OH229632   5.668   5.343   3.064  0.0230  0.3446 -0.3501
 2714TIP3    H129633   5.684   5.438   3.064  1.4778  0.1195 -0.8593
 2714TIP3    H229634   5.713   5.312   3.143  0.7113 -0.0928 -0.9093
 2715TIP3   OH229635   4.188   5.510   2.202  0.2590  0.3838  0.5415
 2715TIP3    H129636   4.193   5.416   2.222 -0.5330  0.2056 -0.0660
 2715TIP3    H229637   4.237   5.520   2.121 -1.1980  0.1671 -0.4034
 2716TIP3   OH229638   0.045   1.055   0.730 -0.2807 -0.1828 -0.1135
 2716TIP3    H129639   0.020   1.147   0.717  0.1543 -0.1046 -0.4113
 2716TIP3    H229640   0.098   1.056   0.809 -0.2767 -0.1770 -0.1162
 2717TIP3   OH229641   3.664   1.146   4.732 -0.1405 -0.4405 -0.9268
 2717TIP3    H129642   3.574   1.117   4.745 -0.1199 -0.0524  0.2580
 2717TIP3    H229643   3.695   1.169   4.820  1.0700 -0.4332 -1.3298
 2718TIP3   OH229644   3.015   2.299  13.782 -0.1185  0.3053  0.8282
 2718TIP3    H129645   3.064   2.270  13.859  2.3620 -3.5660 -1.8052
 2718TIP3    H229646   2.970   2.221  13.751 -1.5378  1.8566 -1.3184
 2719TIP3   OH229647   6.447   1.642   1.573 -0.7289 -0.1103 -0.7499
 2719TIP3    H129648   6.506   1.717   1.568 -1.5435  0.9783  2.6448
 2719TIP3    H229649   6.456   1.598   1.489  1.7970  2.2754 -1.8949
 2720TIP3   OH229650   6.228   4.991   3.044 -0.0218  0.6739  0.5108
 2720TIP3    H129651   6.196   5.076   3.074 -0.9406  0.6621 -0.3816
 2720TIP3    H229652   6.241   5.001   2.950 -0.7193 -0.3212  0.2832
 2721TIP3   OH229653   0.145   6.097   5.120 -0.1711 -0.1698  0.0041
 2721TIP3    H129654   0.169   6.169   5.180 -0.5901  0.9013 -1.0797
 2721TIP3    H229655   0.197   6.023   5.150  0.2001  0.5572  1.2218
 2722TIP3   OH229656   1.216   5.606   5.494  0.1288  0.3688 -0.2951
 2722TIP3    H129657   1.179   5.563   5.571  0.0228  0.9380 -0.0195
 2722TIP3    H229658   1.157   5.680   5.477 -1.9414 -1.7227 -3.0813
 2723TIP3   OH229659   1.417   1.595   2.842 -0.0189 -0.0735 -0.8517
 2723TIP3    H129660   1.441   1.538   2.915  0.1220  1.0051 -0.0238
 2723TIP3    H229661   1.480   1.574   2.773  0.3626 -0.5373 -0.3711
 2724TIP3   OH229662   3.982   4.141  16.621  0.4029  0.0369  0.1573
 2724TIP3    H129663   3.903   4.102  16.659  0.4410  2.1007  2.6545
 2724TIP3    H229664   4.049   4.073  16.629 -0.1279 -0.3362  1.9535
 2725TIP3   OH229665   5.498   3.219  13.286 -0.1453  0.0972  0.7108
 2725TIP3    H129666   5.586   3.254  13.302 -0.7185  2.6672 -1.1024
 2725TIP3    H229667   5.512   3.127  13.265  2.8020  1.2469 -3.8657
 2726TIP3   OH229668   0.747   1.476  12.553 -0.0262 -0.1014  0.2527
 2726TIP3    H129669   0.823   1.433  12.592  0.4753  0.9057  0.4326
 2726TIP3    H229670   0.688   1.405  12.530  0.1593 -0.8053  1.8114
 2727TIP3   OH229671   2.383   6.648   3.432 -0.1693  0.1402 -0.4653
 2727TIP3    H129672   2.378   6.664   3.338  0.2365  0.4510 -0.4388
 2727TIP3    H229673   2.349   6.728   3.472  0.4847  0.3659 -0.3444
 2728TIP3   OH229674   0.448   2.859   5.647  0.2900 -0.1372 -0.3619
 2728TIP3    H129675   0.385   2.926   5.619 -0.4801 -0.6835  0.0112
 2728TIP3    H229676   0.506   2.905   5.707 -0.4043  0.1409  0.1138
 2729TIP3   OH229677   2.702   1.709   3.349 -0.0992 -0.4666 -0.0486
 2729TIP3    H129678   2.660   1.685   3.267  0.1215  0.9775 -0.6154
 2729TIP3    H229679   2.635   1.758   3.397  0.1899 -0.1646  0.0532
 2730TIP3   OH229680   5.175   2.554   2.661  0.1619  0.2605  0.2059
 2730TIP3    H129681   5.150   2.529   2.750  0.3709 -0.1635  0.1468
 2730TIP3    H229682   5.100   2.605   2.629 -0.2333 -0.2112  0.3629
 2731TIP3   OH229683   0.781   6.626   4.277  0.4729 -0.7899 -0.0768
 2731TIP3    H129684   0.713   6.661   4.219  0.2581 -4.0376 -2.0478
 2731TIP3    H229685   0.750   6.648   4.365 -2.4797 -0.9557 -0.9406
 2732TIP3   OH229686   2.145   6.160  11.593 -0.1622  0.1508  0.8105
 2732TIP3    H129687   2.184   6.167  11.506 -3.8846 -1.1710 -1.1704
 2732TIP3    H229688   2.128   6.250  11.620  0.3306  0.5487 -0.1742
 2733TIP3   OH229689   0.276   0.290   5.251 -0.0117  0.4476  1.0594
 2733TIP3    H129690   0.197   0.239   5.270  0.6347 -1.4890 -1.0394
 2733TIP3    H229691   0.256   0.335   5.169  1.6395 -1.5397 -0.5150
 2734TIP3   OH229692   3.607   1.902  14.521 -0.0572  0.5333  0.1492
 2734TIP3    H129693   3.631   1.898  14.428 -0.2530  0.6004  0.0967
 2734TIP3    H229694   3.533   1.842  14.530 -0.6480  1.2390  0.0760
 2735TIP3   OH229695   3.094   1.243  17.207 -0.0276  0.5476  0.1404
 2735TIP3    H129696   3.003   1.252  17.181  0.5619  4.2858 -1.3177
 2735TIP3    H229697   3.114   1.150  17.196 -2.9715  0.0292 -1.8871
 2736TIP3   OH229698   5.961   0.758  13.977 -0.1966  0.5167 -0.5779
 2736TIP3    H129699   5.883   0.805  13.948 -0.6923 -0.0976 -0.2844
 2736TIP3    H229700   5.933   0.713  14.057  0.2407 -0.3030 -0.8727
 2737TIP3   OH229701   6.466   2.525   0.393  0.0919  0.1943 -0.3530
 2737TIP3    H129702   6.418   2.443   0.403 -2.1270  1.1966 -1.8524
 2737TIP3    H229703   6.539   2.503   0.335  0.3509 -0.9879  0.3932
 2738TIP3   OH229704   3.009   0.925   4.053 -0.1030  0.4416  1.0697
 2738TIP3    H129705   2.960   0.874   3.988  3.2596  0.9827 -2.2217
 2738TIP3    H229706   3.011   1.014   4.017 -1.0096  1.6887  3.8105
 2739TIP3   OH229707   4.394   2.959  17.119  0.6494  0.0309 -0.2965
 2739TIP3    H129708   4.372   2.870  17.146 -0.2714 -0.1903 -1.6712
 2739TIP3    H229709   4.474   2.980  17.168  0.7586 -1.4600  0.2150
 2740TIP3   OH229710   3.349   3.118  15.504 -0.1447  0.4111  0.0581
 2740TIP3    H129711   3.413   3.092  15.570  1.0051  2.9083  0.0263
 2740TIP3    H229712   3.397   3.176  15.445 -1.6101 -0.3316 -1.9745
 2741TIP3   OH229713   3.909   3.926  11.095 -0.1649  0.5772 -0.2703
 2741TIP3    H129714   3.996   3.888  11.087  0.0785  0.7164  1.4639
 2741TIP3    H229715   3.901   3.983  11.019  1.1876  0.4483 -0.5340
 2742TIP3   OH229716   1.235   5.958  15.812 -0.3133  0.2822  0.6112
 2742TIP3    H129717   1.194   6.031  15.859 -1.2307  0.9023 -1.0620
 2742TIP3    H229718   1.328   5.978  15.813 -0.5354  1.4162  0.3414
 2743TIP3   OH229719   2.479   4.663   1.136  0.2401  0.3891  0.1569
 2743TIP3    H129720   2.549   4.631   1.080  0.0628 -1.9259  1.1813
 2743TIP3    H229721   2.498   4.627   1.223 -0.2059  2.7953  1.3434
 2744TIP3   OH229722   3.941   4.188   2.708  0.5749  0.3396 -0.1831
 2744TIP3    H129723   3.967   4.280   2.718  0.2874  0.5094 -0.9548
 2744TIP3    H229724   4.014   4.147   2.662  0.5068  0.2836 -0.2416
 2745TIP3   OH229725   3.267   3.905   2.910  0.1078  0.4752 -0.2625
 2745TIP3    H129726   3.292   3.814   2.927 -0.9053  0.6426  2.6762
 2745TIP3    H229727   3.346   3.946   2.876  0.6598 -1.4091 -1.3988
 2746TIP3   OH229728   5.247   0.832  13.267  0.2456 -0.3826 -0.2291
 2746TIP3    H129729   5.177   0.800  13.209  0.7091 -1.4914 -0.1952
 2746TIP3    H229730   5.296   0.753  13.291  0.7286  0.2118  0.7937
 2747TIP3   OH229731   6.434   5.038  15.387  0.5809 -0.4508 -0.4216
 2747TIP3    H129732   6.501   5.003  15.447  1.7949 -2.8666 -2.9827
 2747TIP3    H229733   6.461   5.129  15.372  1.3699 -0.3950  1.0820
 2748TIP3   OH229734   5.510   0.280   5.428  0.0755  0.3834 -0.0299
 2748TIP3    H129735   5.553   0.344   5.484  0.7341 -0.2115  0.1575
 2748TIP3    H229736   5.440   0.329   5.386 -0.8718  0.7039  1.8054
 2749TIP3   OH229737   4.002   4.468  13.168 -0.3240 -0.2321 -0.2049
 2749TIP3    H129738   3.940   4.395  13.170 -0.5422 -0.1703 -2.1525
 2749TIP3    H229739   3.947   4.546  13.166 -0.1038 -0.0273  1.0471
 2750TIP3   OH229740   4.593   0.413   3.597  0.1339 -0.3418 -0.6707
 2750TIP3    H129741   4.570   0.320   3.590 -0.6081 -0.3081  1.0088
 2750TIP3    H229742   4.682   0.413   3.632 -0.3957 -0.4517  0.7564
 2751TIP3   OH229743   2.192   2.067   2.318  0.1579 -0.6487 -0.0612
 2751TIP3    H129744   2.229   2.155   2.308  2.0528 -1.3691  0.2041
 2751TIP3    H229745   2.157   2.046   2.231 -0.9471  0.5946  0.0476
 2752TIP3   OH229746   0.406   0.180   3.907 -0.2241 -0.0034 -0.2956
 2752TIP3    H129747   0.475   0.121   3.877  1.0346  0.7203  1.0177
 2752TIP3    H229748   0.453   0.259   3.935 -1.5352  0.3489  1.0329
 2753TIP3   OH229749   3.034   2.939   0.612  0.2303 -0.0044 -0.0153
 2753TIP3    H129750   2.964   2.975   0.559 -0.0109 -1.0526 -0.4294
 2753TIP3    H229751   3.088   2.889   0.550  1.7955  1.4171  0.1477
 2754TIP3   OH229752   2.256   3.845   4.797  0.6220 -0.0170  0.1725
 2754TIP3    H129753   2.296   3.909   4.738 -0.1820  1.2219  0.9099
 2754TIP3    H229754   2.190   3.895   4.844  0.3143 -1.2987  1.1527
 2755TIP3   OH229755   6.645   0.208   1.299  0.1626 -0.2220  0.5616
 2755TIP3    H129756   6.728   0.253   1.284 -1.0044  2.9727  2.7800
 2755TIP3    H229757   6.655   0.167   1.384 -0.2827 -0.5003  0.4843
 2756TIP3   OH229758   3.047   4.941   0.863 -0.4064  0.0620 -0.5022
 2756TIP3    H129759   3.134   4.905   0.877 -0.1121  0.8595 -0.2296
 2756TIP3    H229760   2.989   4.865   0.863  0.3253 -0.5072 -1.0291
 2757TIP3   OH229761   0.050   0.344   1.780 -0.2044  0.4904  0.3386
 2757TIP3    H129762   0.061   0.254   1.749 -0.6486  0.0592  1.4011
 2757TIP3    H229763  -0.004   0.385   1.712  2.1513  0.7465 -1.5035
 2758TIP3   OH229764   2.994   5.069   6.035 -0.0401 -0.3892 -0.3108
 2758TIP3    H129765   2.906   5.075   6.072 -0.9503  0.8208 -2.4422
 2758TIP3    H229766   3.004   5.150   5.984  3.1490  0.4967  1.4599
 2759TIP3   OH229767   3.889   6.654   3.415 -0.4048  0.1577 -0.6442
 2759TIP3    H129768   3.892   6.668   3.321 -3.0071 -1.4661 -1.0772
 2759TIP3    H229769   3.829   6.722   3.447 -0.7365 -0.2447 -0.4058
 2760TIP3   OH229770   5.323   2.174  11.684  0.3910  0.4191 -0.1858
 2760TIP3    H129771   5.355   2.215  11.604  0.9004 -0.1230 -0.2642
 2760TIP3    H229772   5.330   2.242  11.751 -0.1246  0.9028 -0.6120
 2761TIP3   OH229773   0.811   3.491  11.889  0.3057  0.1754  0.0895
 2761TIP3    H129774   0.745   3.507  11.821 -0.2973 -1.1163  0.3458
 2761TIP3    H229775   0.767   3.513  11.971 -0.0519 -1.3029  0.3173
 2762TIP3   OH229776   6.318   4.123  14.418 -0.2820 -0.1250  0.2639
 2762TIP3    H129777   6.322   4.041  14.369 -1.6229 -0.9571  1.4642
 2762TIP3    H229778   6.388   4.114  14.484 -0.1919 -0.1439  0.1663
 2763TIP3   OH229779   4.965   4.357   2.259  0.2889  0.1375 -0.1855
 2763TIP3    H129780   4.911   4.412   2.316  1.2847  0.4880  0.4410
 2763TIP3    H229781   4.949   4.268   2.290 -0.0852  0.2146 -0.1477
 2764TIP3   OH229782   5.020   3.571   4.632  0.2825  0.2341  0.3228
 2764TIP3    H129783   5.047   3.633   4.564 -1.0725  0.7667  0.2470
 2764TIP3    H229784   5.026   3.485   4.590  1.2037  0.3847  0.1187
 2765TIP3   OH229785   5.838   6.544  10.570  0.1976  0.1127  0.2377
 2765TIP3    H129786   5.767   6.548  10.505 -1.1976  1.4964  1.7597
 2765TIP3    H229787   5.888   6.624  10.555  1.4500 -0.8120 -0.7649
 2766TIP3   OH229788   3.071   1.623   0.044 -0.2001  0.0681  0.3508
 2766TIP3    H129789   3.066   1.669   0.128  0.0168 -0.1539  0.4865
 2766TIP3    H229790   3.102   1.535   0.066 -1.6134 -0.4881  0.2101
 2767TIP3   OH229791   6.765   2.090   1.551 -0.2551 -0.2332 -0.6491
 2767TIP3    H129792   6.861   2.089   1.557 -0.1957  0.3033 -1.3990
 2767TIP3    H229793   6.735   2.113   1.639  0.3591  1.1207 -0.7690
 2768TIP3   OH229794   6.270   3.529  11.403 -0.1653 -0.1434 -0.0035
 2768TIP3    H129795   6.266   3.502  11.495  0.0275  2.5920  0.8935
 2768TIP3    H229796   6.179   3.544  11.378 -0.1535  0.0167  0.0476
 2769TIP3   OH229797   4.250   0.557   0.262  0.3684 -0.0116  0.0267
 2769TIP3    H129798   4.290   0.474   0.235  0.0327 -0.0928 -0.2340
 2769TIP3    H229799   4.295   0.623   0.209  0.4550 -0.0560  0.0440
 2770TIP3   OH229800   5.863   2.738   1.215  0.4836 -0.0090 -0.3171
 2770TIP3    H129801   5.804   2.801   1.255  1.1284 -0.5858  1.6847
 2770TIP3    H229802   5.910   2.788   1.148  0.9144  1.6564  1.1442
 2771TIP3   OH229803   1.405   6.395  15.987 -0.8644 -0.0244  0.2129
 2771TIP3    H129804   1.369   6.314  15.952 -3.2404  0.9436  0.2339
 2771TIP3    H229805   1.363   6.465  15.936  0.3632  1.2375  0.8443
 2772TIP3   OH229806   1.507   4.594   5.804  0.7643 -0.1735  0.0411
 2772TIP3    H129807   1.528   4.511   5.761  0.7357  0.5605 -1.4534
 2772TIP3    H229808   1.589   4.643   5.803  0.6255  0.0626  0.3295
 2773TIP3   OH229809   1.980   3.357   4.868  0.1426 -0.2615 -0.0692
 2773TIP3    H129810   1.893   3.323   4.846  0.7054 -1.2175 -0.9279
 2773TIP3    H229811   1.971   3.394   4.955 -1.1018 -0.4382 -0.1121
 2774TIP3   OH229812   4.923   5.609   1.267 -0.6390  0.2044  0.3453
 2774TIP3    H129813   4.844   5.566   1.234 -0.7837  1.0742 -0.4860
 2774TIP3    H229814   4.983   5.537   1.286 -0.6298 -0.3867 -1.6467
 2775TIP3   OH229815   0.919   5.460  12.143 -0.2227  0.5508 -0.2573
 2775TIP3    H129816   0.896   5.367  12.137  1.6309 -0.0799  1.3970
 2775TIP3    H229817   0.836   5.505  12.153 -1.1102 -0.9981 -0.3658
 2776TIP3   OH229818   5.609   2.487   3.863  0.3172  0.6119  0.0048
 2776TIP3    H129819   5.685   2.429   3.866 -0.0248  0.1229 -0.5803
 2776TIP3    H229820   5.569   2.471   3.777  0.8862  2.5957 -0.6985
 2777TIP3   OH229821   1.947   5.188   4.042 -0.0487 -0.2265 -0.4766
 2777TIP3    H129822   1.958   5.242   4.120  0.2137  0.8860 -1.2585
 2777TIP3    H229823   2.014   5.120   4.050 -1.9852 -2.0471  1.7653
 2778TIP3   OH229824   0.564   3.505  16.077 -0.0057  0.1205 -0.3189
 2778TIP3    H129825   0.487   3.533  16.126  1.4666  0.7414  1.8069
 2778TIP3    H229826   0.624   3.580  16.082  0.6969 -0.3004 -2.0064
 2779TIP3   OH229827   4.134   2.333   5.283  0.0122  0.0471  0.0785
 2779TIP3    H129828   4.090   2.346   5.367 -0.3619 -0.5863 -0.0129
 2779TIP3    H229829   4.227   2.338   5.304 -0.0870  0.9121  0.3564
 2780TIP3   OH229830   5.387   6.233  14.015  0.1541 -0.3888 -0.1487
 2780TIP3    H129831   5.342   6.263  13.936 -1.6480 -2.2512  0.0824
 2780TIP3    H229832   5.316   6.212  14.076  1.4841  0.2193  1.6866
 2781TIP3   OH229833   2.208   6.000  13.771 -0.1253  0.3522  0.0596
 2781TIP3    H129834   2.180   6.091  13.773 -2.6777 -0.3494 -0.1661
 2781TIP3    H229835   2.151   5.959  13.706 -0.1008 -1.7139  1.2608
 2782TIP3   OH229836   6.477   2.100  13.890 -0.0989  0.2553  0.0497
 2782TIP3    H129837   6.383   2.101  13.909 -0.0026  1.0021  0.5431
 2782TIP3    H229838   6.494   2.184  13.847  0.4672  0.4837  0.6848
 2783TIP3   OH229839   4.829   0.543  14.891 -0.3799  0.6748 -0.2132
 2783TIP3    H129840   4.763   0.490  14.845  1.6272 -1.8843 -0.4224
 2783TIP3    H229841   4.898   0.556  14.826  1.3762 -0.7994  1.2460
 2784TIP3   OH229842   2.770   3.758   4.277  0.2506 -0.1636 -0.2730
 2784TIP3    H129843   2.740   3.779   4.189 -0.0708 -3.3892 -1.0409
 2784TIP3    H229844   2.690   3.736   4.325  0.5977 -0.1887  0.3054
 2785TIP3   OH229845   2.870   6.260   6.409  0.8026 -0.3413 -0.3770
 2785TIP3    H129846   2.952   6.300   6.380 -0.8318  2.3825 -1.5931
 2785TIP3    H229847   2.888   6.229   6.498  3.0640  0.3966 -0.5283
 2786TIP3   OH229848   3.151   3.396   3.323  0.0259  0.1296  0.3067
 2786TIP3    H129849   3.097   3.430   3.394 -1.0521 -0.4347 -0.2182
 2786TIP3    H229850   3.106   3.316   3.295 -0.1473  0.8631 -1.6682
 2787TIP3   OH229851   5.059   5.807   3.890 -0.0491 -0.1894  0.1817
 2787TIP3    H129852   5.138   5.796   3.943 -1.1207 -0.4311  1.8018
 2787TIP3    H229853   5.044   5.721   3.851  1.1942  0.1936 -1.2409
 2788TIP3   OH229854   2.935   0.383  15.926  0.0227 -0.1928 -0.0258
 2788TIP3    H129855   2.962   0.388  15.834 -2.0736  2.2858 -0.6314
 2788TIP3    H229856   2.979   0.456  15.968 -2.9085  1.9358 -0.3359
 2789TIP3   OH229857   0.396   6.019   0.863  0.5983 -0.0722 -0.2928
 2789TIP3    H129858   0.385   6.113   0.853  1.6822 -0.0867 -2.2214
 2789TIP3    H229859   0.311   5.988   0.895  0.3330  1.5653  0.7247
 2790TIP3   OH229860   3.037   6.755  16.268 -0.3459  0.3042  0.0483
 2790TIP3    H129861   2.972   6.805  16.317  0.3629  0.6409  0.6653
 2790TIP3    H229862   3.071   6.691  16.331  0.1570  0.3503 -0.1716
 2791TIP3   OH229863   5.688   0.898   3.653 -0.2446  0.2199 -0.0309
 2791TIP3    H129864   5.690   0.862   3.741 -0.0305 -0.5540 -0.3469
 2791TIP3    H229865   5.646   0.831   3.599  0.0934  0.4636 -0.6184
 2792TIP3   OH229866   4.250   1.513   0.288  0.2110 -0.3697  0.1239
 2792TIP3    H129867   4.327   1.558   0.255 -0.5416  0.5029 -0.4787
 2792TIP3    H229868   4.277   1.421   0.295  1.2415 -0.1022 -0.2312
 2793TIP3   OH229869   3.401   4.781   5.084 -0.7641  0.9569  0.0258
 2793TIP3    H129870   3.347   4.845   5.037 -0.1112  1.1028 -0.5332
 2793TIP3    H229871   3.485   4.825   5.097  0.2138 -0.2699 -1.6774
 2794TIP3   OH229872   0.242   2.843   2.595 -0.3758 -0.0625 -0.9000
 2794TIP3    H129873   0.289   2.798   2.524  1.0861 -1.4121  0.8404
 2794TIP3    H229874   0.151   2.817   2.583 -0.1351 -0.4257 -2.1583
 2795TIP3   OH229875   6.360   6.095   1.808 -0.3949  0.1172  0.3662
 2795TIP3    H129876   6.276   6.115   1.848  0.3283  0.3769  1.7921
 2795TIP3    H229877   6.407   6.045   1.874  2.1700  3.4305  1.3048
 2796TIP3   OH229878   4.346   1.455  14.494  0.3873 -0.1805  0.0873
 2796TIP3    H129879   4.252   1.470  14.492  0.5678  1.1272  0.6661
 2796TIP3    H229880   4.358   1.371  14.448 -0.9471  0.1310 -0.8851
 2797TIP3   OH229881   6.354   4.026  15.358  1.3588 -0.3486 -0.2115
 2797TIP3    H129882   6.282   4.084  15.335 -0.8662 -2.4008  1.1213
 2797TIP3    H229883   6.320   3.938  15.343  3.2009 -1.4372  1.4773
 2798TIP3   OH229884   1.175   6.296   2.905 -0.4413  0.0729  0.4866
 2798TIP3    H129885   1.143   6.208   2.923 -0.1685 -0.1598 -0.1462
 2798TIP3    H229886   1.117   6.329   2.837 -0.7917  0.5347  1.0065
 2799TIP3   OH229887   4.695   4.385   0.364  0.0092 -0.1114  0.4224
 2799TIP3    H129888   4.768   4.435   0.402 -0.8472 -0.0838  2.1274
 2799TIP3    H229889   4.620   4.407   0.420 -1.1410 -0.7158 -0.8505
 2800TIP3   OH229890   5.843   3.546  11.882  0.0569  0.1269 -1.1459
 2800TIP3    H129891   5.926   3.577  11.847  0.4230  0.4092 -0.0785
 2800TIP3    H229892   5.816   3.475  11.824  1.9310 -1.1845 -0.4730
 2801TIP3   OH229893   0.271   2.278   3.066  0.1167  0.7012  0.2534
 2801TIP3    H129894   0.269   2.194   3.112  0.4722  0.5694  0.0269
 2801TIP3    H229895   0.363   2.293   3.045 -0.1047  0.4774 -0.9420
 2802TIP3   OH229896   0.042   3.957   3.481  1.0763 -0.2249 -0.6644
 2802TIP3    H129897   0.076   3.987   3.397 -0.5455  1.5884 -0.7645
 2802TIP3    H229898  -0.050   3.935   3.463  0.1075  2.0856  0.9234
 2803TIP3   OH229899   1.584   5.143  16.446  0.5771  0.5840 -0.3341
 2803TIP3    H129900   1.635   5.221  16.420  0.0304  0.7423 -0.9552
 2803TIP3    H229901   1.649   5.085  16.485  0.4706  2.8617  3.7822
 2804TIP3   OH229902   5.283   3.338   0.010 -0.3427  0.4305  0.4410
 2804TIP3    H129903   5.216   3.352   0.077 -0.3774 -0.5138  0.6135
 2804TIP3    H229904   5.351   3.288   0.055  0.2567  0.9524  0.1317
 2805TIP3   OH229905   4.268   4.112  10.856  0.1113  0.3733 -0.4125
 2805TIP3    H129906   4.235   4.112  10.945 -1.9930 -0.3409 -1.1390
 2805TIP3    H229907   4.313   4.028  10.847  0.7172  0.6359  0.0836
 2806TIP3   OH229908   5.143   3.104   5.465 -0.5674  0.4674 -0.0969
 2806TIP3    H129909   5.209   3.171   5.452 -1.5076  1.3612 -0.4036
 2806TIP3    H229910   5.070   3.131   5.410 -0.9477 -0.8435 -0.2758
 2807TIP3   OH229911   2.159   3.914  10.703 -0.2646 -0.2115  0.3317
 2807TIP3    H129912   2.196   3.985  10.754  0.2426 -0.2644  0.0481
 2807TIP3    H229913   2.183   3.934  10.612 -2.9137  0.9757 -0.1857
 2808TIP3   OH229914   0.446   6.248  12.344  0.4933  0.5266 -0.1477
 2808TIP3    H129915   0.395   6.306  12.402  0.2985  0.3474 -0.1396
 2808TIP3    H229916   0.479   6.180  12.402 -1.0713 -0.5942 -0.4966
 2809TIP3   OH229917   0.183   1.183  14.973 -0.2288  0.1896 -0.5787
 2809TIP3    H129918   0.235   1.112  15.012  0.6102  1.1981  0.1950
 2809TIP3    H229919   0.169   1.245  15.044 -0.2957  1.1749 -1.4232
 2810TIP3   OH229920   5.804   3.259  10.489 -0.6758  0.0618  0.4275
 2810TIP3    H129921   5.888   3.218  10.471 -0.6851  0.4976 -0.6986
 2810TIP3    H229922   5.755   3.194  10.539 -1.3609 -2.0859 -2.7865
 2811TIP3   OH229923   4.511   2.351   2.013 -0.3852 -0.3795 -0.8324
 2811TIP3    H129924   4.501   2.445   2.030  2.2928  0.2230 -1.9315
 2811TIP3    H229925   4.520   2.345   1.917  0.2554 -1.6333 -0.7131
 2812TIP3   OH229926   1.262   2.245   4.003 -0.2093  0.0100 -0.3857
 2812TIP3    H129927   1.208   2.238   3.924 -0.2063  0.4745 -0.4315
 2812TIP3    H229928   1.348   2.213   3.976 -0.0586  0.6835 -0.7262
 2813TIP3   OH229929   4.660   6.117  11.595  0.5652  0.4225  0.3658
 2813TIP3    H129930   4.636   6.048  11.656 -0.4255  0.7911  0.4050
 2813TIP3    H229931   4.685   6.071  11.514  2.1283 -0.0816  1.0885
 2814TIP3   OH229932   4.019   6.306  12.394  0.0524  0.2587 -0.8638
 2814TIP3    H129933   3.970   6.376  12.437  1.2789  0.2355  0.6282
 2814TIP3    H229934   3.952   6.251  12.354 -1.1330  0.5096  0.6874
 2815TIP3   OH229935   3.326   4.612  10.932 -0.4991  0.0037 -0.7880
 2815TIP3    H129936   3.235   4.623  10.958 -0.4338  1.0265 -0.9531
 2815TIP3    H229937   3.376   4.637  11.009 -0.3421  0.5152 -1.0551
 2816TIP3   OH229938   1.386   1.368   0.549 -0.1640  0.3537 -0.3796
 2816TIP3    H129939   1.481   1.366   0.538 -0.2363 -0.6325 -0.8984
 2816TIP3    H229940   1.372   1.335   0.637  0.0316  1.6808  0.1682
 2817TIP3   OH229941   2.863   3.561  12.447  0.3739  0.0794 -0.1395
 2817TIP3    H129942   2.909   3.587  12.367  0.2540  0.7243 -0.0060
 2817TIP3    H229943   2.918   3.493  12.485  1.2700  0.8849  0.0485
 2818TIP3   OH229944   0.439   2.621  14.198 -0.1561 -0.1861  0.2693
 2818TIP3    H129945   0.457   2.570  14.276  1.7484  0.1124  0.0814
 2818TIP3    H229946   0.457   2.711  14.223  0.6796 -0.1071 -0.5353
 2819TIP3   OH229947   0.198   1.351   0.395 -0.1226  0.9708 -0.5099
 2819TIP3    H129948   0.259   1.302   0.340  0.3629  0.2767  0.6157
 2819TIP3    H229949   0.220   1.443   0.380  0.7462  0.7472 -0.6295
 2820TIP3   OH229950   1.683   0.030   4.916  0.0195 -0.2473  0.3420
 2820TIP3    H129951   1.758   0.029   4.857 -0.0134  1.1823  0.2345
 2820TIP3    H229952   1.609   0.056   4.861 -0.2784 -0.2564  0.7308
 2821TIP3   OH229953   1.890   3.384  12.603 -0.0788 -0.0124  0.1046
 2821TIP3    H129954   1.843   3.391  12.519  0.3711 -1.0251 -0.2565
 2821TIP3    H229955   1.889   3.472  12.639 -1.3222  0.2092 -0.4005
 2822TIP3   OH229956   1.278   0.409   1.811  0.4378 -0.2350  0.1779
 2822TIP3    H129957   1.253   0.449   1.894  0.4314  0.0889  0.0225
 2822TIP3    H229958   1.251   0.318   1.819  0.2714 -0.1619  0.4604
 2823TIP3   OH229959   5.660   1.944  13.184 -0.0788  0.1646  0.2030
 2823TIP3    H129960   5.721   2.004  13.143  0.2611 -0.7871 -0.7275
 2823TIP3    H229961   5.655   1.869  13.124 -0.7960 -0.5593  1.1245
 2824TIP3   OH229962   2.526   0.122   5.250  0.0091  0.4283 -0.0367
 2824TIP3    H129963   2.455   0.080   5.202 -1.9372  2.3622  0.9887
 2824TIP3    H229964   2.488   0.204   5.283  2.7128  1.5462  0.5920
 2825TIP3   OH229965   0.448   5.030  15.853 -0.6251  0.4019  0.2026
 2825TIP3    H129966   0.381   4.990  15.798 -0.1855  2.0083 -1.6055
 2825TIP3    H229967   0.531   5.010  15.809 -0.1592  0.8263  0.8653
 2826TIP3   OH229968   3.313   3.744   0.551 -0.0230  0.2253 -0.0485
 2826TIP3    H129969   3.250   3.718   0.483 -1.8644  0.6156  1.4254
 2826TIP3    H229970   3.319   3.669   0.609  0.0033  0.5825  0.4199
 2827TIP3   OH229971   1.960   5.778   0.402  0.4462 -0.1672 -1.0110
 2827TIP3    H129972   1.924   5.866   0.410 -0.3424 -0.4929 -0.9322
 2827TIP3    H229973   1.897   5.731   0.348 -1.3014 -1.8536  2.2736
 2828TIP3   OH229974   0.425   4.500   3.217 -0.1397  0.5263  0.8294
 2828TIP3    H129975   0.477   4.502   3.297 -0.8799  1.0475  1.3144
 2828TIP3    H229976   0.338   4.472   3.245  0.6691 -4.0641 -0.4859
 2829TIP3   OH229977   3.440   0.381  15.461  0.2811 -0.6828  0.2287
 2829TIP3    H129978   3.524   0.341  15.438  0.8808 -0.3759  1.7213
 2829TIP3    H229979   3.453   0.412  15.551 -1.5723 -0.9868  0.6274
 2830TIP3   OH229980   5.163   1.636   3.727  0.6137  0.5758 -0.0783
 2830TIP3    H129981   5.069   1.647   3.709  0.5888  0.0382 -0.3261
 2830TIP3    H229982   5.172   1.658   3.820  0.2469  0.6659 -0.0597
 2831TIP3   OH229983   1.690   1.207   6.659  0.6769  0.1334 -0.0564
 2831TIP3    H129984   1.750   1.282   6.651  0.5906  0.4802  2.0746
 2831TIP3    H229985   1.746   1.134   6.687  0.6988 -0.5522 -1.7736
 2832TIP3   OH229986   6.304   5.857  11.994  0.1838  0.1306 -0.1287
 2832TIP3    H129987   6.253   5.828  12.070 -1.3197  0.4400 -0.9918
 2832TIP3    H229988   6.383   5.803  11.997 -0.4329 -0.7591  0.9270
 2833TIP3   OH229989   0.449   4.924   4.467 -0.0093 -0.0491  0.4559
 2833TIP3    H129990   0.390   4.850   4.455 -0.9289  0.0876  3.3738
 2833TIP3    H229991   0.392   5.000   4.471  0.7626  0.6174 -0.5121
 2834TIP3   OH229992   5.077   0.559  15.586 -0.0489 -0.0643  0.0840
 2834TIP3    H129993   5.008   0.506  15.546  0.6586 -0.6182 -0.4320
 2834TIP3    H229994   5.078   0.531  15.678 -1.4324  0.9542  0.4457
 2835TIP3   OH229995   2.646   2.257  17.201  0.5048  0.8222 -0.1169
 2835TIP3    H129996   2.600   2.298  17.275 -1.5234  0.4639 -1.1096
 2835TIP3    H229997   2.633   2.318  17.128  0.9666  0.3202 -0.6254
 2836TIP3   OH229998   4.916   2.632  14.539  0.1541 -0.4740 -0.5467
 2836TIP3    H129999   4.987   2.660  14.597  0.8263  2.2423 -2.5225
 2836TIP3    H230000   4.845   2.694  14.557 -0.2597 -0.6885 -1.4050
 2837TIP3   OH230001   2.832   4.443  17.124  0.0831  0.2191 -0.1113
 2837TIP3    H130002   2.762   4.469  17.184 -0.6329  2.0420 -1.6223
 2837TIP3    H230003   2.810   4.353  17.098 -1.5702  0.6509 -0.3163
 2838TIP3   OH230004   6.668   2.899   4.596  0.4517  0.4703 -0.1733
 2838TIP3    H130005   6.725   2.968   4.630  1.3833  0.9626 -2.5451
 2838TIP3    H230006   6.581   2.924   4.625  0.8314  2.4025 -0.5399
 2839TIP3   OH230007   1.466   4.677  11.820 -0.4240 -0.4925 -0.1012
 2839TIP3    H130008   1.455   4.709  11.731 -1.3391  0.8526  0.4534
 2839TIP3    H230009   1.550   4.713  11.848 -0.8709  0.4455  0.0913
 2840TIP3   OH230010   4.933   1.849  12.318 -0.4442  0.6617  0.7231
 2840TIP3    H130011   4.888   1.864  12.401  1.2540  0.3310  1.7352
 2840TIP3    H230012   5.010   1.905  12.322  1.2424 -1.5154  0.7065
 2841TIP3   OH230013   4.188   1.118   0.465 -0.1051 -0.3091  0.0904
 2841TIP3    H130014   4.111   1.167   0.491  0.4082  0.7654 -0.3556
 2841TIP3    H230015   4.197   1.049   0.531 -0.8913  0.1413  0.6715
 2842TIP3   OH230016   4.677   4.878  15.189  0.4672  0.3824 -0.0642
 2842TIP3    H130017   4.667   4.882  15.284  0.0547 -0.1623 -0.0786
 2842TIP3    H230018   4.728   4.956  15.166  0.8880  0.3200  0.6426
 2843TIP3   OH230019   2.136   1.141   5.579 -0.5278  0.1589 -0.0553
 2843TIP3    H130020   2.198   1.109   5.514 -0.9965  0.9731 -0.9353
 2843TIP3    H230021   2.104   1.062   5.623  0.5855 -0.3134 -0.0776
 2844TIP3   OH230022   1.090   1.264   3.675 -0.4901 -0.1646  0.1384
 2844TIP3    H130023   1.026   1.292   3.741 -0.2136  0.2450  0.2344
 2844TIP3    H230024   1.077   1.323   3.602 -0.5472 -0.3900 -0.0349
 2845TIP3   OH230025   4.313   4.468   3.503  0.2515 -0.2607  0.3202
 2845TIP3    H130026   4.363   4.396   3.464  0.1937  0.4016 -1.0274
 2845TIP3    H230027   4.222   4.449   3.477  0.2344  0.2725 -0.0161
 2846TIP3   OH230028   4.788   3.119  12.848 -0.9393 -0.1278  1.0252
 2846TIP3    H130029   4.779   3.087  12.758 -0.7462  0.0710  0.9332
 2846TIP3    H230030   4.883   3.121  12.862 -0.9324  0.7425  0.9035
 2847TIP3   OH230031   0.956   3.399   2.590 -0.1152 -0.2363 -0.1234
 2847TIP3    H130032   0.914   3.415   2.506 -0.2120  2.4115  0.3295
 2847TIP3    H230033   0.892   3.347   2.639 -1.2001  0.4133 -0.8122
 2848TIP3   OH230034   4.514   3.768   5.776 -0.7900  0.2436  0.1830
 2848TIP3    H130035   4.518   3.767   5.681 -1.9596 -1.1952  0.0998
 2848TIP3    H230036   4.570   3.841   5.802  1.2059 -0.5780 -1.4968
 2849TIP3   OH230037   3.321   5.919  14.586  0.0720  0.2757  0.0288
 2849TIP3    H130038   3.304   5.973  14.509  1.4339 -1.7626 -1.8274
 2849TIP3    H230039   3.242   5.925  14.638 -2.0398 -0.3123 -2.8680
 2850TIP3   OH230040   0.304   6.561  12.334 -0.0948 -0.2470  0.5680
 2850TIP3    H130041   0.341   6.512  12.261 -1.1293  0.6738 -0.6104
 2850TIP3    H230042   0.367   6.632  12.350 -0.6478  0.5225 -0.5423
 2851TIP3   OH230043   3.818   1.818   1.304 -0.8787  0.6166  0.4151
 2851TIP3    H130044   3.878   1.884   1.267 -0.1562 -0.2387  0.0229
 2851TIP3    H230045   3.866   1.736   1.298 -2.0292 -0.0706  0.2584
 2852TIP3   OH230046   0.500   2.422   4.666 -0.0007  0.5526  0.8026
 2852TIP3    H130047   0.585   2.458   4.688  0.6664 -1.0557  1.0398
 2852TIP3    H230048   0.490   2.437   4.572 -0.3876  2.5283  1.1180
 2853TIP3   OH230049   0.530   1.444   1.777  0.1027 -0.4277 -0.1805
 2853TIP3    H130050   0.483   1.444   1.694 -1.7590 -1.6349  0.8030
 2853TIP3    H230051   0.597   1.513   1.767 -2.4088  2.0301 -1.3773
 2854TIP3   OH230052   6.411   4.222   1.142  0.8060  0.3069  0.0687
 2854TIP3    H130053   6.445   4.152   1.198 -2.3037 -1.0948  0.4510
 2854TIP3    H230054   6.377   4.287   1.203 -0.0990  0.0793 -0.1645
 2855TIP3   OH230055   1.811   3.200  16.099 -0.3695  0.0076  0.6064
 2855TIP3    H130056   1.889   3.144  16.100 -1.9021 -2.2567  2.1993
 2855TIP3    H230057   1.775   3.190  16.011  0.1518 -0.3686  0.4316
 2856TIP3   OH230058   1.989   6.740  14.898 -0.1317 -0.6927 -0.2176
 2856TIP3    H130059   1.974   6.710  14.988 -0.1075 -1.5584 -0.4923
 2856TIP3    H230060   1.901   6.758  14.864 -0.3412 -2.3821 -0.6815
 2857TIP3   OH230061   6.267   3.198   4.398  0.1017  0.0343  0.2762
 2857TIP3    H130062   6.184   3.171   4.439 -0.6997  0.3153 -1.0943
 2857TIP3    H230063   6.333   3.142   4.439 -0.5781  0.5893  2.2318
 2858TIP3   OH230064   4.408   4.678  13.980  0.1598 -0.3734 -0.0126
 2858TIP3    H130065   4.385   4.670  13.888 -1.5809 -2.8947  0.5361
 2858TIP3    H230066   4.435   4.589  14.005 -0.5493 -0.0300  2.1567
 2859TIP3   OH230067   2.139   5.112  13.718 -0.3127 -0.1036 -0.4323
 2859TIP3    H130068   2.211   5.056  13.748 -0.4503  0.6012  1.3073
 2859TIP3    H230069   2.136   5.098  13.623 -1.3540 -4.2585  0.0255
 2860TIP3   OH230070   4.673   4.779  12.216  0.1147  0.9073  0.0074
 2860TIP3    H130071   4.680   4.762  12.310 -0.2060 -0.6135 -0.2169
 2860TIP3    H230072   4.579   4.789  12.200 -0.1154 -1.4454 -0.5116
 2861TIP3   OH230073   1.272   4.955   2.247 -0.1741  0.5729 -0.0151
 2861TIP3    H130074   1.212   4.993   2.312 -0.3157  0.3839 -0.0329
 2861TIP3    H230075   1.260   5.008   2.169  1.1522  1.7967  0.5783
 2862TIP3   OH230076   1.000   1.457   6.288 -0.2025 -0.1126  0.1660
 2862TIP3    H130077   1.003   1.379   6.343  0.4963 -0.5621 -0.4969
 2862TIP3    H230078   1.084   1.500   6.301  0.7195 -1.1690 -1.8637
 2863TIP3   OH230079   4.956   0.390   0.090  0.4857  0.3206 -0.0938
 2863TIP3    H130080   5.000   0.426   0.166  0.2263 -0.5808  0.4989
 2863TIP3    H230081   4.873   0.438   0.085  1.5693  2.2277 -1.3844
 2864TIP3   OH230082   2.362   5.519   3.750 -0.3261 -0.5436 -0.3212
 2864TIP3    H130083   2.448   5.524   3.792 -0.5459 -1.1120  0.2123
 2864TIP3    H230084   2.345   5.425   3.740 -1.1837 -0.4683  0.2356
 2865TIP3   OH230085   4.010   0.956   0.792  0.2657  0.0357  0.7620
 2865TIP3    H130086   4.018   0.874   0.744 -0.2521  0.1895  0.4019
 2865TIP3    H230087   4.003   1.024   0.724 -0.7166  0.2286  1.0398
 2866TIP3   OH230088   0.596   3.394  12.247  0.0527  0.7908 -0.6227
 2866TIP3    H130089   0.569   3.336  12.176  0.5297  0.3540 -0.4512
 2866TIP3    H230090   0.659   3.343  12.298  0.2797  1.3635 -0.3132
 2867TIP3   OH230091   2.474   4.418  14.267  0.1177  0.0370  0.0679
 2867TIP3    H130092   2.511   4.473  14.336  0.2108  1.2912 -0.9520
 2867TIP3    H230093   2.516   4.448  14.186 -0.6664 -0.7710 -0.6720
 2868TIP3   OH230094   5.225   2.943   0.728  0.0249 -0.1542  0.1756
 2868TIP3    H130095   5.149   2.930   0.784  1.0223 -0.0100  1.6265
 2868TIP3    H230096   5.247   2.855   0.697 -1.2428 -0.0833 -0.9949
 2869TIP3   OH230097   3.596   4.714  14.713  0.1334  0.0887  0.0245
 2869TIP3    H130098   3.563   4.804  14.719  2.5985  1.2110 -1.5917
 2869TIP3    H230099   3.577   4.688  14.622  0.4494 -0.5960  0.1464
 2870TIP3   OH230100   5.252   1.444   4.953  0.1122 -0.2566 -0.2493
 2870TIP3    H130101   5.278   1.523   4.906  0.4946  0.0239  0.4161
 2870TIP3    H230102   5.334   1.397   4.969 -0.2238 -1.4892 -1.8158
 2871TIP3   OH230103   6.811   4.636  13.961  0.3174 -0.1652  0.3136
 2871TIP3    H130104   6.745   4.608  14.024  0.1533  0.0804  0.2526
 2871TIP3    H230105   6.836   4.556  13.915  0.9175 -0.4719  1.1296
 2872TIP3   OH230106   4.357   0.747  17.098 -0.4662  0.3614  0.0806
 2872TIP3    H130107   4.285   0.809  17.084  0.6136  1.3241 -1.5322
 2872TIP3    H230108   4.331   0.670  17.048 -1.4834 -0.2461  1.5055
 2873TIP3   OH230109   5.392   5.992   1.335  0.8155  0.3651 -0.3533
 2873TIP3    H130110   5.359   6.072   1.293 -0.4021 -0.0034 -0.1567
 2873TIP3    H230111   5.385   6.010   1.429 -2.6655 -1.0840 -0.1779
 2874TIP3   OH230112   1.267   1.782   4.784  0.4893  0.3400 -0.3507
 2874TIP3    H130113   1.245   1.739   4.701  2.3862 -0.2491 -0.5947
 2874TIP3    H230114   1.220   1.731   4.850  0.1553 -0.1201 -0.9245
 2875TIP3   OH230115   2.266   2.316   2.240  0.5357  0.4609  0.0010
 2875TIP3    H130116   2.340   2.361   2.279 -0.1314  1.4399  0.1901
 2875TIP3    H230117   2.209   2.387   2.209 -0.3183 -0.2608 -0.1242
 2876TIP3   OH230118   1.818   1.845  16.038  0.4056 -0.2280 -0.0286
 2876TIP3    H130119   1.866   1.926  16.054  1.6034 -1.2636  1.9859
 2876TIP3    H230120   1.884   1.786  16.002 -0.0425 -0.8170  0.1176
 2877TIP3   OH230121   5.073   6.613   3.858 -0.3611 -0.2337  0.2859
 2877TIP3    H130122   5.042   6.523   3.871 -1.0387 -0.3624 -1.8324
 2877TIP3    H230123   5.046   6.635   3.769  0.5404  1.7855  0.4576
 2878TIP3   OH230124   5.236   1.864   5.270  0.7927  1.1240 -0.4490
 2878TIP3    H130125   5.238   1.958   5.250 -0.4594  1.1986 -0.3299
 2878TIP3    H230126   5.172   1.857   5.341  1.5390  0.2734  0.1594
 2879TIP3   OH230127   6.009   2.903   4.154 -0.3877  0.2437  0.1548
 2879TIP3    H130128   6.093   2.934   4.121  0.6036 -0.7341  1.6244
 2879TIP3    H230129   5.977   2.844   4.086  1.4085 -1.4078  0.6424
 2880TIP3   OH230130   4.838   6.319  11.631 -0.1929 -0.0240  0.3549
 2880TIP3    H130131   4.776   6.247  11.630 -0.3414  0.1039 -0.0098
 2880TIP3    H230132   4.858   6.333  11.724 -1.5925  0.6874  0.5781
 2881TIP3   OH230133   1.592   6.122  12.308 -0.2406 -0.0411 -0.3476
 2881TIP3    H130134   1.582   6.187  12.378 -0.9226  0.2150 -0.6734
 2881TIP3    H230135   1.541   6.158  12.235  0.6345 -0.2024 -1.0545
 2882TIP3   OH230136   3.208   1.784   3.604  0.8557  0.9698  0.2370
 2882TIP3    H130137   3.137   1.767   3.541 -1.2615 -1.8709  3.0986
 2882TIP3    H230138   3.287   1.751   3.560 -0.3117  0.2740 -1.4566
 2883TIP3   OH230139   0.110   2.341  12.742  0.2129  0.2076 -0.3806
 2883TIP3    H130140   0.037   2.290  12.705 -0.8673  1.2723  0.2169
 2883TIP3    H230141   0.104   2.426  12.699  0.7764  0.4784  0.0715
 2884TIP3   OH230142   1.423   4.619  11.197  0.7225 -0.4555  0.1474
 2884TIP3    H130143   1.338   4.661  11.192  1.1087  0.5234  1.2794
 2884TIP3    H230144   1.468   4.663  11.269  1.6629 -1.9011  0.5034
 2885TIP3   OH230145   4.335   6.430   2.203 -0.1346  0.0985 -0.0419
 2885TIP3    H130146   4.378   6.372   2.141 -1.3565  1.1151 -1.9517
 2885TIP3    H230147   4.339   6.517   2.162 -0.2222  0.9946  1.7308
 2886TIP3   OH230148   3.500   3.145   5.505 -0.1743 -0.0578  0.5677
 2886TIP3    H130149   3.447   3.147   5.425 -0.8552  1.8726  1.0125
 2886TIP3    H230150   3.584   3.182   5.478  0.5725 -1.9284  0.1641
 2887TIP3   OH230151   5.321   5.413  10.458  0.0708  0.3607  0.1488
 2887TIP3    H130152   5.399   5.369  10.491  0.7595  1.4570  0.0444
 2887TIP3    H230153   5.347   5.445  10.371 -1.4227 -1.6994 -1.1370
 2888TIP3   OH230154   6.242   6.555   3.392 -0.6199 -0.3298  0.3521
 2888TIP3    H130155   6.216   6.643   3.366  0.5473 -0.1690 -0.3355
 2888TIP3    H230156   6.300   6.568   3.467 -0.0611 -0.4770 -0.0508
 2889TIP3   OH230157   5.940   3.376   1.924 -0.0563  0.3569 -0.1756
 2889TIP3    H130158   5.937   3.298   1.979  0.1293  0.0275 -0.6214
 2889TIP3    H230159   5.874   3.360   1.856  0.7572  0.0693 -0.9289
 2890TIP3   OH230160   4.992   3.343   2.795  0.0320  0.2969 -0.1174
 2890TIP3    H130161   4.991   3.255   2.758 -4.4856  0.2050 -0.3198
 2890TIP3    H230162   5.056   3.338   2.866  1.3416 -2.5296 -1.3420
 2891TIP3   OH230163   3.729   3.542   6.075 -0.1730 -0.4640 -0.5274
 2891TIP3    H130164   3.799   3.602   6.100 -1.2204  1.3629 -1.7322
 2891TIP3    H230165   3.707   3.496   6.156 -0.1268  1.6536  0.7685
 2892TIP3   OH230166   1.225   0.819  12.295 -0.2470 -0.0366  0.3947
 2892TIP3    H130167   1.317   0.820  12.320 -0.2627 -0.8506  0.5136
 2892TIP3    H230168   1.191   0.737  12.332 -1.4333  1.0566  1.8215
 2893TIP3   OH230169   3.686   1.313   4.461 -0.3293  0.0714  0.3813
 2893TIP3    H130170   3.755   1.266   4.414 -2.2225 -1.1815 -1.3097
 2893TIP3    H230171   3.661   1.254   4.532 -0.4662 -0.0282  0.2522
 2894TIP3   OH230172   6.098   1.947   4.831  0.1135  0.6002 -0.2108
 2894TIP3    H130173   6.059   1.954   4.918  1.3409 -0.2595  0.4336
 2894TIP3    H230174   6.034   1.898   4.779  0.3518 -0.9082  0.8630
 2895TIP3   OH230175   4.085   6.462   6.230  0.0620 -0.3861 -0.0180
 2895TIP3    H130176   4.002   6.427   6.264  1.3955 -3.1158  0.7116
 2895TIP3    H230177   4.096   6.418   6.145  1.0765 -0.5560  0.1981
 2896TIP3   OH230178   0.255   2.184  13.078 -1.0402  1.1362  0.9795
 2896TIP3    H130179   0.300   2.267  13.067 -0.7182  0.8983  0.4556
 2896TIP3    H230180   0.283   2.152  13.163  0.5142  0.5573  0.2781
 2897TIP3   OH230181   4.993   4.832  14.460 -0.4384  0.3944 -0.2245
 2897TIP3    H130182   5.017   4.851  14.369  0.1598  1.5576  0.1533
 2897TIP3    H230183   4.900   4.853  14.465 -0.6785 -0.5103 -0.7752
 2898TIP3   OH230184   2.381   2.775   1.327 -0.8836  0.4496  0.4437
 2898TIP3    H130185   2.470   2.742   1.328 -1.4197 -1.3527 -1.6151
 2898TIP3    H230186   2.354   2.776   1.419  0.2431 -2.0471  0.8907
 2899TIP3   OH230187   1.338   5.143  13.694 -0.3802  0.0588 -0.2193
 2899TIP3    H130188   1.395   5.197  13.749 -0.7542  1.3757 -1.0733
 2899TIP3    H230189   1.251   5.182  13.705 -0.8818 -1.0880  0.0173
 2900TIP3   OH230190   1.943   1.657   2.208  0.3340  0.1010  0.1305
 2900TIP3    H130191   1.938   1.695   2.120  0.6951 -1.0490 -0.4092
 2900TIP3    H230192   2.034   1.629   2.216  0.5146  0.9726  1.2160
 2901TIP3   OH230193   2.142   6.273   2.839  0.0866  0.8565  0.2424
 2901TIP3    H130194   2.161   6.182   2.862  0.8353  0.7333 -0.8435
 2901TIP3    H230195   2.192   6.324   2.903  1.0124  0.5101 -0.1863
 2902TIP3   OH230196   5.644   4.185   3.560  0.5565 -0.4890 -0.2117
 2902TIP3    H130197   5.585   4.249   3.600 -0.0039 -0.5263 -0.9733
 2902TIP3    H230198   5.595   4.103   3.560 -0.2064 -0.1119 -2.6242
 2903TIP3   OH230199   6.028   6.630  15.895 -0.0269  0.6919 -0.3085
 2903TIP3    H130200   6.099   6.692  15.911 -2.2464  3.2447  0.4704
 2903TIP3    H230201   5.968   6.677  15.837 -1.9362 -0.6095  0.5000
 2904TIP3   OH230202   3.783   0.662   3.383  0.5954 -0.6236 -0.1831
 2904TIP3    H130203   3.826   0.730   3.331 -1.6386  0.5225 -0.6789
 2904TIP3    H230204   3.741   0.605   3.318 -1.5647  0.3724  0.2584
 2905TIP3   OH230205   5.853   6.066  17.286  0.7822  0.0879 -0.3685
 2905TIP3    H130206   5.854   6.029  17.374  0.2238  0.3756 -0.2348
 2905TIP3    H230207   5.762   6.093  17.272  1.2616  1.9645 -0.2034
 2906TIP3   OH230208   0.968   2.761  11.496 -0.0183 -0.1737  0.2756
 2906TIP3    H130209   0.963   2.696  11.566  1.5967 -0.9076 -0.2411
 2906TIP3    H230210   0.937   2.714  11.418  1.6723 -0.5516 -0.2099
 2907TIP3   OH230211   5.885   1.327  12.270  0.1598  0.0351  0.4960
 2907TIP3    H130212   5.976   1.321  12.240  0.3855  1.4455  0.8588
 2907TIP3    H230213   5.848   1.240  12.250  0.9743  0.1141 -1.6073
 2908TIP3   OH230214   5.594   2.201  12.840  0.1991 -0.1867 -0.4177
 2908TIP3    H130215   5.637   2.250  12.769  1.2386  1.1552  1.0532
 2908TIP3    H230216   5.654   2.210  12.914 -2.0835  0.7652  1.4196
 2909TIP3   OH230217   2.918   3.657   0.672 -0.3757 -0.3454 -0.4332
 2909TIP3    H130218   2.869   3.634   0.594 -0.1342  1.1045 -1.0388
 2909TIP3    H230219   3.005   3.619   0.657 -0.2304  0.2042 -1.0352
 2910TIP3   OH230220   3.606   1.647  14.092 -0.3538 -0.5566 -0.2160
 2910TIP3    H130221   3.608   1.551  14.097  1.1600 -0.5938 -0.9756
 2910TIP3    H230222   3.597   1.666  13.999  3.0773 -0.0194 -0.5613
 2911TIP3   OH230223   5.116   5.424  13.469 -0.3633 -0.1424  0.2194
 2911TIP3    H130224   5.170   5.503  13.468 -0.4565  0.0219  2.6121
 2911TIP3    H230225   5.066   5.429  13.388 -0.8901  2.6581  0.5962
 2912TIP3   OH230226   0.698   5.917  15.952 -0.0501 -0.2162  0.4266
 2912TIP3    H130227   0.613   5.933  15.910 -0.8010  1.6603  2.4136
 2912TIP3    H230228   0.701   5.823  15.966 -0.9861 -0.5321 -1.2474
 2913TIP3   OH230229   6.010   5.852  11.209  0.1935 -0.3068 -0.1581
 2913TIP3    H130230   5.989   5.944  11.198 -0.3983 -0.7023 -3.5603
 2913TIP3    H230231   6.106   5.849  11.209  0.2135  0.3110  0.0836
 2914TIP3   OH230232   3.856   0.067  13.551  0.0715 -0.1759  0.4882
 2914TIP3    H130233   3.856   0.160  13.529  0.4003 -0.1844  0.4398
 2914TIP3    H230234   3.925   0.059  13.617 -1.5135  0.0153  2.2481
 2915TIP3   OH230235   2.531   5.862  12.159  0.2104 -0.1766 -0.3833
 2915TIP3    H130236   2.616   5.891  12.128 -0.3659  0.7703 -1.1266
 2915TIP3    H230237   2.540   5.767  12.168  1.0142 -0.2319 -1.5381
 2916TIP3   OH230238   5.933   3.644  16.565 -0.2551 -0.6725  0.3380
 2916TIP3    H130239   6.018   3.668  16.602 -0.3355 -0.3836  0.3367
 2916TIP3    H230240   5.938   3.672  16.473 -0.9570  0.8641  0.7490
 2917TIP3   OH230241   5.806   3.860  15.267  0.3420 -0.1513  0.3884
 2917TIP3    H130242   5.786   3.886  15.357 -0.4643  0.9515 -0.0806
 2917TIP3    H230243   5.735   3.898  15.215  2.2270  1.6231 -1.0530
 2918TIP3   OH230244   5.539   1.765  11.717 -0.2527  0.0950  0.9351
 2918TIP3    H130245   5.616   1.820  11.707  1.1179 -1.7098  0.9923
 2918TIP3    H230246   5.492   1.773  11.634  0.6790  0.2476  0.4085
 2919TIP3   OH230247   5.039   4.391  11.332 -0.0621 -0.0398 -0.0396
 2919TIP3    H130248   5.069   4.341  11.408 -1.8177 -0.6069  0.3401
 2919TIP3    H230249   4.967   4.445  11.366 -0.2399  0.4159 -1.0985
 2920TIP3   OH230250   1.775   5.330   2.795 -0.4463  0.1414 -0.0464
 2920TIP3    H130251   1.771   5.358   2.886  2.2351  0.4972  0.0277
 2920TIP3    H230252   1.863   5.355   2.766 -1.0983 -0.3184 -2.6201
 2921TIP3   OH230253   3.050   2.455  14.079 -0.5241 -0.0521  0.0697
 2921TIP3    H130254   3.105   2.376  14.078  1.3615  1.2072 -0.8664
 2921TIP3    H230255   3.075   2.502  14.000 -2.3948  0.9973  0.0649
 2922TIP3   OH230256   2.577   4.210   0.123 -0.0680  0.0699  0.2161
 2922TIP3    H130257   2.605   4.194   0.213  0.1464 -1.6170 -0.1052
 2922TIP3    H230258   2.628   4.148   0.071 -1.1116  0.1039 -0.9076
 2923TIP3   OH230259   1.047   2.595  10.839 -0.4746  0.7007 -0.9620
 2923TIP3    H130260   1.142   2.589  10.851 -0.3278  1.6979 -1.5434
 2923TIP3    H230261   1.013   2.514  10.878  0.5594  0.5876 -0.2524
 2924TIP3   OH230262   2.172   1.477  16.787 -0.1292 -0.7448  0.2939
 2924TIP3    H130263   2.205   1.387  16.784 -1.0380 -1.1004  0.6052
 2924TIP3    H230264   2.119   1.480  16.867  0.5462  0.3106  0.7357
 2925TIP3   OH230265   3.226   4.615  11.207 -0.3312  0.2419 -0.2707
 2925TIP3    H130266   3.168   4.581  11.275 -0.2967  0.4639 -0.1274
 2925TIP3    H230267   3.284   4.542  11.187 -0.4904  0.1019 -0.2266
 2926TIP3   OH230268   3.424   0.525   5.856 -0.3258 -0.0801  0.5143
 2926TIP3    H130269   3.459   0.605   5.817 -1.1581 -1.2415 -2.9779
 2926TIP3    H230270   3.334   0.549   5.882 -0.8070  0.0078 -1.1375
 2927TIP3   OH230271   0.443   0.335  13.498 -0.0283  0.0375 -0.1919
 2927TIP3    H130272   0.362   0.339  13.447  0.5058  0.5573 -1.0130
 2927TIP3    H230273   0.413   0.313  13.587 -1.0622  0.1448 -0.4918
 2928TIP3   OH230274   3.846   5.915  15.493  0.3279  0.0686 -0.0543
 2928TIP3    H130275   3.805   5.840  15.535 -2.8806  2.1800  0.9378
 2928TIP3    H230276   3.820   5.908  15.401  1.2026 -0.6747 -0.2677
 2929TIP3   OH230277   0.458   2.277  14.600 -0.6561 -0.0414 -0.1356
 2929TIP3    H130278   0.369   2.250  14.574  0.1087  0.2288 -3.5207
 2929TIP3    H230279   0.487   2.207  14.659 -2.3702 -1.2434 -0.6182
 2930TIP3   OH230280   4.984   0.441  14.214 -0.2230  0.4836 -0.7622
 2930TIP3    H130281   4.946   0.480  14.135 -1.3119 -2.0330 -1.6079
 2930TIP3    H230282   5.053   0.383  14.181  0.2096  0.3970  0.2708
 2931TIP3   OH230283   3.139   1.459  12.405 -0.3493 -0.7603 -0.1020
 2931TIP3    H130284   3.090   1.542  12.402 -1.1605 -1.2452 -0.9775
 2931TIP3    H230285   3.177   1.451  12.318  0.8378 -0.6796  0.3945
 2932TIP3   OH230286   2.648   1.420  12.831 -0.1568 -0.4092  0.1217
 2932TIP3    H130287   2.704   1.379  12.765 -0.6444  0.2457 -0.7105
 2932TIP3    H230288   2.612   1.347  12.881  2.3596 -0.8403  1.4879
 2933TIP3   OH230289   0.004   5.868  11.794  0.1171 -0.2843  0.1119
 2933TIP3    H130290   0.098   5.846  11.795 -0.0363 -0.9817 -0.1373
 2933TIP3    H230291  -0.008   5.916  11.713  0.5775  1.3378  0.9559
 2934TIP3   OH230292   2.449   2.428   0.038  0.1978  0.4746 -0.1762
 2934TIP3    H130293   2.493   2.425   0.123  1.2692 -1.4982 -0.7575
 2934TIP3    H230294   2.357   2.442   0.059  0.7762  2.9242  1.1429
 2935TIP3   OH230295   2.549   3.681   5.739  0.1195  0.6665  0.5363
 2935TIP3    H130296   2.551   3.605   5.798 -0.1060 -0.6421 -1.0778
 2935TIP3    H230297   2.475   3.663   5.680  0.1166  2.1210  0.0732
 2936TIP3   OH230298   5.573   0.154   2.455 -0.1822  0.4435 -0.8741
 2936TIP3    H130299   5.607   0.184   2.540 -0.1770 -2.8664  0.4510
 2936TIP3    H230300   5.479   0.146   2.468  0.0167 -1.7626 -0.5266
 2937TIP3   OH230301   4.551   3.158  14.163 -0.6652 -0.0632  0.7850
 2937TIP3    H130302   4.641   3.189  14.159  0.0031 -2.0059 -0.5071
 2937TIP3    H230303   4.499   3.231  14.127  0.5281  0.5477  0.2462
 2938TIP3   OH230304   2.818   5.783  16.161  0.5779  0.0481 -0.2744
 2938TIP3    H130305   2.878   5.841  16.207 -0.4302 -0.0436  1.2023
 2938TIP3    H230306   2.761   5.842  16.110  0.8878  0.2179 -0.4293
 2939TIP3   OH230307   3.590   5.709   3.449  0.4853  0.0416 -0.1697
 2939TIP3    H130308   3.559   5.748   3.368  0.4703  2.1473  0.7910
 2939TIP3    H230309   3.683   5.731   3.453  0.2678  0.8748  0.8407
 2940TIP3   OH230310   1.134   3.122   5.342  0.0752  0.4185  0.0902
 2940TIP3    H130311   1.097   3.068   5.412  0.7587  0.8427  0.7970
 2940TIP3    H230312   1.200   3.176   5.386  1.4038 -0.1830 -1.0748
 2941TIP3   OH230313   1.248   2.705   3.121 -0.8450 -0.0429 -0.4683
 2941TIP3    H130314   1.187   2.767   3.161 -0.6250  0.1260 -0.3903
 2941TIP3    H230315   1.203   2.620   3.126 -0.6299 -0.1125  0.5662
 2942TIP3   OH230316   0.078   5.775  11.312  0.8583  0.7786  0.3328
 2942TIP3    H130317   0.045   5.784  11.222  1.2583 -0.9254 -0.0154
 2942TIP3    H230318   0.025   5.837  11.363 -1.9976 -0.8753 -0.4186
 2943TIP3   OH230319   0.700   2.888  16.207 -0.2010 -0.3976  0.7730
 2943TIP3    H130320   0.651   2.811  16.177  3.2118 -1.5796 -2.4693
 2943TIP3    H230321   0.777   2.853  16.250  1.0405  1.1894 -0.0520
 2944TIP3   OH230322   3.181   0.465   1.061  0.2835 -0.0088 -0.5176
 2944TIP3    H130323   3.135   0.401   1.114 -1.2279 -0.0081 -1.7429
 2944TIP3    H230324   3.247   0.502   1.119 -0.7164 -0.6261  1.0723
 2945TIP3   OH230325   1.811   0.314   6.233 -0.6316  0.4171 -0.3514
 2945TIP3    H130326   1.753   0.273   6.169 -1.8650 -1.5833  1.8831
 2945TIP3    H230327   1.761   0.315   6.314  1.5879  0.8767  1.1004
 2946TIP3   OH230328   4.715   4.117   2.812 -0.4996 -0.3840  0.3761
 2946TIP3    H130329   4.769   4.132   2.889 -0.6139 -2.2857  0.8588
 2946TIP3    H230330   4.632   4.085   2.846 -0.2993 -1.9556 -0.5253
 2947TIP3   OH230331   2.517   2.417   2.313 -0.3825  0.4173  0.1660
 2947TIP3    H130332   2.549   2.348   2.371 -1.1642 -1.0051 -1.0325
 2947TIP3    H230333   2.565   2.404   2.231 -0.8867  0.9997 -0.2350
 2948TIP3   OH230334   4.070   4.255   5.337 -0.0599 -0.5267  0.0693
 2948TIP3    H130335   3.986   4.223   5.370 -0.8578  0.1669 -1.2491
 2948TIP3    H230336   4.132   4.233   5.407 -1.3031 -1.1264  1.0306
 2949TIP3   OH230337   6.550   4.223   2.073  0.1472  0.3889 -0.1390
 2949TIP3    H130338   6.565   4.307   2.029  0.1498  1.5376  1.9059
 2949TIP3    H230339   6.625   4.214   2.132 -0.3963 -0.5241  0.4219
 2950TIP3   OH230340   6.025   3.502   5.241 -0.0214 -0.5465 -0.3462
 2950TIP3    H130341   6.006   3.484   5.148  0.9347  0.0716 -0.6803
 2950TIP3    H230342   6.093   3.570   5.238  0.4569 -0.9586  0.8049
 2951TIP3   OH230343   4.038   1.021  13.680 -0.5851 -0.3642  0.3398
 2951TIP3    H130344   4.063   0.929  13.684 -2.3202 -0.8613  0.5152
 2951TIP3    H230345   3.943   1.020  13.670 -0.4881  1.3857 -1.3684
 2952TIP3   OH230346   4.232   4.658  12.340  0.7658 -0.0080 -0.1301
 2952TIP3    H130347   4.181   4.580  12.319  0.7361  0.4958 -2.1627
 2952TIP3    H230348   4.168   4.721  12.371  0.4139  0.0166 -0.8958
 2953TIP3   OH230349   5.310   6.565   4.907  0.2818 -0.4028  0.1660
 2953TIP3    H130350   5.267   6.650   4.901 -1.2409 -1.1003  0.8645
 2953TIP3    H230351   5.354   6.555   4.822  1.2639  1.4478  0.3981
 2954TIP3   OH230352   4.572   1.884   3.466 -0.3913  0.0260 -0.0788
 2954TIP3    H130353   4.484   1.864   3.498 -0.3579  0.4539  0.3007
 2954TIP3    H230354   4.615   1.925   3.541 -0.0147  0.2222 -0.4026
 2955TIP3   OH230355   1.090   3.687   0.188 -0.1315 -0.3242  0.2511
 2955TIP3    H130356   1.175   3.642   0.185 -0.6033 -1.3133  1.1320
 2955TIP3    H230357   1.053   3.662   0.272 -0.2596  2.0629  0.9815
 2956TIP3   OH230358   4.839   3.798  16.841 -0.8150  0.3790 -0.0422
 2956TIP3    H130359   4.907   3.851  16.883 -2.1200  1.2569  1.0432
 2956TIP3    H230360   4.794   3.755  16.913 -3.1107  1.9103 -0.4407
 2957TIP3   OH230361   4.024   0.508   5.237 -0.5282  0.5700  0.4937
 2957TIP3    H130362   4.001   0.558   5.159  2.8577 -0.3623 -1.2889
 2957TIP3    H230363   4.074   0.568   5.291 -0.5194  0.4325  0.6408
 2958TIP3   OH230364   4.493   4.385  12.705 -1.0925 -0.1129  0.0447
 2958TIP3    H130365   4.476   4.401  12.798 -2.2555 -0.9573 -0.0038
 2958TIP3    H230366   4.487   4.290  12.696 -0.1079 -0.1143 -0.7469
 2959TIP3   OH230367   4.976   1.097  13.331  0.8216 -0.2971  0.0437
 2959TIP3    H130368   4.948   1.021  13.383  3.7075 -1.2232  0.4905
 2959TIP3    H230369   4.906   1.111  13.268 -0.7967 -1.9589  1.3472
 2960TIP3   OH230370   5.979   3.024   1.604  0.5465  0.1367  0.3787
 2960TIP3    H130371   6.021   2.986   1.527 -0.8768  0.6302 -0.6786
 2960TIP3    H230372   5.958   3.113   1.578 -0.2023  0.2295  1.2543
 2961TIP3   OH230373   5.679   0.101  10.872  0.4073 -0.4674  0.1201
 2961TIP3    H130374   5.726   0.104  10.955 -0.2743  0.1609  0.4911
 2961TIP3    H230375   5.748   0.091  10.806  0.9187 -1.3674  0.7805
 2962TIP3   OH230376   6.708   2.455   3.573  0.4754 -0.0804 -0.1210
 2962TIP3    H130377   6.648   2.381   3.562  0.9080 -0.7017  1.4638
 2962TIP3    H230378   6.651   2.530   3.589  0.0492 -0.1651 -1.1686
 2963TIP3   OH230379   5.712   3.645   6.199 -0.2291  0.1634  0.5867
 2963TIP3    H130380   5.703   3.704   6.274 -1.2182  1.0186 -0.1763
 2963TIP3    H230381   5.791   3.674   6.155  1.3587 -1.4459  2.2025
 2964TIP3   OH230382   3.578   5.065  16.015  0.0292  0.0070 -0.4008
 2964TIP3    H130383   3.670   5.056  15.993  0.2830  0.4512  0.4270
 2964TIP3    H230384   3.578   5.109  16.100 -0.9145 -0.7613  0.0205
 2965TIP3   OH230385   3.417   3.671   2.944  0.4762  0.0760 -0.9030
 2965TIP3    H130386   3.414   3.647   3.037 -2.6046 -0.4557 -1.0287
 2965TIP3    H230387   3.461   3.597   2.901  0.1128 -0.6170 -0.1022
 2966TIP3   OH230388   0.362   5.247   4.158  0.0092 -0.4977 -0.3248
 2966TIP3    H130389   0.386   5.339   4.171 -0.7608 -0.2288 -0.7389
 2966TIP3    H230390   0.339   5.215   4.245  0.3532 -0.3185 -0.1678
 2967TIP3   OH230391   5.114   5.789   4.566 -1.0665 -0.0980 -0.1103
 2967TIP3    H130392   5.118   5.875   4.526  0.5056 -0.4801 -0.8452
 2967TIP3    H230393   5.148   5.802   4.655  1.2446 -0.2891 -0.9017
 2968TIP3   OH230394   2.285   4.488   0.170  0.5950 -0.0396 -0.0118
 2968TIP3    H130395   2.203   4.538   0.158  0.5256 -0.6284 -2.3999
 2968TIP3    H230396   2.258   4.410   0.219 -1.0890 -1.9469 -3.6153
 2969TIP3   OH230397   6.200   2.371  15.519 -1.1626 -0.2267 -0.2218
 2969TIP3    H130398   6.160   2.456  15.502 -1.3199 -0.0710  0.8877
 2969TIP3    H230399   6.274   2.390  15.577 -0.9601 -0.8016 -0.2841
 2970TIP3   OH230400   0.292   2.926   3.878  0.2489 -0.2915 -0.0610
 2970TIP3    H130401   0.321   3.001   3.929 -1.0281  0.7435 -0.7767
 2970TIP3    H230402   0.246   2.964   3.803  0.9770 -1.7768 -1.3283
 2971TIP3   OH230403   5.876   0.770   1.690  0.3699  0.3582  0.3010
 2971TIP3    H130404   5.853   0.853   1.647  3.1333  0.4756 -1.2098
 2971TIP3    H230405   5.819   0.705   1.649 -1.2081  1.3582  0.8473
 2972TIP3   OH230406   6.710   5.587  11.172  0.1902  0.7906  0.2381
 2972TIP3    H130407   6.739   5.513  11.224 -1.9057 -0.4404 -0.2137
 2972TIP3    H230408   6.627   5.614  11.212 -0.7230  0.7662 -1.5153
 2973TIP3   OH230409   1.000   3.957  11.645  0.0847  0.0606 -0.0565
 2973TIP3    H130410   1.020   3.890  11.711  0.0552  1.8563  1.8952
 2973TIP3    H230411   1.066   3.945  11.578  2.4408  0.3931  2.0682
 2974TIP3   OH230412   2.406   4.519  13.676  0.2304 -0.0717  0.1485
 2974TIP3    H130413   2.378   4.558  13.758 -0.9782 -0.0276 -0.2625
 2974TIP3    H230414   2.447   4.590  13.627  0.6340 -0.0182  0.5572
 2975TIP3   OH230415   3.086   0.673   5.069  0.2425  0.2103 -0.0397
 2975TIP3    H130416   2.998   0.706   5.085  0.3183 -0.2684  1.5903
 2975TIP3    H230417   3.144   0.744   5.100  0.3977 -0.6377  1.7411
 2976TIP3   OH230418   5.339   4.110   1.035 -0.0244 -0.6954  0.4731
 2976TIP3    H130419   5.327   4.134   1.127 -2.2460  0.0248  0.0497
 2976TIP3    H230420   5.424   4.148   1.012  0.0890  0.0290  1.9474
 2977TIP3   OH230421   5.227   6.098   0.533 -0.1317  0.1930 -0.3825
 2977TIP3    H130422   5.258   6.187   0.548  0.3672  0.0987 -0.8220
 2977TIP3    H230423   5.219   6.060   0.620  3.4621 -0.6102 -0.2465
 2978TIP3   OH230424   1.382   0.643   5.821  0.0483  0.2771 -0.4930
 2978TIP3    H130425   1.320   0.685   5.761 -0.8786  0.5511  0.6078
 2978TIP3    H230426   1.365   0.550   5.811 -1.1012  0.3697  0.3258
 2979TIP3   OH230427   2.388   3.928  14.308 -0.2525  0.1531 -0.0356
 2979TIP3    H130428   2.457   3.902  14.247 -1.5251 -0.1989 -1.3856
 2979TIP3    H230429   2.418   4.012  14.344  2.0449 -1.1753  1.3774
 2980TIP3   OH230430   4.499   0.035   4.363 -0.0815 -0.0954 -0.1710
 2980TIP3    H130431   4.512   0.129   4.360  0.3885 -0.1871 -1.6512
 2980TIP3    H230432   4.585  -0.002   4.344 -0.8134 -0.7653 -2.4748
 2981TIP3   OH230433   2.856   0.128   3.228  0.5710  0.4085  0.4350
 2981TIP3    H130434   2.936   0.085   3.199 -0.4940 -0.8818 -0.6973
 2981TIP3    H230435   2.848   0.205   3.172 -0.2858 -0.8480 -1.2314
 2982TIP3   OH230436   1.012   0.940   5.393  0.1003  0.6698 -0.8119
 2982TIP3    H130437   1.025   0.977   5.306  0.9909  1.0359 -0.5321
 2982TIP3    H230438   0.975   1.011   5.445  1.3212  1.0461 -0.4138
 2983TIP3   OH230439   3.780   5.480   1.972  0.8918  0.5628  0.2929
 2983TIP3    H130440   3.860   5.430   1.982  0.8867  0.3026 -0.8568
 2983TIP3    H230441   3.752   5.465   1.881  0.0511  1.3917  0.3869
 2984TIP3   OH230442   3.346   6.123   5.983 -0.0574  0.2262  0.3243
 2984TIP3    H130443   3.387   6.162   6.059 -0.3378  1.1827  0.0065
 2984TIP3    H230444   3.415   6.120   5.917 -0.6375  2.6934 -0.5165
 2985TIP3   OH230445   5.540   2.004   2.217 -0.0290 -0.0493  0.6368
 2985TIP3    H130446   5.595   2.078   2.193 -0.2290  0.4396  1.6461
 2985TIP3    H230447   5.452   2.041   2.227 -0.0895 -0.3666  1.3632
 2986TIP3   OH230448   5.178   3.784  12.458  0.3041  0.4552 -0.5228
 2986TIP3    H130449   5.120   3.848  12.498 -1.1752 -1.3640  0.4076
 2986TIP3    H230450   5.255   3.783  12.515 -0.6396 -0.1822  0.7896
 2987TIP3   OH230451   0.340   3.657   1.149  0.6494  0.2008 -0.3191
 2987TIP3    H130452   0.414   3.692   1.100 -0.1136  1.4736 -0.6206
 2987TIP3    H230453   0.264   3.672   1.093 -0.0998  0.7129  0.7778
 2988TIP3   OH230454   3.387   4.223   0.160 -0.5326  0.3321 -0.5374
 2988TIP3    H130455   3.317   4.256   0.216 -0.4039 -2.1195  1.2798
 2988TIP3    H230456   3.453   4.190   0.222  0.5113 -0.7575 -2.1540
 2989TIP3   OH230457   4.333   0.896   0.681  0.6129 -0.1152 -0.2285
 2989TIP3    H130458   4.418   0.868   0.645  1.2291  0.7868  0.4903
 2989TIP3    H230459   4.355   0.941   0.762 -0.4682  1.0847 -0.5669
 2990TIP3   OH230460   3.726   0.020   2.512 -0.8888  0.0161 -0.4047
 2990TIP3    H130461   3.802   0.015   2.454  0.1164 -0.3774  0.8987
 2990TIP3    H230462   3.682   0.101   2.485 -0.8214 -0.4813 -2.1213
 2991TIP3   OH230463   2.019   0.860  13.838  0.1319 -0.2769  0.3273
 2991TIP3    H130464   2.083   0.823  13.899  0.8711 -0.1951 -0.3846
 2991TIP3    H230465   2.033   0.955  13.844 -0.7898 -0.1772  1.0958
 2992TIP3   OH230466   4.346   5.282   5.043 -0.6408 -0.1181 -0.0243
 2992TIP3    H130467   4.374   5.199   5.080  0.2392 -0.2648 -0.9830
 2992TIP3    H230468   4.326   5.337   5.120 -1.1146 -1.1551  0.6104
 2993TIP3   OH230469   4.759   6.379   0.472 -0.6447  0.0572  0.0452
 2993TIP3    H130470   4.664   6.374   0.481 -0.7294 -1.6598 -1.4386
 2993TIP3    H230471   4.792   6.338   0.552 -1.0987  1.1027  0.8052
 2994TIP3   OH230472   2.365   3.236  16.203  0.5111 -0.0854 -0.7731
 2994TIP3    H130473   2.415   3.175  16.258 -0.5405  0.9222  1.3961
 2994TIP3    H230474   2.400   3.322  16.225  0.7956  0.2980 -2.5462
 2995TIP3   OH230475   5.333   0.287   3.697  0.4633 -0.2074 -0.7992
 2995TIP3    H130476   5.281   0.335   3.633 -0.4179 -0.1278 -0.0384
 2995TIP3    H230477   5.364   0.354   3.758 -0.3195 -0.5230 -0.0412
 2996TIP3   OH230478   1.810   1.138  14.617 -0.5276  0.6468 -0.4983
 2996TIP3    H130479   1.854   1.082  14.553 -0.6585  0.1500 -0.1566
 2996TIP3    H230480   1.784   1.216  14.566  0.6706  0.9295 -0.7204
 2997TIP3   OH230481   0.115   5.125   1.965  0.3717 -0.0585  0.2990
 2997TIP3    H130482   0.091   5.206   1.920  0.5731  0.1926  0.6461
 2997TIP3    H230483   0.116   5.059   1.895 -0.9520 -0.0121  0.2004
 2998TIP3   OH230484   1.237   5.174   3.230 -0.1091  0.5854  0.1552
 2998TIP3    H130485   1.259   5.114   3.159 -1.8693  1.6259 -1.3804
 2998TIP3    H230486   1.144   5.157   3.248  0.1119  0.8642  1.7014
 2999TIP3   OH230487   3.106   6.479  17.007  0.4632 -0.2602  0.2482
 2999TIP3    H130488   3.018   6.491  17.044  0.7666 -0.7225  1.1396
 2999TIP3    H230489   3.132   6.392  17.036  1.5387  0.1881  0.6613
 3000TIP3   OH230490   0.702   1.989  14.208  0.4965 -0.1648  0.6413
 3000TIP3    H130491   0.632   2.047  14.237 -0.4255 -1.5226  1.2542
 3000TIP3    H230492   0.778   2.015  14.260  0.6678  1.7255 -0.4513
 3001TIP3   OH230493   3.527   1.807   4.033  0.0093  0.4013  0.9413
 3001TIP3    H130494   3.499   1.885   3.985  1.2674  1.0210  1.1795
 3001TIP3    H230495   3.462   1.797   4.102 -0.5646  0.8119  0.4770
 3002TIP3   OH230496   5.892   5.070   2.867  0.1031  0.3139  0.3934
 3002TIP3    H130497   5.802   5.096   2.887 -0.3125  1.0059 -2.0402
 3002TIP3    H230498   5.929   5.144   2.819  0.9698 -1.1094 -1.2526
 3003TIP3   OH230499   3.750   4.711   6.087  0.0163 -0.1226 -0.0125
 3003TIP3    H130500   3.690   4.637   6.096 -0.4047  0.0926 -0.8991
 3003TIP3    H230501   3.816   4.698   6.155  0.6528 -1.9933 -0.9159
 3004TIP3   OH230502   3.488   5.391   5.733  0.1536 -0.3979  0.1731
 3004TIP3    H130503   3.500   5.477   5.692 -0.0708 -0.5846 -0.2920
 3004TIP3    H230504   3.557   5.337   5.694  0.3704 -0.3987  0.5567
 3005TIP3   OH230505   3.014   1.693  12.416  0.0917  0.2660  0.1350
 3005TIP3    H130506   2.979   1.741  12.491 -0.1006  0.7485 -0.2631
 3005TIP3    H230507   2.944   1.697  12.350  1.1140  1.8002 -0.9202
 3006TIP3   OH230508   1.483   2.864  14.965  0.1995  0.4050 -0.6738
 3006TIP3    H130509   1.446   2.781  14.996 -0.4914  0.9334 -0.0363
 3006TIP3    H230510   1.441   2.880  14.881 -0.0326  0.3514 -0.5677
 3007TIP3   OH230511   5.419   0.755   5.444 -0.0159  0.6868 -0.5252
 3007TIP3    H130512   5.390   0.705   5.521  0.1612  0.2034 -0.7671
 3007TIP3    H230513   5.342   0.805   5.418 -0.1033  0.7874 -0.0846
 3008TIP3   OH230514   6.053   0.993  14.215 -0.3340 -0.4414 -0.4047
 3008TIP3    H130515   6.085   0.943  14.289  0.6772  0.7689  0.0246
 3008TIP3    H230516   6.013   1.071  14.253  1.2839  0.8076 -1.0989
 3009TIP3   OH230517   5.252   4.364   0.853 -0.3817 -0.2217 -0.0114
 3009TIP3    H130518   5.298   4.427   0.797 -0.4033  1.2156  1.5042
 3009TIP3    H230519   5.297   4.369   0.937 -0.5059 -2.1402  0.2007
 3010TIP3   OH230520   3.916   6.436   5.610  0.1567 -0.5766  0.0854
 3010TIP3    H130521   4.006   6.407   5.627  0.4742  0.1404 -0.3104
 3010TIP3    H230522   3.904   6.512   5.667 -0.3116 -0.8552  0.3639
 3011TIP3   OH230523   5.479   1.853  16.000  0.1784 -0.0162  0.2824
 3011TIP3    H130524   5.557   1.798  15.993 -0.2588 -1.5986  4.4609
 3011TIP3    H230525   5.422   1.823  15.929  1.1506 -3.0431  0.6080
 3012TIP3   OH230526   3.555   4.608   3.578 -0.0221 -0.1687  0.1117
 3012TIP3    H130527   3.607   4.530   3.561  0.2956 -0.2727  1.4287
 3012TIP3    H230528   3.617   4.670   3.616 -0.1585  0.9346 -1.3593
 3013TIP3   OH230529   4.125   0.024  12.756  0.6110  0.3864  0.7008
 3013TIP3    H130530   4.211   0.060  12.733 -0.5012  3.7974  1.3211
 3013TIP3    H230531   4.140  -0.023  12.838  2.0198  0.3328  0.4377
 3014TIP3   OH230532   4.583   5.336   3.039 -1.2579 -0.1521 -0.5925
 3014TIP3    H130533   4.622   5.414   3.001 -2.2911  0.4159 -0.5318
 3014TIP3    H230534   4.596   5.345   3.133  1.5721 -1.7061 -0.7308
 3015TIP3   OH230535   6.137   1.724  10.858 -0.0153 -0.1316  0.4491
 3015TIP3    H130536   6.223   1.759  10.836  0.3039 -0.3648  1.2682
 3015TIP3    H230537   6.113   1.670  10.784 -0.9331  2.4672 -1.2911
 3016TIP3   OH230538   1.719   6.159   1.045  0.0202 -0.0429  0.0687
 3016TIP3    H130539   1.807   6.147   1.008 -0.2956  0.1510 -0.7599
 3016TIP3    H230540   1.707   6.083   1.103  1.0496  0.3548  0.8355
 3017TIP3   OH230541   1.925   2.282   4.544  0.1129 -0.2381  0.1669
 3017TIP3    H130542   1.929   2.330   4.626 -0.5202  0.4788 -0.2107
 3017TIP3    H230543   1.845   2.313   4.501  0.1333 -1.0143 -0.4647
 3018TIP3   OH230544   3.038   1.382   7.009 -0.4271  0.0281 -0.1179
 3018TIP3    H130545   2.978   1.433   6.953 -0.4396 -0.0792 -0.2021
 3018TIP3    H230546   2.983   1.314   7.047 -0.5428  0.4524  0.4799
 3019TIP3   OH230547   3.231   2.108   0.522 -0.4307 -0.0592  0.3250
 3019TIP3    H130548   3.286   2.060   0.584 -1.1060 -1.1709  0.0948
 3019TIP3    H230549   3.142   2.090   0.551 -0.6978  1.8737  0.8022
 3020TIP3   OH230550   2.085   6.645   5.325 -0.5358  0.0376  0.2613
 3020TIP3    H130551   2.064   6.637   5.232 -1.6226  0.3810  0.4571
 3020TIP3    H230552   2.116   6.558   5.350 -1.1631 -0.3351 -0.2124
 3021TIP3   OH230553   0.887   2.705   0.617 -0.2247  0.0897  0.6005
 3021TIP3    H130554   0.884   2.624   0.565  0.1895 -0.0469  0.7891
 3021TIP3    H230555   0.903   2.774   0.553  1.2571 -0.1810  0.6437
 3022TIP3   OH230556   5.968   1.992   5.088 -0.4092 -0.2713 -0.6302
 3022TIP3    H130557   5.991   2.048   5.162  0.3571  0.5107 -1.4326
 3022TIP3    H230558   5.901   1.933   5.123  0.3921 -0.3622  0.8551
 3023TIP3   OH230559   5.294   5.514   4.253  0.4658  0.3748 -0.1622
 3023TIP3    H130560   5.231   5.581   4.227 -0.3780 -0.4154 -0.2227
 3023TIP3    H230561   5.240   5.447   4.296  1.2380 -0.4205 -0.4086
 3024TIP3   OH230562   0.018   2.242  14.053 -0.3209 -0.1621 -0.5533
 3024TIP3    H130563  -0.013   2.166  14.005  1.8053 -1.4063 -0.0998
 3024TIP3    H230564   0.067   2.293  13.987 -2.7145  1.5411 -1.1554
 3025TIP3   OH230565   6.471   5.176  16.772 -0.1877  0.4973 -0.6215
 3025TIP3    H130566   6.431   5.107  16.824  1.0847 -0.5433 -0.9701
 3025TIP3    H230567   6.547   5.204  16.823  1.1503 -0.6209 -1.9135
 3026TIP3   OH230568   5.666   2.296  14.359 -0.4864  0.2218  0.4115
 3026TIP3    H130569   5.735   2.361  14.371 -0.9611  1.1546 -1.4308
 3026TIP3    H230570   5.703   2.234  14.295 -1.9546  1.8602 -2.2076
 3027TIP3   OH230571   3.717   3.770  15.904 -0.0511  1.0633  0.8747
 3027TIP3    H130572   3.782   3.766  15.974 -0.3616 -0.5134  1.1229
 3027TIP3    H230573   3.753   3.713  15.836 -1.4166 -0.3891  1.2925
 3028TIP3   OH230574   5.425   5.000  13.921 -0.0886 -0.2733  0.1123
 3028TIP3    H130575   5.497   5.052  13.956 -1.3967  0.9084  1.1535
 3028TIP3    H230576   5.361   5.064  13.889 -0.1572 -1.3028 -1.9707
 3029TIP3   OH230577   4.985   3.850  14.926  0.2434  0.0217  0.3748
 3029TIP3    H130578   4.913   3.877  14.869 -1.0828  1.7694  2.7231
 3029TIP3    H230579   5.061   3.898  14.894 -0.4005  0.7468 -0.0951
 3030TIP3   OH230580   4.896   3.296   5.103  0.1205 -0.6046 -0.2158
 3030TIP3    H130581   4.924   3.239   5.032  1.7427 -0.1669  0.0056
 3030TIP3    H230582   4.968   3.291   5.167 -0.0973  0.9608  0.2029
 3031TIP3   OH230583   2.003   2.564   1.131  0.0810 -0.0724 -0.2968
 3031TIP3    H130584   2.090   2.602   1.142 -0.1755  0.0320  1.6205
 3031TIP3    H230585   1.987   2.569   1.036  1.5153  1.3040 -0.5117
 3032TIP3   OH230586   5.553   4.433   4.487  0.0110  0.6743 -0.6677
 3032TIP3    H130587   5.636   4.404   4.449 -0.7351 -1.4283 -0.7626
 3032TIP3    H230588   5.486   4.378   4.447 -1.8573  3.9371 -2.5056
 3033TIP3   OH230589   1.821   6.698   3.766  0.0555 -0.7898  0.2263
 3033TIP3    H130590   1.762   6.752   3.819  0.2086  1.2389 -1.5522
 3033TIP3    H230591   1.764   6.629   3.730 -0.4541 -0.9759  1.3491
 3034TIP3   OH230592   2.266   1.020   3.323  0.0555 -0.2282  0.0077
 3034TIP3    H130593   2.266   0.927   3.303  0.8364 -0.5015  1.2197
 3034TIP3    H230594   2.346   1.035   3.372  1.1887  1.5428 -2.1713
 3035TIP3   OH230595   3.322   1.367  17.089 -0.1720 -0.7515  0.2152
 3035TIP3    H130596   3.252   1.340  17.149 -0.0395 -0.3759  0.5463
 3035TIP3    H230597   3.394   1.392  17.147 -0.0549 -0.3476 -0.0999
 3036TIP3   OH230598   1.147   3.056   4.852 -0.5073 -0.2186  0.5408
 3036TIP3    H130599   1.179   3.036   4.940  2.1138 -0.1140 -0.3139
 3036TIP3    H230600   1.176   3.146   4.836  0.9137 -0.9252 -1.1695
 3037TIP3   OH230601   1.359   6.237  17.106  0.2258  0.0780 -0.0483
 3037TIP3    H130602   1.293   6.267  17.042  1.6738  0.3967 -1.4645
 3037TIP3    H230603   1.312   6.234  17.189 -1.4989  0.5898 -0.9485
 3038TIP3   OH230604   3.572   3.233  14.520 -0.0389  0.0225 -0.7316
 3038TIP3    H130605   3.608   3.303  14.574  2.5069 -0.9743 -1.0218
 3038TIP3    H230606   3.520   3.278  14.453  0.5888  1.5533 -0.2204
 3039TIP3   OH230607   0.284   4.030  14.687  0.3797 -0.2951 -0.6559
 3039TIP3    H130608   0.310   4.008  14.598  2.0669 -0.5604 -0.1267
 3039TIP3    H230609   0.283   4.126  14.689 -1.8457 -0.2513 -1.5319
 3040TIP3   OH230610   2.304   4.334  11.930 -0.0786  0.3168  0.0612
 3040TIP3    H130611   2.314   4.384  12.011 -0.4903  0.7587 -0.1629
 3040TIP3    H230612   2.364   4.260  11.941  1.0543  1.2165  0.1025
 3041TIP3   OH230613   6.112   6.625   6.134  0.0549  0.2068  0.4046
 3041TIP3    H130614   6.133   6.681   6.209  0.3946  3.2648 -1.7965
 3041TIP3    H230615   6.197   6.595   6.101 -0.0117 -0.0144  0.4313
 3042TIP3   OH230616   0.559   3.660   0.969 -0.1258 -0.6463  0.3471
 3042TIP3    H130617   0.620   3.587   0.978 -1.2089 -1.5019  1.0511
 3042TIP3    H230618   0.589   3.706   0.891  1.7440 -0.6954  0.9831
 3043TIP3   OH230619   6.569   6.226  14.866 -0.5188  0.1848  0.4431
 3043TIP3    H130620   6.477   6.212  14.887  0.0757 -1.5233  2.1564
 3043TIP3    H230621   6.617   6.190  14.940  1.5868 -0.6442 -1.1982
 3044TIP3   OH230622   6.030   5.171  11.615  0.4610  0.0795  1.0102
 3044TIP3    H130623   5.991   5.254  11.589 -0.2440 -0.3319  0.7218
 3044TIP3    H230624   5.969   5.105  11.583  1.3027 -0.5765  0.7396
 3045TIP3   OH230625   3.805   4.500   2.669  0.2239  0.3367 -0.6069
 3045TIP3    H130626   3.810   4.570   2.604 -1.6238  1.0078 -0.0936
 3045TIP3    H230627   3.741   4.439   2.633  2.4173 -1.6228 -1.4538
 3046TIP3   OH230628   2.351   1.565  16.589  0.3599 -0.4791 -0.3876
 3046TIP3    H130629   2.296   1.535  16.661 -1.1713 -0.9995 -1.6949
 3046TIP3    H230630   2.295   1.556  16.511  2.2320 -0.8204 -1.7749
 3047TIP3   OH230631   3.561   3.469   2.854  0.9579 -0.6097  0.1091
 3047TIP3    H130632   3.635   3.467   2.915  1.2525 -0.2579 -0.2311
 3047TIP3    H230633   3.599   3.500   2.772  0.2306  0.7242  0.2424
 3048TIP3   OH230634   5.675   4.402   3.049 -0.5938  0.0780  0.8419
 3048TIP3    H130635   5.640   4.408   3.138 -0.0024 -1.7150  1.2365
 3048TIP3    H230636   5.748   4.464   3.048  0.0362 -0.6156  1.9499
 3049TIP3   OH230637   0.105   1.733  11.648 -0.2208 -0.6520 -0.3788
 3049TIP3    H130638   0.199   1.713  11.650 -0.1353 -0.2418  2.0633
 3049TIP3    H230639   0.066   1.659  11.601  1.0762 -2.0477  0.6254
 3050TIP3   OH230640   5.555   4.054  12.783 -0.0037  0.4917 -0.1436
 3050TIP3    H130641   5.539   3.964  12.812 -3.2108  0.9710 -0.0362
 3050TIP3    H230642   5.634   4.081  12.830 -0.2471 -1.5478  1.5945
 3051TIP3   OH230643   4.428   4.219   4.198 -0.1851  0.4748  0.1108
 3051TIP3    H130644   4.502   4.194   4.142 -0.0905 -1.9607  1.1486
 3051TIP3    H230645   4.351   4.188   4.151 -0.3055  0.6094  0.2206
 3052TIP3   OH230646   5.580   2.795  13.234 -0.2746 -0.0390 -0.2598
 3052TIP3    H130647   5.604   2.704  13.218  2.5819  0.3259  1.2004
 3052TIP3    H230648   5.507   2.791  13.296 -0.6708 -1.3197 -0.7883
 3053TIP3   OH230649   3.104   0.167  14.732  0.3830 -0.2294  0.1665
 3053TIP3    H130650   3.143   0.251  14.707  1.3383 -0.8439 -0.5065
 3053TIP3    H230651   3.097   0.119  14.650 -0.9516 -0.5008  0.4248
 3054TIP3   OH230652   2.344   1.805  15.994  0.3585 -0.7794  0.3819
 3054TIP3    H130653   2.410   1.869  16.021  0.4589 -1.4359  1.7748
 3054TIP3    H230654   2.323   1.829  15.903 -1.1171  2.5339  1.4287
 3055TIP3   OH230655   0.629   1.687   2.068 -0.1658  0.6336  0.7357
 3055TIP3    H130656   0.703   1.674   2.010  0.3040  2.5628  0.8552
 3055TIP3    H230657   0.605   1.599   2.097  1.2663 -0.1146 -0.2858
 3056TIP3   OH230658   6.333   0.689  17.277  0.7915 -0.0391  0.1250
 3056TIP3    H130659   6.258   0.739  17.309  1.2915  0.7391  0.0986
 3056TIP3    H230660   6.383   0.668  17.356  1.6947  1.3411 -0.0564
 3057TIP3   OH230661   4.835   3.286   0.037 -0.4935  0.2449 -0.1056
 3057TIP3    H130662   4.901   3.330   0.091  0.9853 -1.5642 -0.3012
 3057TIP3    H230663   4.785   3.233   0.099  0.7253 -1.2584 -0.3310
 3058TIP3   OH230664   5.483   4.265   3.977  0.7088  0.0631 -0.5707
 3058TIP3    H130665   5.451   4.180   4.009  0.3122  0.2958 -0.3467
 3058TIP3    H230666   5.423   4.329   4.015  1.8888  0.5797  0.5101
 3059TIP3   OH230667   1.033   1.056   2.314  0.0576  0.0279  0.6633
 3059TIP3    H130668   0.958   1.068   2.371  0.5139 -0.2104  1.3225
 3059TIP3    H230669   1.036   1.135   2.261 -0.4859  0.1597  0.8249
 3060TIP3   OH230670   0.872   4.143  17.011 -0.3717 -0.5078 -0.3265
 3060TIP3    H130671   0.865   4.056  17.051  0.9817 -0.3054  0.4112
 3060TIP3    H230672   0.821   4.137  16.931  0.1685 -2.1715 -0.5828
 3061TIP3   OH230673   1.054   4.193  14.324 -0.1647 -0.0506 -0.0766
 3061TIP3    H130674   1.050   4.289  14.319  1.1142  0.0273  0.1510
 3061TIP3    H230675   0.965   4.165  14.302 -0.1372  1.1091 -1.8873
 3062TIP3   OH230676   0.879   5.270   4.205 -0.3495  0.1129 -0.3030
 3062TIP3    H130677   0.958   5.234   4.165 -0.1954  0.3028 -0.1706
 3062TIP3    H230678   0.809   5.249   4.143  0.1366  1.8912 -1.5378
 3063TIP3   OH230679   5.948   6.617   2.909 -0.0947  0.2707  0.1092
 3063TIP3    H130680   5.964   6.563   2.987  0.5235  2.1167  1.3448
 3063TIP3    H230681   6.035   6.649   2.885 -0.2659 -0.3703 -1.4601
 3064TIP3   OH230682   4.441   2.976  12.345 -0.2342  0.6371 -0.3647
 3064TIP3    H130683   4.346   2.969  12.353 -0.0984 -0.4634  0.6148
 3064TIP3    H230684   4.475   2.922  12.417  1.1415 -0.3111 -1.6519
 3065TIP3   OH230685   0.395   1.839   1.896  0.3372  0.1158  0.5394
 3065TIP3    H130686   0.327   1.774   1.912  1.0023 -0.7543 -0.0636
 3065TIP3    H230687   0.475   1.798   1.928  0.8637  0.3790 -0.4155
 3066TIP3   OH230688   2.250   4.181   4.883  0.5414  0.0554  0.2148
 3066TIP3    H130689   2.309   4.255   4.875  0.1098  0.4110  0.3022
 3066TIP3    H230690   2.167   4.212   4.848  0.9084 -1.0600 -1.8619
 3067TIP3   OH230691   3.535   2.700  13.199  0.0795  0.1790 -0.1493
 3067TIP3    H130692   3.460   2.644  13.180  0.5051 -1.0965  1.6426
 3067TIP3    H230693   3.519   2.730  13.289  0.8800  1.2884 -0.3660
 3068TIP3   OH230694   6.260   4.209   3.606 -0.2529  0.0294 -0.5599
 3068TIP3    H130695   6.229   4.293   3.572 -2.3550 -0.0180  1.0544
 3068TIP3    H230696   6.211   4.143   3.556 -1.5620 -0.0888  0.8002
 3069TIP3   OH230697   2.608   2.738  13.342  0.5950 -0.1191  0.1589
 3069TIP3    H130698   2.517   2.744  13.314  1.6137 -0.9491 -4.0178
 3069TIP3    H230699   2.631   2.827  13.367 -1.1468  0.2244  0.6655
 3070TIP3   OH230700   2.161   0.681   0.420  0.2702  0.5923 -0.2239
 3070TIP3    H130701   2.136   0.737   0.494  0.1385  0.0252  0.1694
 3070TIP3    H230702   2.198   0.741   0.356  0.6614  1.0700  0.4281
 3071TIP3   OH230703   4.991   1.229   2.984 -0.1816 -0.6630  0.3249
 3071TIP3    H130704   5.005   1.319   3.013  0.8693 -0.7566  0.1654
 3071TIP3    H230705   4.897   1.223   2.966 -0.5741 -0.1370  2.0761
 3072TIP3   OH230706   5.631   3.169   0.496  0.1448  0.2318 -0.4687
 3072TIP3    H130707   5.631   3.261   0.473 -0.9475  0.5300  0.6282
 3072TIP3    H230708   5.644   3.168   0.591 -1.3450 -0.6591 -0.2516
 3073TIP3   OH230709   2.539   2.333  13.832  0.1237 -0.2568 -0.4484
 3073TIP3    H130710   2.602   2.371  13.769  0.6009  1.3721  0.9472
 3073TIP3    H230711   2.494   2.265  13.781  2.3335 -0.8626 -1.7933
 3074TIP3   OH230712   0.794   3.916  12.582 -0.0267 -0.6425 -0.1552
 3074TIP3    H130713   0.880   3.896  12.620 -0.2560 -2.3111 -0.4264
 3074TIP3    H230714   0.794   3.872  12.497 -1.0956 -0.5596 -0.2149
 3075TIP3   OH230715   5.358   2.783  11.949  0.3480  0.0075  0.3901
 3075TIP3    H130716   5.363   2.731  11.868 -1.7875 -2.4320  1.6832
 3075TIP3    H230717   5.272   2.824  11.945  1.2718  2.0544  0.2920
 3076TIP3   OH230718   4.095   0.372  16.854 -0.1798 -0.3754  0.4079
 3076TIP3    H130719   4.031   0.304  16.834 -0.4308 -0.4530  1.4164
 3076TIP3    H230720   4.044   0.443  16.893 -0.2646  1.3727 -2.5921
 3077TIP3   OH230721   4.733   5.772   4.760  0.0248 -0.3310 -0.1557
 3077TIP3    H130722   4.799   5.784   4.827 -0.1303 -2.8426  0.5498
 3077TIP3    H230723   4.684   5.854   4.759  1.3247  0.5143  1.3167
 3078TIP3   OH230724   0.662   5.223  14.627 -0.0206 -0.1376 -0.2223
 3078TIP3    H130725   0.670   5.191  14.537  1.5475 -0.5823  0.0420
 3078TIP3    H230726   0.750   5.254  14.650 -0.2337 -0.5580  1.3326
 3079TIP3   OH230727   1.247   0.023  16.830 -0.1180 -0.3994  0.3484
 3079TIP3    H130728   1.221   0.049  16.742  1.8764  0.2760 -0.0966
 3079TIP3    H230729   1.177   0.055  16.886 -0.5751  0.7531 -0.8287
 3080TIP3   OH230730   6.205   6.283   1.624  0.3249 -1.0000 -0.1222
 3080TIP3    H130731   6.256   6.223   1.678 -1.4689 -1.8649  0.6924
 3080TIP3    H230732   6.122   6.237   1.609 -0.6262  0.7582 -0.5316
 3081TIP3   OH230733   1.573   1.082   4.773  0.4475 -0.3255  0.3553
 3081TIP3    H130734   1.481   1.063   4.755  0.4066 -2.2593  2.2533
 3081TIP3    H230735   1.608   1.111   4.689 -1.5489 -0.9428 -0.7564
 3082TIP3   OH230736   1.131   1.086  14.195 -0.2142  0.1832  0.0160
 3082TIP3    H130737   1.185   1.161  14.169 -0.1136  1.1687  2.6791
 3082TIP3    H230738   1.042   1.108  14.167  0.0589  0.5740 -0.5539
 3083TIP3   OH230739   2.184   3.507   2.417 -0.1271 -0.6751 -0.0545
 3083TIP3    H130740   2.191   3.413   2.400 -0.3628 -1.2295  2.5457
 3083TIP3    H230741   2.259   3.527   2.473 -1.2574  0.1921  1.2222
 3084TIP3   OH230742   5.053   2.442   4.707 -0.2837  0.2534 -0.3811
 3084TIP3    H130743   5.054   2.364   4.652  0.1205 -0.7517  0.9949
 3084TIP3    H230744   5.015   2.413   4.790  0.5129  1.3292  0.3981
 3085TIP3   OH230745   2.498   2.570  15.010  0.5567 -0.2753  0.3415
 3085TIP3    H130746   2.563   2.585  14.941  1.7129 -1.3844  1.1355
 3085TIP3    H230747   2.414   2.576  14.966  1.1805  1.2412 -0.7132
 3086TIP3   OH230748   3.343   4.182  17.187 -0.0689 -0.2974  0.6873
 3086TIP3    H130749   3.366   4.222  17.271 -0.9695  0.7092  0.4765
 3086TIP3    H230750   3.311   4.255  17.134 -2.4773 -1.3758  0.5374
 3087TIP3   OH230751   0.052   2.716   0.442 -0.5441  0.8756  0.0539
 3087TIP3    H130752   0.113   2.743   0.373 -2.7146  1.6130 -1.7128
 3087TIP3    H230753  -0.017   2.669   0.395 -0.6523 -1.2695  2.1602
 3088TIP3   OH230754   2.346   1.383   2.718 -0.2439 -0.0451  0.0706
 3088TIP3    H130755   2.340   1.387   2.813  2.7053 -1.7978  0.4504
 3088TIP3    H230756   2.419   1.442   2.696 -1.0445  0.5366 -1.1860
 3089TIP3   OH230757   1.418   1.963   6.652  0.2020  0.5405  0.2288
 3089TIP3    H130758   1.384   1.910   6.580  0.1619 -0.8506  1.2367
 3089TIP3    H230759   1.477   1.905   6.699 -1.6314  0.5843  2.7525
 3090TIP3   OH230760   5.131   2.851  11.615 -0.5099 -0.2193  0.0205
 3090TIP3    H130761   5.040   2.829  11.591 -0.8394  0.3871  0.6804
 3090TIP3    H230762   5.135   2.835  11.709 -0.4250  1.3881  0.3132
 3091TIP3   OH230763   1.212   5.263  14.285  0.1418 -0.6901  0.3062
 3091TIP3    H130764   1.237   5.198  14.220  0.5751  0.2800 -0.5231
 3091TIP3    H230765   1.121   5.285  14.264  0.0938 -0.7917  0.4015
 3092TIP3   OH230766   0.552   6.653  16.117 -0.5008  0.1396 -0.0590
 3092TIP3    H130767   0.540   6.734  16.167  2.5891  0.1890  0.7713
 3092TIP3    H230768   0.636   6.664  16.073 -0.5676 -2.1697 -0.8919
 3093TIP3   OH230769   4.745   1.729   1.822  0.4584 -0.6415  0.0379
 3093TIP3    H130770   4.839   1.716   1.807  0.3764  0.4038 -1.5694
 3093TIP3    H230771   4.738   1.820   1.851 -0.1275 -0.4443 -0.6844
 3094TIP3   OH230772   3.558   0.486  15.080  0.5521 -0.5021  0.2328
 3094TIP3    H130773   3.595   0.435  15.152 -0.0049 -1.3175 -0.0495
 3094TIP3    H230774   3.468   0.504  15.106  0.6009 -0.0553  0.1148
 3095TIP3   OH230775   1.433   2.743   2.380  0.0690 -0.2807  0.5516
 3095TIP3    H130776   1.520   2.714   2.354  0.2552 -0.4876  1.3759
 3095TIP3    H230777   1.432   2.734   2.476 -0.4865  0.7527  0.6515
 3096TIP3   OH230778   3.104   3.072   2.717  0.3579  0.4055  0.4263
 3096TIP3    H130779   3.024   3.122   2.698  0.4535  0.4064  0.0207
 3096TIP3    H230780   3.091   3.040   2.807  0.0441  0.6760  0.4801
 3097TIP3   OH230781   2.235   4.950   5.637  0.0924  0.3272 -0.3717
 3097TIP3    H130782   2.267   4.860   5.647  0.7875  0.5542 -0.5332
 3097TIP3    H230783   2.313   5.001   5.616 -0.3215  0.9501 -0.4067
 3098TIP3   OH230784   6.286   5.771   1.281 -0.0233  0.4093  0.1500
 3098TIP3    H130785   6.313   5.721   1.204 -0.9833 -1.3596  0.9105
 3098TIP3    H230786   6.356   5.835   1.293  2.2781 -1.9247  0.1879
 3099TIP3   OH230787   4.249   4.465   1.670 -0.3229  0.2326  0.2063
 3099TIP3    H130788   4.341   4.462   1.642 -0.2746  2.2253  0.0116
 3099TIP3    H230789   4.199   4.447   1.591 -0.1332 -0.7848  0.2977
 3100TIP3   OH230790   2.594   0.001  12.936  0.2495  0.0347 -0.1099
 3100TIP3    H130791   2.557  -0.030  13.019 -1.6068  1.8645 -0.1701
 3100TIP3    H230792   2.653   0.073  12.961  1.3342 -0.7778 -0.2606
 3101TIP3   OH230793   5.288   2.383  16.964 -1.0536  0.3511  0.1733
 3101TIP3    H130794   5.256   2.408  16.878 -1.9350  0.7020  0.5954
 3101TIP3    H230795   5.261   2.292  16.975  1.7498 -0.7714 -1.1711
 3102TIP3   OH230796   3.925   1.491   5.333 -0.4263  0.3270 -0.6104
 3102TIP3    H130797   3.948   1.423   5.396 -0.1335 -0.1648 -1.2432
 3102TIP3    H230798   3.829   1.492   5.333 -0.4367  0.8471  0.3828
 3103TIP3   OH230799   1.900   3.812  10.629  0.4572 -0.2543  0.7537
 3103TIP3    H130800   1.950   3.854  10.559  0.1944 -0.0825  0.6692
 3103TIP3    H230801   1.964   3.794  10.697  0.7907 -0.7538  0.3200
 3104TIP3   OH230802   2.601   2.619  10.934 -0.1068 -0.3461  0.4125
 3104TIP3    H130803   2.570   2.710  10.941 -0.5597 -0.2650 -1.9511
 3104TIP3    H230804   2.522   2.566  10.940  0.1043 -0.5808  1.2719
 3105TIP3   OH230805   3.394   4.109   2.459 -0.8614  0.2938 -0.5351
 3105TIP3    H130806   3.451   4.185   2.452  0.0210 -0.4849 -2.3710
 3105TIP3    H230807   3.312   4.136   2.416 -1.2856  0.8299  0.5687
 3106TIP3   OH230808   1.521   2.052   1.201 -0.2209  0.3220  0.0139
 3106TIP3    H130809   1.532   2.107   1.279  0.3486 -1.1435  1.0153
 3106TIP3    H230810   1.595   1.991   1.204 -0.7426 -0.4030 -1.1408
 3107TIP3   OH230811   1.043   3.425   1.256 -0.1393  0.0625 -0.4276
 3107TIP3    H130812   1.128   3.390   1.228 -0.3113  1.3564 -2.8923
 3107TIP3    H230813   1.064   3.481   1.331  0.5119 -2.8069  1.7311
 3108TIP3   OH230814   2.180   5.127  17.247  0.0939 -0.5129  0.5980
 3108TIP3    H130815   2.208   5.099  17.160 -1.7963 -2.2187  0.4722
 3108TIP3    H230816   2.261   5.141  17.295  1.1800  0.2789 -1.3465
 3109TIP3   OH230817   5.097   1.136  15.002 -0.6005  0.1839  0.4021
 3109TIP3    H130818   5.123   1.228  14.998  1.1164 -0.2890  0.0229
 3109TIP3    H230819   5.178   1.087  14.993 -1.3840 -1.3893  1.3469
 3110TIP3   OH230820   3.359   5.865   5.654 -0.1831  0.0744 -0.1237
 3110TIP3    H130821   3.305   5.880   5.576 -1.2140 -0.3765  0.4830
 3110TIP3    H230822   3.354   5.948   5.702 -1.6937 -0.4698  0.7218
 3111TIP3   OH230823   5.717   5.756   3.350  0.2711  0.0054  0.4873
 3111TIP3    H130824   5.676   5.692   3.407  0.9264 -1.0250 -0.1586
 3111TIP3    H230825   5.810   5.737   3.355  0.4480  0.6839  0.0115
 3112TIP3   OH230826   5.936   2.988  11.805  0.2831 -0.2392 -0.3446
 3112TIP3    H130827   5.844   3.009  11.793 -0.1832 -1.5708  0.6765
 3112TIP3    H230828   5.968   2.964  11.718 -0.5317 -0.5498 -0.5602
 3113TIP3   OH230829   5.768   6.223  14.853  0.0490 -0.3015 -0.1469
 3113TIP3    H130830   5.763   6.214  14.758  1.2657  0.6910 -0.3307
 3113TIP3    H230831   5.712   6.298  14.874  0.2789 -0.1191 -0.1714
 3114TIP3   OH230832   6.066   3.773  13.512 -0.1337 -0.0596  0.2782
 3114TIP3    H130833   6.064   3.869  13.514  1.1374 -0.0262  0.7706
 3114TIP3    H230834   5.998   3.747  13.574 -1.7049  0.4734 -1.1348
 3115TIP3   OH230835   1.587   5.703   2.026  0.5380  0.0624 -0.0985
 3115TIP3    H130836   1.633   5.783   2.001 -0.7076  0.3662 -1.5685
 3115TIP3    H230837   1.576   5.655   1.944 -2.8623  0.6353 -0.1198
 3116TIP3   OH230838   0.646   4.452   5.779  0.9081 -0.5573 -0.0495
 3116TIP3    H130839   0.623   4.464   5.871  2.1468 -0.9883  0.3386
 3116TIP3    H230840   0.722   4.394   5.780 -1.0462 -3.3659 -1.5228
 3117TIP3   OH230841   3.193   2.188  17.076  0.1945 -0.1420  0.2989
 3117TIP3    H130842   3.221   2.124  17.010  2.0664  1.0834 -0.1744
 3117TIP3    H230843   3.101   2.166  17.093 -0.2374 -0.7799 -2.3935
 3118TIP3   OH230844   3.040   0.638   0.503  0.4862  0.4802  0.0621
 3118TIP3    H130845   3.059   0.720   0.548 -0.1720  0.7182 -0.0864
 3118TIP3    H230846   3.095   0.641   0.425  2.3710 -0.3769  1.2976
 3119TIP3   OH230847   3.128   5.445  10.818 -0.1075  0.4198  0.6157
 3119TIP3    H130848   3.117   5.499  10.896  1.0745 -0.9857  1.8271
 3119TIP3    H230849   3.222   5.451  10.798  0.2186 -1.7292  1.2536
 3120TIP3   OH230850   5.176   4.264  12.760 -0.4409  0.0940 -0.2198
 3120TIP3    H130851   5.245   4.298  12.817  0.0443  0.4121 -0.9749
 3120TIP3    H230852   5.139   4.342  12.718 -0.0205 -0.2122 -1.1884
 3121TIP3   OH230853   3.739   5.300  12.863  0.3606  0.4477 -0.0444
 3121TIP3    H130854   3.669   5.245  12.898  0.5131  0.2859  0.0072
 3121TIP3    H230855   3.694   5.363  12.806  0.1369  0.5533  0.2418
 3122TIP3   OH230856   3.348   5.563  13.517  0.3893 -0.3453 -0.0980
 3122TIP3    H130857   3.320   5.650  13.490 -0.8648 -1.4191 -2.6517
 3122TIP3    H230858   3.278   5.505  13.485  1.9077 -2.4170  0.1449
 3123TIP3   OH230859   4.968   5.669  15.844  0.0246 -0.3572 -0.0185
 3123TIP3    H130860   5.012   5.733  15.900 -0.4253  0.8607 -1.0173
 3123TIP3    H230861   5.015   5.587  15.860  2.0806  0.6851 -0.3898
 3124TIP3   OH230862   0.765   4.818  12.933  0.0938  0.2620 -0.1844
 3124TIP3    H130863   0.696   4.844  12.872  0.0429  0.3391 -0.0951
 3124TIP3    H230864   0.827   4.891  12.932  1.3471 -0.7549 -1.9658
 3125TIP3   OH230865   5.634   4.677   3.902 -0.0514 -0.2036  0.1931
 3125TIP3    H130866   5.566   4.612   3.921 -0.7271  0.6365  0.6746
 3125TIP3    H230867   5.589   4.747   3.855  0.2489  0.8592  1.4415
 3126TIP3   OH230868   4.899   6.523  14.177  0.0509 -0.4175  0.4170
 3126TIP3    H130869   4.853   6.442  14.200  0.2147 -0.4792  0.5321
 3126TIP3    H230870   4.890   6.530  14.082 -1.7652  0.5264  0.6225
 3127TIP3   OH230871   6.722   4.963  14.815  0.4481 -0.0541 -0.1380
 3127TIP3    H130872   6.672   4.999  14.742  0.0280 -1.7961 -0.7609
 3127TIP3    H230873   6.707   5.024  14.887 -1.4448  0.2109 -0.7101
 3128TIP3   OH230874   2.625   4.676  14.290 -0.6285  0.0114  0.4480
 3128TIP3    H130875   2.640   4.655  14.197 -2.2421  0.4306  0.0667
 3128TIP3    H230876   2.691   4.625  14.336  0.5695  0.2050 -0.9617
 3129TIP3   OH230877   4.956   0.501  10.518 -0.6056  0.0197  0.8225
 3129TIP3    H130878   5.029   0.551  10.556 -1.3223  2.2825 -0.5761
 3129TIP3    H230879   4.994   0.459  10.441 -0.3854 -0.2361  1.0678
 3130TIP3   OH230880   4.120   5.133  13.587 -0.1816 -0.0470  0.0721
 3130TIP3    H130881   4.140   5.226  13.598 -1.0322  0.4395 -2.0368
 3130TIP3    H230882   4.148   5.113  13.498  0.0871 -1.8752  0.5296
 3131TIP3   OH230883   1.741   4.797   3.108 -0.4275  0.4704  0.2835
 3131TIP3    H130884   1.711   4.708   3.092 -0.8723  0.7140 -0.2612
 3131TIP3    H230885   1.836   4.794   3.094 -0.6394  0.4092 -1.2574
 3132TIP3   OH230886   1.685   2.778  16.025  0.2626  0.4033 -0.0047
 3132TIP3    H130887   1.644   2.712  15.968  0.3103 -0.3002  0.7510
 3132TIP3    H230888   1.777   2.753  16.027  0.1082 -0.1343  1.0957
 3133TIP3   OH230889   3.894   5.819  13.015 -0.0842  0.0073 -0.1794
 3133TIP3    H130890   3.951   5.884  12.973  0.7078 -0.8515 -0.4842
 3133TIP3    H230891   3.924   5.735  12.980 -1.6157 -0.4721 -0.4189
 3134TIP3   OH230892   1.475   5.564  16.335 -0.0123 -0.4747 -0.2639
 3134TIP3    H130893   1.500   5.644  16.288  0.5564 -1.2201 -1.2740
 3134TIP3    H230894   1.524   5.494  16.291  0.7926 -1.1816  1.6492
 3135TIP3   OH230895   2.691   1.397  16.330 -0.1961 -0.1383 -0.3954
 3135TIP3    H130896   2.689   1.427  16.421  0.8752  0.4099 -0.5350
 3135TIP3    H230897   2.599   1.395  16.303 -0.5015  0.0153  0.5943
 3136TIP3   OH230898   1.043   1.840   4.364 -0.1749 -0.1770 -0.3123
 3136TIP3    H130899   1.065   1.890   4.442 -0.8468  1.0460 -0.8646
 3136TIP3    H230900   1.094   1.881   4.294 -2.3473  1.2440 -1.1858
 3137TIP3   OH230901   2.913   4.391   5.294 -0.4123 -0.2067 -0.2266
 3137TIP3    H130902   2.866   4.474   5.302 -0.3683 -0.2379  0.3827
 3137TIP3    H230903   2.900   4.348   5.378  1.2194  0.0536  0.1948
 3138TIP3   OH230904   2.698   1.365  14.926 -0.0710  0.2114 -0.4482
 3138TIP3    H130905   2.660   1.291  14.974 -2.2609 -0.1702 -2.5999
 3138TIP3    H230906   2.720   1.329  14.840 -0.7468  1.9337 -1.3798
 3139TIP3   OH230907   2.600   6.368   4.789 -0.0827 -0.3663 -0.1139
 3139TIP3    H130908   2.629   6.424   4.717  0.7041 -0.3248  0.2208
 3139TIP3    H230909   2.637   6.408   4.867 -1.8440  0.2200  0.4747
 3140TIP3   OH230910   0.589   6.491  12.889  0.3474 -0.3067 -0.6351
 3140TIP3    H130911   0.572   6.584  12.904  1.8052 -0.2802  1.2609
 3140TIP3    H230912   0.676   6.489  12.850  1.0445 -0.8992  0.8657
 3141TIP3   OH230913   1.282   0.208   0.616 -0.0307  0.1583 -0.4318
 3141TIP3    H130914   1.359   0.150   0.616 -0.3757 -0.3069 -1.4317
 3141TIP3    H230915   1.282   0.249   0.530 -1.2665 -0.3223 -0.6706
 3142TIP3   OH230916   4.652   1.128  15.915  0.4147 -0.5438  0.0397
 3142TIP3    H130917   4.628   1.059  15.977  0.0869 -0.4345  0.0370
 3142TIP3    H230918   4.641   1.209  15.964  1.8285 -0.5362  0.3805
 3143TIP3   OH230919   0.789   0.525   0.466 -0.2491 -0.2240 -0.3838
 3143TIP3    H130920   0.881   0.515   0.444 -0.4777 -0.1465 -1.4291
 3143TIP3    H230921   0.750   0.565   0.389 -0.8563  1.2834  0.6549
 3144TIP3   OH230922   5.386   3.995   4.890 -0.2596 -0.1500  0.0445
 3144TIP3    H130923   5.338   4.071   4.921 -2.5703 -1.5140  0.0316
 3144TIP3    H230924   5.319   3.934   4.859  1.5809 -1.4885 -1.6475
 3145TIP3   OH230925   2.172   0.731   4.842 -0.1449  0.6005 -0.3134
 3145TIP3    H130926   2.169   0.655   4.784  0.5937  0.2106  0.1391
 3145TIP3    H230927   2.086   0.771   4.834 -0.2485  0.2258 -1.2387
 3146TIP3   OH230928   2.675   3.911   4.009  0.0603 -0.2869 -0.0533
 3146TIP3    H130929   2.692   3.826   3.970  0.2085 -0.2200 -0.1374
 3146TIP3    H230930   2.733   3.971   3.960 -0.2082 -0.1040 -0.1475
 3147TIP3   OH230931   6.553   4.613  15.652  0.5077 -0.2383  0.0548
 3147TIP3    H130932   6.526   4.603  15.743  0.6658  0.2327  0.1572
 3147TIP3    H230933   6.646   4.637  15.657  0.5550 -0.3603 -0.2343
 3148TIP3   OH230934   4.587   2.736   3.046  0.6014  0.0556 -0.5787
 3148TIP3    H130935   4.604   2.681   3.122 -0.8080 -0.9403 -0.9653
 3148TIP3    H230936   4.585   2.676   2.972  1.2413  0.9219 -1.3224
 3149TIP3   OH230937   2.792   4.516  11.760  0.3918 -0.3611 -0.2141
 3149TIP3    H130938   2.762   4.453  11.825  0.4474 -0.8069 -0.6151
 3149TIP3    H230939   2.754   4.600  11.788  1.4108 -0.3099  1.0541
 3150TIP3   OH230940   4.220   1.454  12.241 -0.0462  0.0846 -0.1596
 3150TIP3    H130941   4.305   1.478  12.205 -0.4345  1.1628 -0.3950
 3150TIP3    H230942   4.195   1.529  12.295 -1.1635  0.0914 -0.6679
 3151TIP3   OH230943   0.212   6.208   6.022 -0.6151 -0.1091  0.0958
 3151TIP3    H130944   0.280   6.162   6.071  0.8520  1.3305 -0.4680
 3151TIP3    H230945   0.207   6.294   6.064 -1.4869  0.0904 -0.4091
 3152TIP3   OH230946   6.106   4.299  17.220 -0.1147  0.4282 -0.2935
 3152TIP3    H130947   6.155   4.234  17.271  0.7869  1.5225  0.2783
 3152TIP3    H230948   6.169   4.369  17.204 -1.2278  1.4341 -0.4044
 3153TIP3   OH230949   4.466   3.791   2.412  0.3884  0.1551  0.0621
 3153TIP3    H130950   4.507   3.824   2.492 -0.8672  0.0191  0.7892
 3153TIP3    H230951   4.439   3.870   2.365 -1.7319  0.2698  1.3327
 3154TIP3   OH230952   6.346   6.165   2.646  0.3196  0.1057 -0.1692
 3154TIP3    H130953   6.266   6.121   2.618 -0.3015  0.9750  0.2184
 3154TIP3    H230954   6.380   6.110   2.716 -0.7071  0.4775  0.6355
 3155TIP3   OH230955   6.006   3.018   6.004  0.0013  0.0138 -0.1479
 3155TIP3    H130956   5.940   3.086   5.992 -0.4302 -0.6371 -1.6441
 3155TIP3    H230957   5.956   2.941   6.033  0.0869 -0.4679 -1.2411
 3156TIP3   OH230958   5.883   1.564   5.775  0.1358  0.6140  0.2989
 3156TIP3    H130959   5.789   1.553   5.790  0.5098 -1.1514  1.7365
 3156TIP3    H230960   5.923   1.551   5.861  1.6781  2.0111 -0.1473
 3157TIP3   OH230961   4.412   6.547  12.877 -0.5891 -0.7042 -0.3142
 3157TIP3    H130962   4.504   6.530  12.855 -0.6134 -0.8193 -0.3264
 3157TIP3    H230963   4.403   6.643  12.872 -0.5392 -0.7139 -0.5834
 3158TIP3   OH230964   4.225   3.582  16.263  0.1459 -0.2840 -0.4255
 3158TIP3    H130965   4.132   3.571  16.282  0.0528 -0.6028 -1.0248
 3158TIP3    H230966   4.268   3.513  16.313  0.2300  0.7982  1.0631
 3159TIP3   OH230967   3.944   4.864  14.949 -0.4464 -0.4680 -0.2977
 3159TIP3    H130968   3.866   4.892  14.997  1.4785  0.6358  2.4270
 3159TIP3    H230969   3.934   4.770  14.939 -2.1772 -0.3343 -0.1822
 3160TIP3   OH230970   3.645   6.058   4.943 -0.0327 -0.7900 -0.1373
 3160TIP3    H130971   3.739   6.067   4.926 -0.5140  0.4378 -2.6685
 3160TIP3    H230972   3.622   6.138   4.990  0.3080 -1.5172  1.3142
 3161TIP3   OH230973   0.759   3.265  14.511  0.4899  0.0427  0.3820
 3161TIP3    H130974   0.803   3.251  14.427  0.3935 -3.4425  0.7608
 3161TIP3    H230975   0.805   3.338  14.551  1.7129  0.6118 -1.9274
 3162TIP3   OH230976   4.552   1.989   4.421 -0.6329 -0.1058  0.9910
 3162TIP3    H130977   4.485   1.986   4.353  0.1258  0.7901  0.1637
 3162TIP3    H230978   4.593   2.075   4.409  2.5621 -1.6558 -0.4342
 3163TIP3   OH230979   6.719   6.396  15.750 -0.0798 -0.2833 -0.0456
 3163TIP3    H130980   6.696   6.466  15.688  0.6256 -0.4308 -0.4881
 3163TIP3    H230981   6.774   6.336  15.699  2.4114  0.7126  1.2557
 3164TIP3   OH230982   1.408   6.553  11.872 -0.4669  0.6556 -0.4816
 3164TIP3    H130983   1.483   6.530  11.816  0.6662 -0.3197  1.3587
 3164TIP3    H230984   1.418   6.647  11.887  2.5657  0.0310  2.5892
 3165TIP3   OH230985   6.435   2.958  15.688 -0.6121 -0.3123  0.3045
 3165TIP3    H130986   6.474   2.917  15.765 -3.0069  1.2774  2.5634
 3165TIP3    H230987   6.343   2.932  15.691 -1.1148  1.1118 -1.0920
 3166TIP3   OH230988   2.147   3.681   5.229  0.4233  0.3110  0.4919
 3166TIP3    H130989   2.240   3.682   5.252  0.0994  0.5240  1.8928
 3166TIP3    H230990   2.121   3.773   5.225  0.0520  0.2364  1.0753
 3167TIP3   OH230991   0.409   3.549  16.332 -0.0136 -0.5221  0.4984
 3167TIP3    H130992   0.451   3.468  16.361  3.0555  0.8510  0.2349
 3167TIP3    H230993   0.471   3.618  16.355 -2.1748  1.7215  0.0375
 3168TIP3   OH230994   1.069   2.308  15.936 -0.2520 -0.8037 -0.1542
 3168TIP3    H130995   1.057   2.292  15.842 -1.2693  1.0993 -0.3926
 3168TIP3    H230996   1.013   2.243  15.979 -0.7187 -0.8981 -0.8932
 3169TIP3   OH230997   1.963   6.786  16.978 -0.8867 -0.1851  0.3143
 3169TIP3    H130998   1.883   6.756  17.021  0.5760 -1.2945  2.4068
 3169TIP3    H230999   2.021   6.711  16.979  1.3908  1.4527  1.9287
 3170TIP3   OH231000   3.029   0.247  11.990  0.5176 -0.0594  0.5436
 3170TIP3    H131001   3.094   0.225  12.057  0.2183 -1.8244  0.3109
 3170TIP3    H231002   3.012   0.164  11.946 -0.0446  0.8800 -1.0649
 3171TIP3   OH231003   5.151   2.843  15.872  0.0872 -0.4317  0.1061
 3171TIP3    H131004   5.183   2.932  15.860  0.3582 -0.2572  1.9412
 3171TIP3    H231005   5.172   2.799  15.789 -1.0547  1.4582 -1.2822
 3172TIP3   OH231006   3.358   1.996  14.813  0.4930  0.6570  0.0348
 3172TIP3    H131007   3.441   2.002  14.859  0.0890 -1.0413  1.0765
 3172TIP3    H231008   3.332   1.904  14.821 -0.8993  0.8847 -1.3094
 3173TIP3   OH231009   3.873   5.499   3.997 -0.2223  0.1940 -0.0601
 3173TIP3    H131010   3.903   5.409   4.010 -0.7593  0.2204  1.5954
 3173TIP3    H231011   3.877   5.512   3.902  0.9054 -1.1958 -0.2333
 3174TIP3   OH231012   5.710   5.903   3.712  0.2335  0.2913  0.4931
 3174TIP3    H131013   5.802   5.894   3.689 -0.6804 -3.4405 -2.8423
 3174TIP3    H231014   5.692   5.830   3.771 -0.9831 -0.5507 -0.8426
 3175TIP3   OH231015   4.359   4.434  12.134 -0.4401 -0.3674  0.3907
 3175TIP3    H131016   4.395   4.448  12.222  0.1106 -0.5144  0.1923
 3175TIP3    H231017   4.436   4.413  12.080 -0.8567 -0.9424  0.0155
 3176TIP3   OH231018   1.842   2.072   5.919 -0.2408 -0.4263 -0.4792
 3176TIP3    H131019   1.884   2.151   5.885 -1.4394 -0.1782 -1.4573
 3176TIP3    H231020   1.875   2.001   5.864  0.1405 -0.4881 -0.1798
 3177TIP3   OH231021   0.940   3.911   3.683 -0.3528 -0.4356 -0.4332
 3177TIP3    H131022   1.009   3.897   3.748 -0.4675 -0.4834 -0.3224
 3177TIP3    H231023   0.868   3.854   3.711 -0.7915  0.3032 -0.0217
 3178TIP3   OH231024   6.038   3.593  14.376 -0.1256  0.4101 -0.1173
 3178TIP3    H131025   5.998   3.508  14.359 -0.7018  0.8248 -0.9022
 3178TIP3    H231026   6.131   3.579  14.362 -0.4236  0.3874 -2.3763
 3179TIP3   OH231027   6.667   5.412  15.688 -0.0165 -0.0244  0.1609
 3179TIP3    H131028   6.695   5.347  15.753  1.4660 -0.9088 -1.2799
 3179TIP3    H231029   6.699   5.495  15.722 -1.0559 -0.1388  1.5363
 3180TIP3   OH231030   1.619   0.031   4.200 -0.2097 -0.4317  0.7213
 3180TIP3    H131031   1.542  -0.009   4.241 -0.1946 -0.0132  1.1759
 3180TIP3    H231032   1.628   0.115   4.245  0.6991 -0.6099  0.8879
 3181TIP3   OH231033   6.140   2.222   6.360  0.2201 -0.1877  0.1410
 3181TIP3    H131034   6.066   2.184   6.408 -0.2292 -1.5593 -1.5438
 3181TIP3    H231035   6.215   2.168   6.385  0.7086  1.1307  1.7572
 3182TIP3   OH231036   3.469   5.452   3.420 -0.3612 -0.1470 -0.2492
 3182TIP3    H131037   3.434   5.391   3.485  2.5365 -2.4131 -0.6154
 3182TIP3    H231038   3.497   5.528   3.471  0.9276 -1.4618  1.0949
 3183TIP3   OH231039   0.189   2.193  14.516 -0.4844 -0.2302 -0.3606
 3183TIP3    H131040   0.155   2.271  14.559 -2.0731 -1.3831  0.6033
 3183TIP3    H231041   0.174   2.209  14.422 -1.2114  0.4457 -0.1402
 3184TIP3   OH231042   3.382   5.279  12.652 -0.7384  0.0401  0.3103
 3184TIP3    H131043   3.341   5.354  12.695 -0.5366  0.7986 -0.7754
 3184TIP3    H231044   3.344   5.277  12.565 -0.1850 -0.6653  0.0732
 3185TIP3   OH231045   5.276   1.638   0.824 -0.1003  0.3899  0.4362
 3185TIP3    H131046   5.329   1.717   0.817  1.7676 -0.8781 -0.7384
 3185TIP3    H231047   5.205   1.651   0.761 -0.3349  1.4757  0.9041
 3186TIP3   OH231048   4.326   1.912   6.059  0.4214  0.8478  0.6404
 3186TIP3    H131049   4.339   1.895   6.152 -0.1668  0.0805  0.5905
 3186TIP3    H231050   4.263   1.984   6.056 -0.4734  0.0885  0.8381
 3187TIP3   OH231051   5.285   2.694   3.956  0.7084  0.1269  0.1172
 3187TIP3    H131052   5.347   2.705   3.883  0.7590 -0.8665 -0.0052
 3187TIP3    H231053   5.271   2.783   3.989  2.9439  0.3030  0.7487
 3188TIP3   OH231054   5.533   0.180   4.762  0.1078 -0.0327  0.5195
 3188TIP3    H131055   5.575   0.250   4.813  1.8926 -1.0378  0.5127
 3188TIP3    H231056   5.450   0.165   4.807  0.3393  1.1104  1.3812
 3189TIP3   OH231057   4.170   2.629   1.775 -0.2519 -0.1363  0.2624
 3189TIP3    H131058   4.240   2.608   1.837 -1.4212 -1.0158  1.3282
 3189TIP3    H231059   4.094   2.646   1.829 -0.7683  1.3443 -0.8633
 3190TIP3   OH231060   3.951   4.016  13.179 -0.5365  0.2526  0.0076
 3190TIP3    H131061   3.879   3.955  13.163 -0.0159 -0.2083 -0.6575
 3190TIP3    H231062   4.001   3.976  13.250 -0.0392 -0.2521 -0.6145
 3191TIP3   OH231063   6.294   2.199   1.028  0.0527  0.4588 -0.0281
 3191TIP3    H131064   6.255   2.191   1.115 -1.0623  1.4393 -0.4157
 3191TIP3    H231065   6.221   2.223   0.971  0.9855  0.9975 -1.0304
 3192TIP3   OH231066   5.955   5.248   3.674  0.2343  0.5400  0.0718
 3192TIP3    H131067   5.909   5.250   3.758 -0.9800  4.2086 -0.5042
 3192TIP3    H231068   5.886   5.264   3.609  1.0832 -2.5506 -1.7661
 3193TIP3   OH231069   0.044   1.850  11.143 -0.6338 -0.0874 -0.2338
 3193TIP3    H131070  -0.002   1.831  11.061  1.2436 -1.4224 -1.0681
 3193TIP3    H231071   0.062   1.944  11.139 -0.8593 -0.0729 -1.1917
 3194TIP3   OH231072   4.603   5.210  13.121 -0.2072 -0.5360  0.2883
 3194TIP3    H131073   4.587   5.299  13.089  1.9581  0.6197  2.0907
 3194TIP3    H231074   4.548   5.202  13.199 -3.3434 -2.3253 -1.8699
 3195TIP3   OH231075   3.370   1.804   0.076  0.1498  0.2956  0.7794
 3195TIP3    H131076   3.421   1.767   0.148 -0.7994  0.3963  1.5246
 3195TIP3    H231077   3.294   1.844   0.118 -1.0428 -0.6690 -0.3630
 3196TIP3   OH231078   3.531   4.907   6.236 -0.1847  0.6381 -0.2767
 3196TIP3    H131079   3.507   4.815   6.227  2.8176 -0.2485 -0.1174
 3196TIP3    H231080   3.534   4.922   6.330  2.9253 -0.2804 -0.1116
 3197TIP3   OH231081   6.604   6.352  13.752  0.1995  0.2317 -0.1088
 3197TIP3    H131082   6.539   6.352  13.822 -0.3350 -0.4572 -0.5863
 3197TIP3    H231083   6.665   6.422  13.775 -0.5173  0.6568  0.5282
 3198TIP3   OH231084   3.662   1.137  17.237 -0.0534 -0.0856  0.1122
 3198TIP3    H131085   3.721   1.208  17.211 -0.1667  0.1231  0.4183
 3198TIP3    H231086   3.654   1.083  17.159  0.9985 -0.4338  0.2367
 3199TIP3   OH231087   6.226   3.119  11.267 -0.0141 -0.0313  0.2688
 3199TIP3    H131088   6.318   3.130  11.292 -0.0529 -0.1618  0.4700
 3199TIP3    H231089   6.227   3.042  11.209  0.0705  0.2507 -0.1118
 3200TIP3   OH231090   3.483   3.651   5.069 -0.3717  0.3186  0.5073
 3200TIP3    H131091   3.492   3.578   5.008  2.1742  0.2864  0.8134
 3200TIP3    H231092   3.446   3.612   5.149 -1.3909 -0.0967 -0.1426
 3201TIP3   OH231093   0.052   0.039   3.311  0.4471 -0.3595  0.1535
 3201TIP3    H131094   0.126   0.072   3.362  2.2573  0.0618 -2.5804
 3201TIP3    H231095   0.002   0.117   3.288 -0.5209 -0.5765  1.4007
 3202TIP3   OH231096   4.552   5.445  12.439 -0.2111  0.4390 -0.9433
 3202TIP3    H131097   4.632   5.392  12.437  0.7380  1.8237 -1.9162
 3202TIP3    H231098   4.555   5.496  12.358 -1.7738  0.9848 -0.6926
 3203TIP3   OH231099   5.072   0.682   3.916 -0.2796 -0.0249  0.2314
 3203TIP3    H131100   5.143   0.623   3.942  0.7271  0.9817 -0.1097
 3203TIP3    H231101   5.079   0.687   3.820 -0.9035 -0.0262  0.1823
 3204TIP3   OH231102   6.819   2.994  12.386  0.4197 -0.3378 -0.2008
 3204TIP3    H131103   6.828   3.086  12.408 -1.5504 -0.1932  0.1858
 3204TIP3    H231104   6.725   2.976  12.394  0.9260 -2.8560  1.6967
 3205TIP3   OH231105   4.798   2.826  11.321  0.0717  0.0091 -0.2693
 3205TIP3    H131106   4.813   2.751  11.263  0.0718  0.4244 -0.8190
 3205TIP3    H231107   4.879   2.876  11.317 -0.1175  0.3150 -0.3287
 3206TIP3   OH231108   2.856   6.425  15.447 -0.7143 -0.1001 -0.6622
 3206TIP3    H131109   2.901   6.343  15.469  0.1105  0.5692  0.2711
 3206TIP3    H231110   2.813   6.407  15.363 -2.2886 -2.1362  0.4780
 3207TIP3   OH231111   2.055   6.488   0.911 -0.1198 -0.1100 -0.5449
 3207TIP3    H131112   2.059   6.489   1.007 -0.1706 -0.4301 -0.5386
 3207TIP3    H231113   2.072   6.397   0.887  0.6902  0.1161 -0.8752
 3208TIP3   OH231114   2.764   0.412  13.995  0.3470  0.4755  0.2342
 3208TIP3    H131115   2.728   0.324  13.994 -0.7628  0.9135  0.0429
 3208TIP3    H231116   2.703   0.463  13.942  1.1184  1.3030  0.1204
 3209TIP3   OH231117   6.747   3.325   2.608  0.0379  0.0346  0.2226
 3209TIP3    H131118   6.807   3.298   2.678  0.7043 -0.6141 -0.5784
 3209TIP3    H231119   6.801   3.377   2.549  0.1170 -1.4200 -1.0563
 3210TIP3   OH231120   6.291   1.798  11.734 -0.5718  0.2101  0.5028
 3210TIP3    H131121   6.380   1.815  11.767 -1.2007  1.3930  1.7287
 3210TIP3    H231122   6.245   1.881  11.748 -1.7222 -0.2058 -0.6620
 3211TIP3   OH231123   6.607   3.125   5.336 -0.1704 -0.1908  0.0144
 3211TIP3    H131124   6.648   3.040   5.353 -1.5715 -0.6991  1.0146
 3211TIP3    H231125   6.530   3.126   5.392  0.8237  2.5545  1.5198
 3212TIP3   OH231126   6.298   5.218   1.605 -0.3022  0.6182 -0.4108
 3212TIP3    H131127   6.305   5.175   1.690 -0.2229  1.0045 -0.2199
 3212TIP3    H231128   6.213   5.190   1.571 -1.2416  1.9952  0.6630
 3213TIP3   OH231129   2.042   3.065   3.989 -0.2374  0.5677  0.6340
 3213TIP3    H131130   2.018   3.154   3.966  1.9845  0.7762 -1.3073
 3213TIP3    H231131   2.099   3.075   4.065  1.2602  1.0478 -0.4874
 3214TIP3   OH231132   6.061   2.022   1.405 -0.6389 -0.3387  0.0538
 3214TIP3    H131133   6.074   1.997   1.314 -0.0624  0.3063 -0.0472
 3214TIP3    H231134   5.994   2.090   1.402 -2.3547 -1.9265  0.3464
 3215TIP3   OH231135   5.171   4.601  17.109 -0.0860  0.1005 -0.3227
 3215TIP3    H131136   5.198   4.531  17.168  0.1981 -0.7915 -1.4721
 3215TIP3    H231137   5.253   4.638  17.076 -0.2416 -0.1876 -1.0477
 3216TIP3   OH231138   0.477   6.446  15.767  0.3953  0.1828 -0.2496
 3216TIP3    H131139   0.469   6.523  15.711  1.2459 -0.7692 -1.7427
 3216TIP3    H231140   0.509   6.480  15.851 -0.1066  1.5428 -0.5801
 3217TIP3   OH231141   2.524   3.253  11.302  0.1287 -0.5496  0.7525
 3217TIP3    H131142   2.594   3.295  11.252 -0.2455  0.5541  1.1310
 3217TIP3    H231143   2.487   3.189  11.241  1.7749 -1.5083  0.7145
 3218TIP3   OH231144   4.156   6.645  12.982  0.3700  0.1689 -0.2250
 3218TIP3    H131145   4.200   6.562  12.997 -0.1637 -0.1240 -0.2697
 3218TIP3    H231146   4.069   6.621  12.951  0.2731  0.7446 -0.4111
 3219TIP3   OH231147   1.891   1.933   1.889 -0.2369 -0.2300 -0.2069
 3219TIP3    H131148   1.889   1.963   1.798  0.9749  2.1662  0.4700
 3219TIP3    H231149   1.802   1.904   1.906 -0.9695  0.9995 -1.6609
 3220TIP3   OH231150   6.251   2.141  12.077 -0.2723 -0.3563  0.9486
 3220TIP3    H131151   6.345   2.153  12.070 -0.0796 -0.7738  2.5212
 3220TIP3    H231152   6.215   2.230  12.077  0.0232 -0.2147 -0.4792
 3221TIP3   OH231153   2.437   5.455   0.060 -0.2883 -0.1113  0.2112
 3221TIP3    H131154   2.431   5.472  -0.034  0.0815 -0.4387  0.1261
 3221TIP3    H231155   2.450   5.361   0.067 -1.6678 -0.2917  0.6601
 3222TIP3   OH231156   2.891   6.170  11.298 -0.2194  0.7514  0.0830
 3222TIP3    H131157   2.834   6.093  11.305  0.4365  0.2382 -0.2124
 3222TIP3    H231158   2.831   6.241  11.273 -0.4917 -0.1281 -1.9728
 3223TIP3   OH231159   2.977   4.362  10.268 -0.4702  0.1945  0.3905
 3223TIP3    H131160   2.985   4.447  10.312  0.6872  0.4370 -0.2471
 3223TIP3    H231161   2.905   4.318  10.313  0.0355  0.8340  1.8840
 3224TIP3   OH231162   4.816   5.988  16.609  0.0802 -0.2832 -0.1667
 3224TIP3    H131163   4.844   6.058  16.549 -0.0923 -2.8385 -3.5480
 3224TIP3    H231164   4.896   5.944  16.635  0.0068 -0.6682 -0.5733
 3225TIP3   OH231165   0.960   4.785  16.976  0.3054  0.3241 -0.3350
 3225TIP3    H131166   0.869   4.756  16.969  0.6998 -0.6401 -1.6895
 3225TIP3    H231167   0.963   4.866  16.926  0.3460  0.0040 -0.8493
 3226TIP3   OH231168   4.376   4.783  11.899 -0.0117 -0.3362 -0.1676
 3226TIP3    H131169   4.370   4.846  11.970  1.6830 -0.2754 -0.0328
 3226TIP3    H231170   4.287   4.752  11.886 -0.2058 -1.2255  2.7578
 3227TIP3   OH231171   0.867   0.996   1.367  0.3401 -0.1014 -0.4692
 3227TIP3    H131172   0.956   0.968   1.343  0.6031 -0.3037  0.6602
 3227TIP3    H231173   0.868   1.091   1.353  1.1140  0.0714  0.5696
 3228TIP3   OH231174   2.562   5.325   5.267  0.1119  0.2785 -0.1971
 3228TIP3    H131175   2.526   5.246   5.227  0.3890  0.4683 -0.8413
 3228TIP3    H231176   2.486   5.375   5.296 -0.2045  0.8368 -1.8572
 3229TIP3   OH231177   0.419   4.934   4.127  0.0595 -0.4226 -0.4742
 3229TIP3    H131178   0.383   5.022   4.132 -0.9547 -0.7210 -1.8816
 3229TIP3    H231179   0.385   4.889   4.204  0.7412  0.4480  0.3566
 3230TIP3   OH231180   0.811   0.145  17.083 -0.0401 -0.4278  0.3738
 3230TIP3    H131181   0.897   0.186  17.075 -0.3711  0.1337 -0.5164
 3230TIP3    H231182   0.750   0.220  17.086 -0.3595 -0.6845  3.6119
 3231TIP3   OH231183   2.360   0.685   5.757 -0.2051 -0.3162  0.1865
 3231TIP3    H131184   2.430   0.750   5.756 -0.6552  0.1759 -0.2453
 3231TIP3    H231185   2.398   0.609   5.802  0.6133 -0.0726 -0.0654
 3232TIP3   OH231186   2.643   5.607  14.966 -0.4289  0.3161  0.2582
 3232TIP3    H131187   2.675   5.523  14.934 -1.7713  0.1990 -0.8493
 3232TIP3    H231188   2.699   5.672  14.924  0.4123  0.0128  0.8770
 3233TIP3   OH231189   0.590   1.179   1.527 -0.5867 -0.0233 -0.9506
 3233TIP3    H131190   0.557   1.108   1.472 -0.6664 -0.8894  0.1651
 3233TIP3    H231191   0.646   1.135   1.591  0.0379  1.0330 -0.7447
 3234TIP3   OH231192   4.185   3.495  16.017 -0.0779 -0.0025  0.1881
 3234TIP3    H131193   4.206   3.524  16.106  0.1685 -1.4963  0.6335
 3234TIP3    H231194   4.135   3.414  16.029 -2.1520  1.0222 -0.9812
 3235TIP3   OH231195   0.783   5.162  12.220 -0.4522  0.0601  0.1516
 3235TIP3    H131196   0.702   5.202  12.190 -1.1734  0.1938  2.1199
 3235TIP3    H231197   0.772   5.068  12.202 -1.6641 -0.1192  1.5776
 3236TIP3   OH231198   2.757   1.050   4.533  0.0802 -0.4863  0.0789
 3236TIP3    H131199   2.666   1.056   4.563  0.2531  2.0151  0.3000
 3236TIP3    H231200   2.773   0.956   4.525 -2.5621 -1.0023 -0.1101
 3237TIP3   OH231201   1.958   0.099   0.205 -0.1679 -0.4451  0.3160
 3237TIP3    H131202   2.040   0.107   0.254 -0.9261  1.0742  1.4127
 3237TIP3    H231203   1.985   0.093   0.113  1.1289  2.7284  0.3904
 3238TIP3   OH231204   3.394   5.934   1.609  0.3280 -0.1708  0.3446
 3238TIP3    H131205   3.405   5.855   1.662  2.9939 -0.8384 -1.0244
 3238TIP3    H231206   3.355   5.903   1.527 -0.0284  0.2068  0.3643
 3239TIP3   OH231207   4.491   4.495   6.093 -0.5822 -0.0139 -0.2626
 3239TIP3    H131208   4.493   4.458   6.005  2.0516 -0.5027 -0.0959
 3239TIP3    H231209   4.509   4.421   6.151  3.2153  1.0136  0.1859
 3240TIP3   OH231210   0.149   2.408  13.871 -0.0039  0.0478 -0.9473
 3240TIP3    H131211   0.181   2.389  13.783 -1.3170  0.8770 -1.6330
 3240TIP3    H231212   0.133   2.502  13.871  1.9691  0.4604  0.8834
 3241TIP3   OH231213   5.522   1.304  13.869 -0.3924  0.0516  0.3060
 3241TIP3    H131214   5.584   1.333  13.936  1.0633  0.1432 -1.0288
 3241TIP3    H231215   5.539   1.210  13.859  0.3196  0.2880 -0.8341
 3242TIP3   OH231216   1.575   4.525   2.007  0.0578 -0.3395 -0.1346
 3242TIP3    H131217   1.482   4.536   2.026  0.1904 -0.0168  0.3629
 3242TIP3    H231218   1.612   4.487   2.087  0.2182 -1.2235 -0.6143
 3243TIP3   OH231219   2.586   5.505  13.282 -0.2993  0.2851 -0.7290
 3243TIP3    H131220   2.663   5.472  13.237  0.0609 -0.2330  0.2344
 3243TIP3    H231221   2.603   5.599  13.294 -0.6021  0.5219 -2.0393
 3244TIP3   OH231222   5.144   5.523   5.022  0.0991 -0.4049  0.2467
 3244TIP3    H131223   5.158   5.606   4.977 -1.0865  0.7447  1.8497
 3244TIP3    H231224   5.174   5.540   5.111 -3.0046 -0.5713  1.4736
 3245TIP3   OH231225   4.720   0.103   0.998 -0.7616 -0.3960 -0.0275
 3245TIP3    H131226   4.645   0.056   0.960 -0.5986 -0.5876 -0.1134
 3245TIP3    H231227   4.778   0.119   0.924  0.2118 -2.0023  0.3541
 3246TIP3   OH231228   0.227   1.547  11.063 -0.6015  0.2202 -0.5240
 3246TIP3    H131229   0.171   1.624  11.053 -0.6313  0.6973  2.4605
 3246TIP3    H231230   0.167   1.475  11.083 -0.4464 -0.2689 -1.7281
 3247TIP3   OH231231   5.375   3.509   6.862  0.4272  0.3326  0.0786
 3247TIP3    H131232   5.388   3.422   6.824  0.3430 -0.2087  1.2617
 3247TIP3    H231233   5.388   3.569   6.788 -1.8820 -0.7695 -1.3284
 3248TIP3   OH231234   4.015   6.294   4.984  0.0561 -0.5530 -0.0041
 3248TIP3    H131235   3.924   6.309   4.956  0.5242 -0.0448 -1.3309
 3248TIP3    H231236   4.050   6.382   4.997  1.2714 -0.5383 -2.6550
 3249TIP3   OH231237   6.604   0.083   4.888  0.0860 -0.5190  0.0727
 3249TIP3    H131238   6.567  -0.000   4.860  0.0166 -0.0532 -1.2771
 3249TIP3    H231239   6.541   0.149   4.858  1.4992  0.2156 -1.4568
 3250TIP3   OH231240   2.444   1.422   2.143  0.0846  0.1187  0.4580
 3250TIP3    H131241   2.426   1.489   2.078 -2.4885 -1.2296 -0.3842
 3250TIP3    H231242   2.437   1.467   2.227  1.6444  1.5051 -0.1211
 3251TIP3   OH231243   1.792   3.339   1.399  0.2249 -0.1284 -0.5397
 3251TIP3    H131244   1.863   3.276   1.409  1.3211  1.1176 -0.0751
 3251TIP3    H231245   1.749   3.341   1.485  0.7851  0.4259 -0.2672
 3252TIP3   OH231246   3.843   3.555   4.221  0.3281  0.3084  0.0080
 3252TIP3    H131247   3.757   3.579   4.257 -0.1663 -1.7821  0.3599
 3252TIP3    H231248   3.894   3.528   4.297  1.9356  3.0113  0.0324
 3253TIP3   OH231249   1.234   1.934  15.510 -0.1636  0.2765 -0.4718
 3253TIP3    H131250   1.319   1.910  15.547  0.1850 -0.7339 -1.8657
 3253TIP3    H231251   1.182   1.961  15.586  1.9135  2.6539  0.2592
 3254TIP3   OH231252   1.221   4.913  14.029 -0.2086 -0.0090  0.6439
 3254TIP3    H131253   1.198   5.002  14.002  0.7833  1.1475  3.2277
 3254TIP3    H231254   1.157   4.892  14.098  0.3113 -0.8182  0.8950
 3255TIP3   OH231255   1.032   1.149  14.823  0.2155  0.5519 -0.2563
 3255TIP3    H131256   1.001   1.212  14.889  1.6181 -2.0035  3.1707
 3255TIP3    H231257   0.952   1.108  14.790 -0.5951 -0.5197  2.6449
 3256TIP3   OH231258   6.768   6.448   3.671 -0.2892  0.0224  0.0829
 3256TIP3    H131259   6.835   6.510   3.642 -0.0790 -0.5553 -0.7032
 3256TIP3    H231260   6.705   6.502   3.720  0.7574  0.5682  0.8834
 3257TIP3   OH231261   1.200   4.034  14.491  0.2983  0.1086  0.4867
 3257TIP3    H131262   1.153   4.094  14.433 -0.7830 -0.6372  0.5479
 3257TIP3    H231263   1.256   3.983  14.432 -1.4444 -1.2477 -0.0796
 3258TIP3   OH231264   5.939   2.832  16.971  0.0717  0.0187  0.3327
 3258TIP3    H131265   5.922   2.819  16.878 -1.1234  2.0117  0.2076
 3258TIP3    H231266   5.935   2.744  17.009 -2.5874 -0.5652 -1.0394
 3259TIP3   OH231267   2.357   0.799  17.128  0.1410  0.3667  0.7866
 3259TIP3    H131268   2.333   0.759  17.211 -1.0289 -0.0950  0.2484
 3259TIP3    H231269   2.353   0.893  17.145  1.5883  0.2962  1.6929
 3260TIP3   OH231270   4.316   2.399  16.230 -0.2731  0.3287 -0.5977
 3260TIP3    H131271   4.393   2.429  16.182 -0.2437 -0.8122 -1.2928
 3260TIP3    H231272   4.242   2.443  16.187 -0.4124 -1.7513 -2.7524
 3261TIP3   OH231273   1.133   0.738   5.116 -0.0747  0.4834  0.7383
 3261TIP3    H131274   1.170   0.808   5.169  0.4883  0.0825  0.8776
 3261TIP3    H231275   1.038   0.751   5.122  0.0382  1.8454 -0.0691
 3262TIP3   OH231276   4.106   1.208  16.395  0.3331 -0.0227 -0.0352
 3262TIP3    H131277   4.175   1.141  16.391  0.3396  0.0046 -0.5114
 3262TIP3    H231278   4.086   1.226  16.303  0.0326  0.3255  0.0987
 3263TIP3   OH231279   6.414   5.496  15.585  0.7692 -0.3093 -0.5320
 3263TIP3    H131280   6.442   5.495  15.493  2.9587  1.4919  0.0382
 3263TIP3    H231281   6.473   5.435  15.629 -0.5775 -1.5361 -0.3339
 3264TIP3   OH231282   6.341   3.125   0.607 -0.3430  0.3108  0.2243
 3264TIP3    H131283   6.346   3.219   0.586 -0.9102  0.4812  0.8142
 3264TIP3    H231284   6.256   3.098   0.572 -0.1310 -0.0092 -0.0426
 3265TIP3   OH231285   6.601   5.569  15.072  0.0191 -0.5772 -0.5074
 3265TIP3    H131286   6.571   5.659  15.058  0.5826 -0.3927 -0.5805
 3265TIP3    H231287   6.560   5.518  15.002 -1.1329 -0.5756  0.1485
 3266TIP3   OH231288   0.051   0.979  12.147  0.2228 -0.6182  0.2957
 3266TIP3    H131289   0.006   1.062  12.132 -0.5531 -1.1956 -0.7014
 3266TIP3    H231290   0.121   0.977  12.081  1.5550  0.1328  1.6344
 3267TIP3   OH231291   1.066   2.317  17.182  0.3974 -0.0772  0.1725
 3267TIP3    H131292   1.042   2.225  17.175  1.6200 -0.4574  0.7447
 3267TIP3    H231293   1.160   2.319  17.167  0.2663  1.1946 -0.6565
 3268TIP3   OH231294   0.272   3.796   3.471 -0.2529  0.3803  0.4857
 3268TIP3    H131295   0.348   3.815   3.416 -2.2270 -0.3322 -2.7229
 3268TIP3    H231296   0.231   3.882   3.486  0.3912  0.5987  1.0421
 3269TIP3   OH231297   3.361   3.775   4.479 -0.0193  0.0288  0.2905
 3269TIP3    H131298   3.361   3.756   4.573 -2.5120 -0.4198  0.2528
 3269TIP3    H231299   3.320   3.862   4.473 -0.6547 -0.3178 -0.4338
 3270TIP3   OH231300   2.935   3.998  14.849  0.0459 -0.0621 -0.3835
 3270TIP3    H131301   2.852   4.039  14.825 -0.6783 -0.2117  1.7104
 3270TIP3    H231302   2.999   4.070  14.848 -0.1033  0.0807 -1.8309
 3271TIP3   OH231303   2.209   6.689  12.196 -0.5344  0.0471 -0.3179
 3271TIP3    H131304   2.211   6.727  12.108  0.5907 -0.9597 -0.7579
 3271TIP3    H231305   2.230   6.762  12.254  0.2159  0.4024 -1.0206
 3272TIP3   OH231306   0.372   5.787  12.286 -0.2969  1.0067  0.4489
 3272TIP3    H131307   0.407   5.741  12.363  0.5679  1.5564  0.4024
 3272TIP3    H231308   0.284   5.814  12.313 -0.6292 -0.2247  0.6499
 3273TIP3   OH231309   5.577   0.034   0.755  0.3130 -0.5327 -0.0967
 3273TIP3    H131310   5.577  -0.017   0.836  0.8711  1.7567  1.4374
 3273TIP3    H231311   5.663   0.077   0.754 -0.4911  1.1581 -0.7522
 3274TIP3   OH231312   3.886   5.649   3.160 -0.4358  0.2927 -0.1769
 3274TIP3    H131313   3.897   5.737   3.125  0.0644  0.9537  1.5320
 3274TIP3    H231314   3.974   5.617   3.175 -0.6016  0.6486  1.8340
 3275TIP3   OH231315   1.151   5.641   4.683 -0.0194  0.6573  0.2210
 3275TIP3    H131316   1.245   5.655   4.689  0.2290 -0.5007 -0.5871
 3275TIP3    H231317   1.142   5.552   4.650 -1.3627  1.3939 -1.5831
 3276TIP3   OH231318   2.627   0.166   6.151  0.3561 -1.1779  0.2564
 3276TIP3    H131319   2.694   0.203   6.094  0.9976 -1.9206  0.5099
 3276TIP3    H231320   2.579   0.241   6.185  0.8822 -0.6581 -0.1465
 3277TIP3   OH231321   2.031   4.720   3.597 -0.0504 -0.2690 -0.0841
 3277TIP3    H131322   2.001   4.779   3.529 -1.8601 -0.9592  0.0584
 3277TIP3    H231323   1.960   4.718   3.661  0.8914 -0.9319  0.9953
 3278TIP3   OH231324   3.997   5.671   4.327  0.7355  0.0924  0.0363
 3278TIP3    H131325   4.045   5.687   4.246  0.0291 -1.6008 -0.7626
 3278TIP3    H231326   3.913   5.714   4.314  0.7509  0.1213  0.0307
 3279TIP3   OH231327   6.038   6.489  13.076  0.0515  0.3304 -0.0170
 3279TIP3    H131328   6.020   6.420  13.140  0.2030  0.5498  0.2667
 3279TIP3    H231329   6.097   6.549  13.122  1.6973 -0.4804 -0.9792
 3280TIP3   OH231330   1.839   5.423   3.062  0.4362 -0.0997 -0.8355
 3280TIP3    H131331   1.836   5.496   3.123  0.2193 -0.6162 -0.2139
 3280TIP3    H231332   1.790   5.353   3.106  1.5962 -0.9886 -0.9162
 3281TIP3   OH231333   3.699   0.170  14.299 -0.1280 -0.1824  0.3841
 3281TIP3    H131334   3.737   0.089  14.265 -1.6707 -1.4466  1.4989
 3281TIP3    H231335   3.737   0.180  14.386  0.0166  0.2575  0.2700
 3282TIP3   OH231336   4.177   3.822   4.676 -0.3136  0.2990  0.0059
 3282TIP3    H131337   4.108   3.826   4.742  0.9622 -1.0928  1.5091
 3282TIP3    H231338   4.225   3.904   4.686  0.3891 -0.2570  1.4525
 3283TIP3   OH231339   1.880   2.707  16.806  0.4518 -0.2918  0.2610
 3283TIP3    H131340   1.785   2.714  16.796  0.6314  0.3608 -1.1489
 3283TIP3    H231341   1.912   2.797  16.802  0.9574 -0.2418  3.1927
 3284TIP3   OH231342   1.002   6.627  16.322  0.0394  0.0436  0.7774
 3284TIP3    H131343   1.045   6.579  16.252 -0.6910 -0.4941  0.6860
 3284TIP3    H231344   0.976   6.710  16.283 -1.5138 -0.7603  0.0185
 3285TIP3   OH231345   3.611   0.707  16.747 -0.2832  0.0295 -0.4696
 3285TIP3    H131346   3.669   0.780  16.768 -0.0653  0.1300 -1.3770
 3285TIP3    H231347   3.658   0.658  16.680 -0.3526 -1.0486  0.2323
 3286TIP3   OH231348   6.607   1.459   5.131  0.0148 -0.2486 -0.3154
 3286TIP3    H131349   6.599   1.548   5.166  2.2680 -0.7547  1.7653
 3286TIP3    H231350   6.525   1.444   5.084 -0.6568  2.7112 -0.2913
 3287TIP3   OH231351   5.898   4.132   0.007  0.3149  0.6807  0.0585
 3287TIP3    H131352   5.918   4.038   0.010  0.1209  0.6551  2.1904
 3287TIP3    H231353   5.981   4.174  -0.016  1.2005  0.1319  2.0249
 3288TIP3   OH231354   3.693   5.213  13.488  0.3847 -0.3050 -0.1562
 3288TIP3    H131355   3.634   5.282  13.459  0.0947 -0.9622 -1.1833
 3288TIP3    H231356   3.781   5.251  13.478  0.1813  0.5355  1.0150
 3289TIP3   OH231357   1.890   6.390  14.811  0.2137 -0.8457  0.0128
 3289TIP3    H131358   1.843   6.308  14.829  0.3483 -0.7683  0.7398
 3289TIP3    H231359   1.983   6.367  14.818  0.3171 -0.9838 -1.3669
 3290TIP3   OH231360   5.686   6.171  13.532  0.6079 -0.4586 -0.0224
 3290TIP3    H131361   5.696   6.077  13.515  0.4000 -0.7254  1.1872
 3290TIP3    H231362   5.774   6.201  13.553  0.3548 -0.9289  1.9558
 3291TIP3   OH231363   2.776   1.398  10.661 -0.1714 -0.0202 -0.5089
 3291TIP3    H131364   2.819   1.403  10.576 -0.5262  1.8258 -0.6213
 3291TIP3    H231365   2.683   1.395  10.641 -0.2171 -2.2506 -0.2148
 3292TIP3   OH231366   5.258   1.106   2.052  0.5239 -0.1041 -0.2479
 3292TIP3    H131367   5.211   1.119   1.970  0.5954  0.7611 -0.1577
 3292TIP3    H231368   5.305   1.024   2.039 -0.0077 -0.3289 -0.8108
 3293TIP3   OH231369   3.862   2.230   2.500 -0.0224 -0.0005  0.2280
 3293TIP3    H131370   3.863   2.265   2.589  0.1909  0.1060  0.1867
 3293TIP3    H231371   3.778   2.186   2.492 -0.3862  0.6769  0.2142
 3294TIP3   OH231372   0.473   6.818   5.079 -0.5837 -0.2309  0.2177
 3294TIP3    H131373   0.541   6.750   5.087 -0.9894 -0.8511 -1.3619
 3294TIP3    H231374   0.522   6.898   5.060 -0.1614 -0.2233  1.2447
 3295TIP3   OH231375   0.238   4.144  13.241 -0.2743 -0.2006  0.0142
 3295TIP3    H131376   0.158   4.091  13.236 -0.0897 -0.4000 -1.3255
 3295TIP3    H231377   0.306   4.088  13.203  0.7952 -0.5056  2.2518
 3296TIP3   OH231378   6.185   3.293   5.286 -0.1228 -0.8880 -0.4831
 3296TIP3    H131379   6.124   3.363   5.265  0.3374 -0.0201  0.9142
 3296TIP3    H231380   6.131   3.214   5.291 -0.8081 -0.4655 -1.0592
 3297TIP3   OH231381   1.225   6.698  15.146 -0.0628 -0.2925 -0.4512
 3297TIP3    H131382   1.304   6.665  15.190  0.4213  1.1642 -0.1740
 3297TIP3    H231383   1.255   6.775  15.098 -1.0038 -0.6682 -1.7150
 3298TIP3   OH231384   1.089   6.646   5.270 -0.2619  0.1796 -0.4542
 3298TIP3    H131385   1.054   6.733   5.250  1.2971  1.2508  1.1952
 3298TIP3    H231386   1.022   6.604   5.324 -1.0300  0.3199 -1.2728
 3299TIP3   OH231387   0.486   5.492   1.997 -0.2160 -0.1966 -0.0592
 3299TIP3    H131388   0.563   5.481   2.052  0.4281  2.4663 -0.2937
 3299TIP3    H231389   0.417   5.519   2.057 -0.0882  0.5952 -0.2619
 3300TIP3   OH231390   5.282   1.930  13.655  0.1070  0.0586 -0.1724
 3300TIP3    H131391   5.359   1.985  13.638  1.2073 -1.4598 -0.3363
 3300TIP3    H231392   5.274   1.877  13.575 -0.6825 -0.2912  0.1365
 3301TIP3   OH231393   6.251   1.521  14.920 -0.4234  0.6210 -0.2537
 3301TIP3    H131394   6.299   1.569  14.852  0.3454 -1.0323 -0.9194
 3301TIP3    H231395   6.184   1.473  14.872 -0.2904 -0.0524  0.2296
 3302TIP3   OH231396   1.102   2.048  14.757  0.2000 -0.1660 -0.0635
 3302TIP3    H131397   1.149   2.080  14.680  0.8193 -1.3147 -0.1857
 3302TIP3    H231398   1.010   2.058  14.734  0.3746  0.2811 -0.6150
 3303TIP3   OH231399   4.143   1.375   2.930  0.0679  0.1408 -0.2466
 3303TIP3    H131400   4.225   1.402   2.972  0.6556 -0.4581 -0.9827
 3303TIP3    H231401   4.105   1.310   2.989 -0.1764  0.8329  0.3771
 3304TIP3   OH231402   1.349   2.986   3.950  0.0334  0.3625 -0.1734
 3304TIP3    H131403   1.265   2.970   3.993 -0.5437  1.2007 -0.9583
 3304TIP3    H231404   1.329   2.983   3.856  0.4190  2.7324 -0.3921
 3305TIP3   OH231405   0.619   2.542   3.751 -0.2574  0.2318 -0.1678
 3305TIP3    H131406   0.576   2.600   3.815  0.5889  0.3691  0.2902
 3305TIP3    H231407   0.695   2.508   3.797  0.4392  0.4227 -1.1497
 3306TIP3   OH231408   6.460   1.792   1.314  0.2021 -0.1972  0.7212
 3306TIP3    H131409   6.381   1.751   1.348 -0.3191  0.6504  0.5719
 3306TIP3    H231410   6.449   1.790   1.219  1.3875 -2.0369  0.5725
 3307TIP3   OH231411   1.438   2.506   1.657  0.0012  0.0137  0.0365
 3307TIP3    H131412   1.485   2.520   1.739  0.7883 -0.5892 -0.2970
 3307TIP3    H231413   1.356   2.464   1.682  1.6146 -3.2931  0.3294
 3308TIP3   OH231414   4.638   1.849  13.918 -0.0084 -0.4107  0.4489
 3308TIP3    H131415   4.709   1.869  13.856  0.3391  0.3339  1.0626
 3308TIP3    H231416   4.582   1.927  13.914  0.2313 -0.1837  1.3496
 3309TIP3   OH231417   2.894   4.097   1.603 -0.4642 -0.3526 -0.3116
 3309TIP3    H131418   2.852   4.028   1.653  1.1971  1.3881  3.9457
 3309TIP3    H231419   2.827   4.166   1.596 -0.2650 -0.0091  0.9667
 3310TIP3   OH231420   4.700   5.717  16.686 -0.3015 -0.4264  0.0173
 3310TIP3    H131421   4.722   5.700  16.778  0.3327 -0.4074 -0.1235
 3310TIP3    H231422   4.726   5.808  16.671 -1.1568 -0.1711  0.0336
 3311TIP3   OH231423   2.515   4.732   0.072  0.3635  0.0455  0.2046
 3311TIP3    H131424   2.470   4.723  -0.012 -0.9926  1.7588  0.6742
 3311TIP3    H231425   2.601   4.769   0.049  1.1871 -2.1966 -0.6087
 3312TIP3   OH231426   3.835   2.687   1.086 -0.4191 -0.0401 -0.1626
 3312TIP3    H131427   3.904   2.742   1.123 -0.6653 -0.3264  0.7680
 3312TIP3    H231428   3.754   2.733   1.110 -0.5950 -0.4126 -0.0372
 3313TIP3   OH231429   3.131   2.177  15.574  0.1059 -0.4874  0.1024
 3313TIP3    H131430   3.062   2.166  15.509  0.1786 -0.0403 -0.0490
 3313TIP3    H231431   3.126   2.097  15.627 -1.0501 -0.1219  0.5871
 3314TIP3   OH231432   1.132   0.572  12.731 -0.5697  0.0292  0.3444
 3314TIP3    H131433   1.059   0.561  12.792 -1.8458  0.2398 -1.1013
 3314TIP3    H231434   1.126   0.663  12.703 -0.1037 -0.1187 -0.2435
 3315TIP3   OH231435   6.789   5.734   4.942 -0.4082 -0.0385  0.7531
 3315TIP3    H131436   6.801   5.818   4.899 -0.3258 -0.3496  0.1648
 3315TIP3    H231437   6.694   5.719   4.939 -0.4581  0.1750  1.1394
 3316TIP3   OH231438   4.946   1.080   3.394 -0.1909  0.3723  0.7378
 3316TIP3    H131439   4.954   1.174   3.376  0.4256  0.1854 -0.0102
 3316TIP3    H231440   5.032   1.044   3.370 -0.7430 -0.5345  0.0687
 3317TIP3   OH231441   3.815   2.145  17.051 -0.2228  0.4417 -0.0263
 3317TIP3    H131442   3.805   2.197  17.130 -0.1804  2.2444 -1.1546
 3317TIP3    H231443   3.727   2.143  17.012 -0.1532 -0.0492 -0.1696
 3318TIP3   OH231444   4.683   5.633  13.552  0.5651  0.4508 -0.1064
 3318TIP3    H131445   4.736   5.580  13.611  0.8581  0.7588 -0.0868
 3318TIP3    H231446   4.746   5.683  13.500  0.3287 -0.4211 -1.2645
 3319TIP3   OH231447   1.616   2.761   4.298  0.2142 -0.4548  0.6685
 3319TIP3    H131448   1.615   2.726   4.209  0.3337 -1.1752  0.9445
 3319TIP3    H231449   1.708   2.757   4.324  0.1473 -0.4552  0.9056
 3320TIP3   OH231450   6.687   5.280  14.422  0.6943  0.2295  0.2064
 3320TIP3    H131451   6.715   5.356  14.474  2.2391 -0.6915  0.7694
 3320TIP3    H231452   6.735   5.289  14.339  2.3533 -1.0755  0.9764
 3321TIP3   OH231453   5.502   1.650  13.174 -1.1330 -0.4915 -0.3206
 3321TIP3    H131454   5.448   1.593  13.228 -1.0883  1.1073  1.5078
 3321TIP3    H231455   5.592   1.623  13.193 -1.0699  0.6488  1.1818
 3322TIP3   OH231456   1.253   3.244  12.077 -0.3377 -0.2372 -0.4659
 3322TIP3    H131457   1.292   3.329  12.096  0.8380 -0.9371  0.3899
 3322TIP3    H231458   1.235   3.246  11.983  0.7327  0.5302 -0.6723
 3323TIP3   OH231459   5.482   0.055   3.838 -0.1246  0.4005  0.2632
 3323TIP3    H131460   5.408   0.103   3.798 -0.3173 -1.4331 -1.7834
 3323TIP3    H231461   5.444  -0.029   3.865  0.9827 -0.1483  0.1626
 3324TIP3   OH231462   2.774   0.326   3.385  0.5460  0.1525 -0.1147
 3324TIP3    H131463   2.693   0.357   3.345 -0.7129 -2.4587  0.2052
 3324TIP3    H231464   2.801   0.252   3.331 -0.1574 -2.2595  2.5259
 3325TIP3   OH231465   5.524   4.664  15.996  0.8211  0.3477 -0.1167
 3325TIP3    H131466   5.597   4.613  15.960  1.3708  0.9394  0.1407
 3325TIP3    H231467   5.548   4.678  16.087 -0.6644 -1.3426  0.6105
 3326TIP3   OH231468   5.669   5.337  15.031  0.1039 -0.6939  0.1714
 3326TIP3    H131469   5.589   5.342  15.084 -0.2600 -0.8453 -0.3537
 3326TIP3    H231470   5.680   5.424  14.994 -0.9124 -1.1474 -1.3067
 3327TIP3   OH231471   1.063   4.128   1.470  0.4499 -0.8996  0.0422
 3327TIP3    H131472   1.083   4.199   1.531  0.2509 -1.3321  0.6288
 3327TIP3    H231473   1.099   4.050   1.513  0.7136 -1.1439 -0.6193
 3328TIP3   OH231474   1.469   0.457   4.803 -0.7902  0.1614 -0.7277
 3328TIP3    H131475   1.558   0.491   4.809 -0.6332 -0.4297  2.2869
 3328TIP3    H231476   1.413   0.532   4.822 -0.8509  0.2667 -1.3334
 3329TIP3   OH231477   5.298   1.866  15.381 -0.6149  0.3345  0.2253
 3329TIP3    H131478   5.253   1.816  15.450 -0.6895 -0.4818 -0.3985
 3329TIP3    H231479   5.332   1.799  15.321  1.4736  0.9022  0.6784
 3330TIP3   OH231480   1.956   2.429   6.434 -0.0916 -0.0045  0.3155
 3330TIP3    H131481   1.972   2.338   6.457 -1.4220 -0.3442 -0.0339
 3330TIP3    H231482   1.884   2.426   6.371  0.9227  1.1713 -0.9856
 3331TIP3   OH231483   2.340   4.908   0.220  0.0970  0.3405 -0.1205
 3331TIP3    H131484   2.414   4.848   0.212 -1.4178 -2.0536  2.1380
 3331TIP3    H231485   2.273   4.872   0.162 -0.2870  0.8108  0.0182
 3332TIP3   OH231486   1.214   0.303   4.710  0.5698 -0.0245 -0.4537
 3332TIP3    H131487   1.138   0.356   4.684 -0.4626 -0.5789  1.2673
 3332TIP3    H231488   1.274   0.366   4.749 -0.2664  0.0373  0.7808
 3333TIP3   OH231489   0.255   3.084   3.646 -0.2007 -0.3299  0.4648
 3333TIP3    H131490   0.243   3.027   3.570 -1.2382  0.6470 -0.1240
 3333TIP3    H231491   0.333   3.135   3.625  0.6862 -1.4387  0.9572
 3334TIP3   OH231492   1.842   2.436   5.842  0.0277  0.4869 -0.2092
 3334TIP3    H131493   1.754   2.399   5.831  0.2293  0.3426 -1.5285
 3334TIP3    H231494   1.840   2.518   5.794  1.1264 -0.4108 -1.9185
 3335TIP3   OH231495   0.313   2.104   2.447 -0.4489 -0.6170 -0.5459
 3335TIP3    H131496   0.399   2.065   2.431 -0.5520 -1.0208 -0.1121
 3335TIP3    H231497   0.271   2.105   2.361  0.3218  0.4124 -0.9436
 3336TIP3   OH231498   4.140   6.294   3.397 -0.0248  0.0318  0.1053
 3336TIP3    H131499   4.122   6.291   3.491  1.3575 -0.2939  0.3837
 3336TIP3    H231500   4.078   6.232   3.358 -0.8340  0.4162  0.7475
 3337TIP3   OH231501   5.928   1.532  13.957 -0.6975  0.4045  0.3374
 3337TIP3    H131502   5.837   1.505  13.967 -0.1246 -1.2883  1.2510
 3337TIP3    H231503   5.978   1.472  14.012  1.5419 -2.2513 -3.9514
 3338TIP3   OH231504   5.534   1.298  12.472  0.3167 -0.2410 -0.2757
 3338TIP3    H131505   5.577   1.250  12.543 -0.6875 -0.6914  0.0532
 3338TIP3    H231506   5.548   1.390  12.492 -2.3643 -0.2383  2.1437
 3339TIP3   OH231507   0.549   0.807  13.037 -0.1789  0.1264  0.1409
 3339TIP3    H131508   0.597   0.841  12.962 -0.2069  1.1306  0.5626
 3339TIP3    H231509   0.582   0.858  13.112  0.3669 -1.3363  0.9323
 3340TIP3   OH231510   3.425   5.424   4.200 -0.1702 -0.3369  0.4434
 3340TIP3    H131511   3.514   5.390   4.208 -0.9454 -3.1677 -1.4192
 3340TIP3    H231512   3.429   5.486   4.127  0.3764  0.0843  0.8198
 3341TIP3   OH231513   3.207   0.016   3.668 -0.0665 -0.0201 -0.0467
 3341TIP3    H131514   3.142   0.085   3.675  0.8967  0.9033 -0.0663
 3341TIP3    H231515   3.277   0.053   3.614  0.4744 -0.9956 -0.0396
 3342TIP3   OH231516   4.067   0.666   0.642 -0.1920 -0.5380  0.1041
 3342TIP3    H131517   4.054   0.574   0.617 -2.3362  0.0448 -1.1528
 3342TIP3    H231518   4.039   0.669   0.734  0.4980 -1.2256  0.3548
 3343TIP3   OH231519   4.396   3.360   3.951 -0.0878 -0.6658  0.4319
 3343TIP3    H131520   4.460   3.370   3.880 -0.6648  0.1994  0.0148
 3343TIP3    H231521   4.426   3.421   4.018  0.8008 -1.9190  1.2179
 3344TIP3   OH231522   2.993   5.632   0.331  0.2836  0.3617  0.4836
 3344TIP3    H131523   3.056   5.636   0.404  1.2282  2.6463 -0.3328
 3344TIP3    H231524   2.942   5.713   0.339 -1.0518 -0.3834 -0.1778
 3345TIP3   OH231525   1.141   3.998  11.390  0.0217  0.0839  0.4191
 3345TIP3    H131526   1.147   4.089  11.419  0.4646 -0.3479  1.7355
 3345TIP3    H231527   1.226   3.981  11.350 -0.1937  0.3500 -0.1640
 3346TIP3   OH231528   6.429   6.066  12.617  0.2108  0.1963  0.2503
 3346TIP3    H131529   6.360   6.120  12.579  0.4675 -1.0409 -2.2040
 3346TIP3    H231530   6.509   6.094  12.573  0.6645 -0.8062  0.3968
 3347TIP3   OH231531   1.423   0.022  11.783  0.2275 -0.1246 -0.2156
 3347TIP3    H131532   1.383   0.031  11.696  1.1533  0.2442 -0.6192
 3347TIP3    H231533   1.510  -0.014  11.765 -0.2876 -1.9349  0.7267
 3348TIP3   OH231534   0.158   5.937   0.989 -0.4115  0.0875 -0.1988
 3348TIP3    H131535   0.129   5.873   1.054 -0.2980  1.6993  1.5302
 3348TIP3    H231536   0.078   5.966   0.946 -0.9758  1.3827  1.5699
 3349TIP3   OH231537   0.843   1.316   5.120  0.0332 -0.1507 -0.0409
 3349TIP3    H131538   0.786   1.240   5.111  0.7738 -0.5709 -1.5771
 3349TIP3    H231539   0.785   1.386   5.151 -1.0427 -0.8789 -0.3544
 3350TIP3   OH231540   2.024   0.204   5.561 -0.0175 -0.1239  0.0450
 3350TIP3    H131541   2.003   0.124   5.610  0.4564 -0.5348 -0.4072
 3350TIP3    H231542   1.988   0.189   5.474  0.6055 -0.1027 -0.2209
 3351TIP3   OH231543   6.522   3.851   4.169  0.0923  0.4551 -0.6065
 3351TIP3    H131544   6.515   3.792   4.244 -0.7392  2.4429  0.9506
 3351TIP3    H231545   6.592   3.912   4.192 -1.7423  2.5648 -0.3078
 3352TIP3   OH231546   4.700   0.886  16.687 -0.7423  0.3124 -0.1080
 3352TIP3    H131547   4.792   0.871  16.664 -0.3557 -0.1071  1.5202
 3352TIP3    H231548   4.666   0.799  16.706 -0.5712  0.6897  2.2628
 3353TIP3   OH231549   2.179   0.247  16.812 -0.4127 -0.1308  0.4867
 3353TIP3    H131550   2.101   0.215  16.766 -0.5809  1.5126 -0.4438
 3353TIP3    H231551   2.145   0.300  16.884 -0.1301 -1.0996  1.3697
 3354TIP3   OH231552   0.319   3.395   1.058 -0.4558  0.2332 -0.3227
 3354TIP3    H131553   0.299   3.443   0.978  1.2775 -0.5497 -1.2774
 3354TIP3    H231554   0.325   3.463   1.126 -0.1583  1.1299 -1.2209
 3355TIP3   OH231555   2.164   0.473  11.949 -0.3538 -0.1881 -0.0690
 3355TIP3    H131556   2.232   0.441  12.007 -0.5563 -0.2326  0.1428
 3355TIP3    H231557   2.212   0.503  11.871 -0.1378 -0.7081 -0.1437
 3356TIP3   OH231558   6.122   4.545   4.445 -0.7907 -0.1119 -0.1798
 3356TIP3    H131559   6.183   4.511   4.380 -1.3587 -0.5591 -0.4974
 3356TIP3    H231560   6.157   4.631   4.469  0.2030 -0.5536 -0.0047
 3357TIP3   OH231561   1.048   2.319   4.785  0.0939  0.2300 -0.3612
 3357TIP3    H131562   1.016   2.314   4.695 -1.0436  2.2836 -0.1446
 3357TIP3    H231563   1.073   2.411   4.796  0.0103  0.0666  1.4665
 3358TIP3   OH231564   6.324   1.801   4.461  0.5310  0.2725  0.2164
 3358TIP3    H131565   6.392   1.845   4.411  1.2688 -0.8827  0.1797
 3358TIP3    H231566   6.309   1.858   4.537  2.3965 -0.0346  0.8545
 3359TIP3   OH231567   5.972   1.227  11.457 -0.3382 -0.0251  0.0004
 3359TIP3    H131568   6.049   1.189  11.416 -0.3511 -0.1286  0.0724
 3359TIP3    H231569   5.935   1.285  11.390 -0.0068  0.2832  0.0826
 3360TIP3   OH231570   2.510   3.393  14.289 -0.0407 -0.4710 -0.2456
 3360TIP3    H131571   2.586   3.440  14.253  0.0632 -0.2906  0.2072
 3360TIP3    H231572   2.437   3.454  14.279  0.6149  1.0271  3.0080
 3361TIP3   OH231573   3.773   2.846  15.794  0.0048 -0.2184  0.0785
 3361TIP3    H131574   3.836   2.919  15.791  2.3524 -1.9949  2.0346
 3361TIP3    H231575   3.828   2.768  15.789 -2.3226 -1.9055 -0.5489
 3362TIP3   OH231576   3.887   5.249  16.554 -0.7779 -0.2119 -0.1127
 3362TIP3    H131577   3.911   5.166  16.596  3.4239 -0.0800 -1.8211
 3362TIP3    H231578   3.882   5.229  16.461 -0.0708  1.3457 -0.5241
 3363TIP3   OH231579   4.839   3.313  13.721 -0.5314 -0.2000  0.3785
 3363TIP3    H131580   4.818   3.309  13.627 -2.4751 -1.2402  0.8238
 3363TIP3    H231581   4.931   3.341  13.723 -0.5351  0.1472 -1.8226
 3364TIP3   OH231582   1.871   3.455  12.981  0.4275 -0.5061 -0.3684
 3364TIP3    H131583   1.865   3.551  12.985 -2.4692 -0.6029 -0.4550
 3364TIP3    H231584   1.871   3.427  13.073  1.1427 -0.4355 -0.3448
 3365TIP3   OH231585   0.134   3.043   2.723  0.5814  0.3801  0.4763
 3365TIP3    H131586   0.192   3.116   2.743  1.8664 -0.9514  1.8246
 3365TIP3    H231587   0.191   2.974   2.688 -0.7176  0.2637 -1.6689
 3366TIP3   OH231588   2.101   6.174  16.122 -0.3207  0.8758 -0.0663
 3366TIP3    H131589   2.186   6.217  16.130 -0.4340  0.9651  0.6749
 3366TIP3    H231590   2.103   6.104  16.187 -0.2367 -0.1069 -1.0886
 3367TIP3   OH231591   1.973   2.928   0.624 -0.0413 -0.4092 -0.5142
 3367TIP3    H131592   2.042   2.994   0.627  0.9375 -1.2433 -2.7862
 3367TIP3    H231593   1.929   2.942   0.541 -1.7125 -0.8349  0.2484
 3368TIP3   OH231594   1.946   1.479  15.907 -0.3482 -0.2521 -0.0400
 3368TIP3    H131595   1.861   1.517  15.883  0.0282 -0.4594 -1.7742
 3368TIP3    H231596   1.994   1.552  15.947 -0.8679  0.1987 -0.2265
 3369TIP3   OH231597   2.189   4.017   4.580  0.1842  0.9587 -0.2218
 3369TIP3    H131598   2.253   4.086   4.597  1.2372 -0.5657  2.5126
 3369TIP3    H231599   2.224   3.970   4.504  1.1535  1.4986 -0.1217
 3370TIP3   OH231600   2.618   1.368   3.906 -0.3000  0.4099  0.1019
 3370TIP3    H131601   2.643   1.457   3.882  0.9365  0.5788  1.8631
 3370TIP3    H231602   2.595   1.373   3.999 -1.2232 -0.9199 -0.0194
 3371TIP3   OH231603   6.820   3.184   3.657 -0.0523  0.1815  0.7536
 3371TIP3    H131604   6.796   3.115   3.595  0.7744  1.8414 -1.5782
 3371TIP3    H231605   6.915   3.182   3.660  0.0331  1.5440  0.1429
 3372TIP3   OH231606   2.622   6.168  13.982  0.2080  0.5627  0.2228
 3372TIP3    H131607   2.641   6.101  14.047  1.4066  0.9441  0.2777
 3372TIP3    H231608   2.526   6.170  13.977  0.1434 -1.5140 -0.1829
 3373TIP3   OH231609   1.138   4.807   5.361  0.2559  0.7566  0.0998
 3373TIP3    H131610   1.176   4.812   5.274 -1.8932 -2.4654 -1.2072
 3373TIP3    H231611   1.045   4.829   5.349 -0.8376 -2.8196  0.7623
 3374TIP3   OH231612   6.171   2.648   1.674 -0.0568  0.4097 -0.4048
 3374TIP3    H131613   6.086   2.651   1.630 -0.9592 -1.3863  1.0580
 3374TIP3    H231614   6.164   2.715   1.743  0.1826  1.0927 -1.0389
 3375TIP3   OH231615   4.442   1.742  14.668  0.5616  0.4133  0.0584
 3375TIP3    H131616   4.349   1.741  14.645  0.1936 -1.7921  1.3198
 3375TIP3    H231617   4.482   1.683  14.604  0.6596 -0.4822  0.9199
 3376TIP3   OH231618   2.994   5.240  13.697 -0.9485 -0.3542 -0.4138
 3376TIP3    H131619   3.038   5.184  13.761 -1.0139 -0.4070 -0.4151
 3376TIP3    H231620   2.909   5.259  13.736 -0.1707  1.4381  0.5527
 3377TIP3   OH231621   3.889   2.460   4.143  0.4941 -0.7313  0.3144
 3377TIP3    H131622   3.896   2.554   4.158 -0.5191 -0.7340  0.8678
 3377TIP3    H231623   3.835   2.428   4.215 -0.0877 -1.5684 -0.4752
 3378TIP3   OH231624   6.046   0.818  11.621  0.2105  0.4537  0.3453
 3378TIP3    H131625   5.990   0.851  11.551  0.1050  1.8509  1.0502
 3378TIP3    H231626   6.070   0.730  11.593 -1.7776  0.0599 -0.3091
 3379TIP3   OH231627   2.860   2.522  16.887  0.0986 -0.0345 -0.2272
 3379TIP3    H131628   2.891   2.436  16.917  0.9960  0.4497  0.2682
 3379TIP3    H231629   2.877   2.581  16.960  0.6569  0.8152 -1.0099
 3380TIP3   OH231630   0.352   3.032  17.177 -0.2304  0.4730  0.2936
 3380TIP3    H131631   0.274   3.088  17.175 -0.4340  0.2709 -2.6960
 3380TIP3    H231632   0.415   3.077  17.121  2.4532  1.3177  3.6468
 3381TIP3   OH231633   6.042   2.433   6.219 -0.9491  0.6242 -0.5152
 3381TIP3    H131634   6.011   2.506   6.273  0.3486  0.2969  0.7308
 3381TIP3    H231635   6.057   2.362   6.281  0.8349  0.3150 -1.2568
 3382TIP3   OH231636   4.579   1.941   6.553  0.4405 -0.5010  0.2880
 3382TIP3    H131637   4.647   1.953   6.620  0.2971 -1.3653  0.6144
 3382TIP3    H231638   4.603   1.859   6.510  0.0417 -0.4020 -0.1273
 3383TIP3   OH231639   5.403   6.490  11.171  0.6749 -0.1603  0.0646
 3383TIP3    H131640   5.402   6.554  11.100  0.3949  0.1457  0.3363
 3383TIP3    H231641   5.364   6.537  11.245  0.7512 -0.5489  0.3531
 3384TIP3   OH231642   2.997   6.508  14.128  0.2622 -0.3072 -0.2596
 3384TIP3    H131643   3.069   6.571  14.136  1.0789 -0.8524 -2.6809
 3384TIP3    H231644   2.925   6.548  14.176  1.8729  0.6785  1.4920
 3385TIP3   OH231645   2.300   3.168   1.354 -0.2461  0.6754  0.2752
 3385TIP3    H131646   2.352   3.248   1.346 -0.3712  0.6837 -0.6382
 3385TIP3    H231647   2.364   3.097   1.347 -0.2282  0.6946  0.2383
 3386TIP3   OH231648   1.799   5.799  13.974 -0.2730 -0.3899  0.0488
 3386TIP3    H131649   1.843   5.717  13.997  0.8018  0.1864  0.0902
 3386TIP3    H231650   1.779   5.841  14.057 -0.0685 -0.2233  0.0157
 3387TIP3   OH231651   5.178   1.655  15.720 -0.7811  0.0377  0.5199
 3387TIP3    H131652   5.171   1.595  15.646 -0.4047 -0.4637  0.8807
 3387TIP3    H231653   5.129   1.612  15.790 -0.7655  0.2989  0.6942
 3388TIP3   OH231654   2.902   1.289   6.198 -0.2095 -0.0490 -1.0023
 3388TIP3    H131655   2.980   1.344   6.209 -0.5963  0.1569  1.0621
 3388TIP3    H231656   2.923   1.208   6.244 -1.4882  0.3091  0.2559
 3389TIP3   OH231657   4.855   2.826  16.514  0.1573  0.0232  0.1410
 3389TIP3    H131658   4.849   2.741  16.471 -1.6786  1.0848 -1.9394
 3389TIP3    H231659   4.948   2.837  16.532  0.6918 -1.6391 -1.2522
 3390TIP3   OH231660   0.864   5.313  15.849  0.0275 -0.5050  0.2801
 3390TIP3    H131661   0.865   5.251  15.777 -0.7350 -0.7955  0.5045
 3390TIP3    H231662   0.943   5.365  15.838  0.6115 -1.4322  0.0215
 3391TIP3   OH231663   5.748   4.083  12.954 -0.0073 -0.1835  0.0484
 3391TIP3    H131664   5.748   4.177  12.936  0.4562 -0.1587  0.1615
 3391TIP3    H231665   5.841   4.060  12.959 -0.1081 -0.7740 -0.6364
 3392TIP3   OH231666   2.184   4.394   5.097  0.5479 -0.7799  0.0845
 3392TIP3    H131667   2.194   4.299   5.107  0.5868 -0.9626 -1.3549
 3392TIP3    H231668   2.169   4.406   5.003  0.9164  0.6727  0.1861
 3393TIP3   OH231669   0.598   6.547   0.302  0.2162  0.1631 -0.3112
 3393TIP3    H131670   0.543   6.564   0.225 -0.1179  0.8524  0.0599
 3393TIP3    H231671   0.685   6.532   0.267 -0.2467 -1.1828 -0.9286
 3394TIP3   OH231672   6.430   1.312  15.923  0.0582  0.2807  0.4827
 3394TIP3    H131673   6.452   1.253  15.996 -1.7619  0.4079  1.1993
 3394TIP3    H231674   6.440   1.400  15.959 -0.7903  0.3442  0.5934
 3395TIP3   OH231675   2.055   1.365   5.900  0.5487  0.2822  0.1973
 3395TIP3    H131676   1.967   1.398   5.881 -0.3598 -2.0784 -0.0509
 3395TIP3    H231677   2.056   1.351   5.995 -0.4924 -2.4043 -0.0790
 3396TIP3   OH231678   0.673   4.392  15.083 -0.4356  0.1827  0.4465
 3396TIP3    H131679   0.674   4.487  15.084 -0.2205  0.2073 -0.5169
 3396TIP3    H231680   0.637   4.369  14.997  0.0293 -0.5943  0.4446
 3397TIP3   OH231681   3.498   1.769  17.044  0.2067  0.5683 -0.3241
 3397TIP3    H131682   3.406   1.751  17.060  0.4246  0.5265  1.0463
 3397TIP3    H231683   3.539   1.759  17.130  1.5516  0.1853 -0.9829
 3398TIP3   OH231684   2.797   5.253   3.317  0.8854 -0.2212  0.1776
 3398TIP3    H131685   2.743   5.192   3.267 -1.5518 -0.1646  2.4548
 3398TIP3    H231686   2.820   5.205   3.397  3.2382  0.2165 -0.1654
 3399TIP3   OH231687   4.271   2.713  12.279  0.1574 -0.2736 -0.7020
 3399TIP3    H131688   4.243   2.804  12.286  1.9215  0.2154  0.5336
 3399TIP3    H231689   4.365   2.718  12.263  0.6016 -1.8922  1.1136
 3400TIP3   OH231690   5.538   0.909  15.781  0.4325 -0.6228  0.4286
 3400TIP3    H131691   5.463   0.890  15.725  0.0820  0.0259  0.6700
 3400TIP3    H231692   5.613   0.877  15.731  0.0066 -1.2392  0.1663
 3401TIP3   OH231693   3.455   4.848  14.437  0.1224  0.0091 -0.3693
 3401TIP3    H131694   3.512   4.804  14.375 -0.1491 -0.7704 -0.0744
 3401TIP3    H231695   3.370   4.804  14.427  0.2680 -0.6329  1.0841
 3402TIP3   OH231696   2.505   0.217  13.128 -0.0170  0.1458  0.2832
 3402TIP3    H131697   2.534   0.178  13.211 -0.4706  0.3417  0.5445
 3402TIP3    H231698   2.423   0.261  13.151  0.5596  1.3828  0.0311
 3403TIP3   OH231699   3.502   0.785   5.480  0.1272 -0.1926 -0.1581
 3403TIP3    H131700   3.527   0.827   5.397 -0.3710 -1.5301 -1.0112
 3403TIP3    H231701   3.507   0.691   5.462 -2.0159 -0.5243  0.6816
 3404TIP3   OH231702   3.601   5.372   3.196  0.2491 -0.1972 -0.2633
 3404TIP3    H131703   3.655   5.312   3.247  1.6571  1.8877  0.8603
 3404TIP3    H231704   3.546   5.416   3.261  1.2105  1.6380 -0.6127
 3405TIP3   OH231705   6.195   1.921   0.257  0.3742 -0.3989  0.1490
 3405TIP3    H131706   6.174   1.995   0.200 -1.3009 -1.7984 -1.1510
 3405TIP3    H231707   6.196   1.959   0.345  0.1116  1.2658 -0.5230
 3406TIP3   OH231708   6.778   5.851  12.577  0.1382 -0.2706  0.3281
 3406TIP3    H131709   6.715   5.824  12.510 -1.0749  2.2592  0.3441
 3406TIP3    H231710   6.841   5.778  12.581  1.1899 -0.0060 -4.6200
 3407TIP3   OH231711   2.120   5.429   0.509 -0.5612 -0.7119 -0.3935
 3407TIP3    H131712   2.201   5.437   0.457 -1.9208  2.1006 -2.3081
 3407TIP3    H231713   2.130   5.345   0.555  2.4531 -1.5424 -2.2387
 3408TIP3   OH231714   0.193   2.638  15.201  0.2832 -0.3495 -0.6034
 3408TIP3    H131715   0.287   2.639  15.186  0.2914  0.5160 -0.5809
 3408TIP3    H231716   0.183   2.662  15.293  0.1259 -3.0405  0.1691
 3409TIP3   OH231717   4.557   5.050   4.478  0.5833 -0.1307  0.9733
 3409TIP3    H131718   4.573   5.098   4.560  3.2214  0.3363  0.2817
 3409TIP3    H231719   4.625   5.082   4.418 -0.7173 -1.1171 -1.1428
 3410TIP3   OH231720   6.739   5.052  11.778 -0.1013 -0.2985  0.3811
 3410TIP3    H131721   6.740   4.962  11.812 -0.7416 -0.4120  0.1200
 3410TIP3    H231722   6.748   5.042  11.684 -0.8537 -0.1289  0.2880
 3411TIP3   OH231723   6.198   5.399  12.354 -0.0286  0.2482  0.4083
 3411TIP3    H131724   6.280   5.374  12.311 -0.1641  1.9186 -0.9494
 3411TIP3    H231725   6.226   5.451  12.429  0.1765 -1.6563  1.7278
 3412TIP3   OH231726   3.741   6.155   1.021 -0.3759 -0.5637 -0.2116
 3412TIP3    H131727   3.677   6.139   0.952 -0.2539  1.9760 -1.0197
 3412TIP3    H231728   3.826   6.149   0.976 -0.2272 -0.4320  0.0482
 3413TIP3   OH231729   2.255   2.982   2.742 -0.1738 -0.3494 -0.1097
 3413TIP3    H131730   2.202   3.007   2.819 -1.3341 -0.3720 -0.8744
 3413TIP3    H231731   2.343   3.012   2.763 -0.3574 -0.8348  1.4680
 3414TIP3   OH231732   5.617   4.581  11.997  0.1626 -0.1673 -0.3511
 3414TIP3    H131733   5.526   4.559  11.977  0.5854 -0.9879 -1.5275
 3414TIP3    H231734   5.613   4.634  12.076 -1.4566  0.9529 -1.1265
 3415TIP3   OH231735   1.435   2.504  13.234 -0.1713  0.3596 -0.2156
 3415TIP3    H131736   1.491   2.452  13.291  0.7653 -2.0044 -3.0381
 3415TIP3    H231737   1.488   2.581  13.212  0.3734  0.1240  0.2412
 3416TIP3   OH231738   3.846   3.875   2.346 -0.3307 -0.3780  0.4661
 3416TIP3    H131739   3.806   3.898   2.429 -0.7348  3.3143 -0.5542
 3416TIP3    H231740   3.912   3.943   2.331 -0.1153 -1.0432 -2.1311
 3417TIP3   OH231741   2.238   3.519   1.507  0.2039 -0.7147 -0.6243
 3417TIP3    H131742   2.296   3.595   1.515 -1.4747  0.7428 -1.5967
 3417TIP3    H231743   2.170   3.534   1.572 -0.3968 -1.1417 -1.1416
 3418TIP3   OH231744   1.813   1.230   1.538  0.1726 -0.2341  0.1199
 3418TIP3    H131745   1.750   1.283   1.488 -1.4537 -1.4861  0.7348
 3418TIP3    H231746   1.830   1.154   1.482 -1.4779 -1.5287  1.2571
 3419TIP3   OH231747   1.852   0.010  11.353 -0.7969 -0.2315 -0.1470
 3419TIP3    H131748   1.803   0.007  11.270 -1.5959  1.2379  0.2314
 3419TIP3    H231749   1.941  -0.017  11.330 -1.4606 -1.6951 -1.1099
 3420TIP3   OH231750   0.190   0.384   3.286 -0.6566 -0.0583  0.2656
 3420TIP3    H131751   0.267   0.427   3.323 -0.5146 -0.3682  0.3351
 3420TIP3    H231752   0.216   0.293   3.277 -0.5604  0.0776 -0.9575
 3421TIP3   OH231753   5.035   6.430  11.477 -0.1549  0.0115 -0.1688
 3421TIP3    H131754   5.101   6.437  11.546 -0.0866 -2.1345  0.0471
 3421TIP3    H231755   4.961   6.387  11.519 -0.1405 -1.2723 -1.3910
 3422TIP3   OH231756   2.029   4.636  14.733  0.0092  0.5303  0.3024
 3422TIP3    H131757   2.021   4.659  14.825  1.4247  0.1507  0.5423
 3422TIP3    H231758   2.062   4.546  14.733  2.4717  1.3297 -0.4869
 3423TIP3   OH231759   3.847   4.310   0.244  0.2226 -0.3844  0.1240
 3423TIP3    H131760   3.850   4.214   0.251  2.4238 -0.4844 -1.2163
 3423TIP3    H231761   3.805   4.327   0.160  0.1297 -0.1972  0.2091
 3424TIP3   OH231762   1.631   1.462   4.432 -0.1601  0.3430  0.3860
 3424TIP3    H131763   1.570   1.534   4.414 -0.2127  0.2372  0.1393
 3424TIP3    H231764   1.717   1.496   4.406 -0.5383 -0.6620 -2.5206
 3425TIP3   OH231765   1.539   2.389  14.477  0.0590 -0.2491 -0.5331
 3425TIP3    H131766   1.535   2.329  14.403 -0.3052 -1.1210  0.1667
 3425TIP3    H231767   1.617   2.442  14.461  1.2399 -1.8794 -0.4801
 3426TIP3   OH231768   2.917   4.417   0.125 -0.6629 -0.1603  0.5563
 3426TIP3    H131769   2.830   4.418   0.085 -0.6052  0.4065  0.4319
 3426TIP3    H231770   2.963   4.346   0.080 -0.6759  0.3106 -0.2226
 3427TIP3   OH231771   2.519   3.761  17.286  0.4062 -0.0919 -0.2644
 3427TIP3    H131772   2.567   3.731  17.208 -2.1101 -0.7486 -1.6739
 3427TIP3    H231773   2.512   3.682  17.341  0.0951 -0.2450 -0.5209
 3428TIP3   OH231774   3.124   0.249   3.459 -0.3414  0.1399  0.3576
 3428TIP3    H131775   3.181   0.217   3.389 -1.0229  0.5028 -0.3739
 3428TIP3    H231776   3.118   0.343   3.443  0.5639  0.4613  1.6975
 3429TIP3   OH231777   3.826   0.789   5.943  0.4885 -0.0518 -0.0523
 3429TIP3    H131778   3.857   0.877   5.965  0.7244 -0.2213  0.3076
 3429TIP3    H231779   3.732   0.792   5.960  0.6591 -0.1701  0.9953
 3430TIP3   OH231780   1.819   6.563  11.220 -0.0352 -0.1462  0.4216
 3430TIP3    H131781   1.803   6.649  11.182  2.1413 -0.1477 -0.6403
 3430TIP3    H231782   1.914   6.553  11.220 -0.1959 -2.3618  0.9719
 3431TIP3   OH231783   6.632   5.315   2.683  0.4130 -0.4471 -0.4274
 3431TIP3    H131784   6.592   5.229   2.688  0.5442 -0.4310  1.4729
 3431TIP3    H231785   6.726   5.299   2.691  0.5430 -0.2099 -1.3478
 3432TIP3   OH231786   4.643   0.072  15.657  0.5369 -0.1367 -0.5015
 3432TIP3    H131787   4.736   0.068  15.676  0.4709 -0.1401 -0.1580
 3432TIP3    H231788   4.609  -0.013  15.685  0.1579  0.4595  0.9833
 3433TIP3   OH231789   1.786   5.050   1.262  0.2684 -0.3732 -0.0015
 3433TIP3    H131790   1.842   5.098   1.323 -1.7070 -0.5126  2.0708
 3433TIP3    H231791   1.825   4.963   1.257  0.3141 -0.4537  1.3346
 3434TIP3   OH231792   0.524   0.822  16.954 -0.7564 -0.2205 -0.0636
 3434TIP3    H131793   0.617   0.799  16.961  0.1380  3.0553  0.4092
 3434TIP3    H231794   0.501   0.854  17.041 -2.2386 -0.5904 -0.2994
 3435TIP3   OH231795   1.710   3.038  15.540  0.4617 -0.1951 -0.3897
 3435TIP3    H131796   1.671   2.962  15.497  0.9570  0.6141 -2.3890
 3435TIP3    H231797   1.653   3.111  15.515  1.0210  0.3824 -0.0116
 3436TIP3   OH231798   3.972   3.721   5.116  0.6399 -0.5053  0.7668
 3436TIP3    H131799   3.998   3.786   5.181  1.7894 -0.8243  0.6452
 3436TIP3    H231800   4.055   3.690   5.079  0.0500  1.0523 -2.2063
 3437TIP3   OH231801   3.656   1.269   5.905  0.2103 -0.9041 -0.2476
 3437TIP3    H131802   3.585   1.269   5.841 -0.5080 -0.3033  0.5227
 3437TIP3    H231803   3.614   1.242   5.987  0.7199  0.0685  0.3548
 3438TIP3   OH231804   2.396   3.757   1.208  0.3335 -0.4024  0.1101
 3438TIP3    H131805   2.381   3.841   1.251  1.1046 -0.4338  0.4536
 3438TIP3    H231806   2.330   3.754   1.138 -1.1094 -0.4712  1.4259
 3439TIP3   OH231807   3.365   0.409  16.715 -0.4475  0.3386 -0.1010
 3439TIP3    H131808   3.445   0.391  16.666  0.3750  1.8967  0.6158
 3439TIP3    H231809   3.372   0.501  16.740 -0.9041 -0.3172  2.7824
 3440TIP3   OH231810   2.682   2.208   3.733  0.4995 -0.0982  0.0613
 3440TIP3    H131811   2.735   2.134   3.764 -1.4929 -0.8629  1.8791
 3440TIP3    H231812   2.596   2.194   3.772 -0.6929  1.8106 -1.6947
 3441TIP3   OH231813   0.970   4.237   4.205  0.9870  0.0057  0.0963
 3441TIP3    H131814   0.919   4.201   4.277 -0.4265  1.5806 -0.0621
 3441TIP3    H231815   0.911   4.298   4.161  2.2094  0.0180 -1.6595
 3442TIP3   OH231816   1.808   0.693   0.114 -0.1355 -0.2195 -0.1594
 3442TIP3    H131817   1.756   0.673   0.191 -0.7245 -1.1787 -0.7900
 3442TIP3    H231818   1.802   0.788   0.105  0.5757  0.0101  1.4022
 3443TIP3   OH231819   0.046   3.111   2.403  0.5069 -0.5045  0.1333
 3443TIP3    H131820   0.050   3.072   2.491 -2.8809 -1.0959  0.1644
 3443TIP3    H231821   0.029   3.036   2.346 -0.3182  0.2353 -0.6016
 3444TIP3   OH231822   0.154   1.459   6.233 -0.3756  0.3185 -0.1716
 3444TIP3    H131823   0.182   1.451   6.325  1.3341 -5.1044 -0.8529
 3444TIP3    H231824   0.060   1.475   6.238 -0.4563 -0.5259  2.5479
 3445TIP3   OH231825   5.511   2.190   0.667 -0.2351 -0.2178  0.2302
 3445TIP3    H131826   5.540   2.099   0.669  0.7616  0.0706 -0.3464
 3445TIP3    H231827   5.564   2.231   0.599  0.3465  1.1367  1.4407
 3446TIP3   OH231828   2.620   1.191  14.399  0.0279  0.1935 -0.4625
 3446TIP3    H131829   2.577   1.161  14.319 -0.9915  0.8677 -0.1800
 3446TIP3    H231830   2.641   1.111  14.447 -1.4688 -0.1395 -0.3261
 3447TIP3   OH231831   6.153   0.552   5.031 -0.0621  0.1421  0.8144
 3447TIP3    H131832   6.162   0.580   4.940 -1.7725  0.9209  0.8444
 3447TIP3    H231833   6.073   0.595   5.061  0.1920 -0.5201  2.5354
 3448TIP3   OH231834   6.561   5.093  11.460 -0.5120  0.5535  0.4025
 3448TIP3    H131835   6.473   5.093  11.498 -0.8164  0.0181 -0.2851
 3448TIP3    H231836   6.573   5.003  11.429  1.5138 -0.3508  3.3055
 3449TIP3   OH231837   3.733   2.024   1.463 -0.1363 -0.1351  0.3245
 3449TIP3    H131838   3.783   2.103   1.440 -1.0361  0.7728  1.3567
 3449TIP3    H231839   3.758   1.960   1.396  1.4127  0.6810  0.0690
 3450TIP3   OH231840   5.826   3.898  15.800  0.6279  0.2603 -0.3503
 3450TIP3    H131841   5.890   3.941  15.857 -0.3598  2.2642 -0.6987
 3450TIP3    H231842   5.751   3.883  15.857  0.2110  0.8624 -0.7402
 3451TIP3   OH231843   6.624   2.920   3.270  1.0002 -0.3366  0.0020
 3451TIP3    H131844   6.580   3.004   3.281 -1.2342 -1.4568  0.0753
 3451TIP3    H231845   6.682   2.913   3.346 -2.6537 -1.0721  3.0138
 3452TIP3   OH231846   0.342   2.273  15.924  0.0714 -0.1760  0.1017
 3452TIP3    H131847   0.304   2.328  15.992  1.3897 -0.8233  1.4041
 3452TIP3    H231848   0.356   2.332  15.850  1.3633  1.2557  1.4259
 3453TIP3   OH231849   5.466   1.602  11.442  0.0533 -0.1081  0.7357
 3453TIP3    H131850   5.382   1.579  11.402  0.5657  0.2418 -0.5924
 3453TIP3    H231851   5.458   1.574  11.533 -1.8899  0.8732  0.9211
 3454TIP3   OH231852   5.714   1.621   5.229  0.2038  0.0325 -0.5062
 3454TIP3    H131853   5.726   1.568   5.308 -0.5148  0.6803  0.0505
 3454TIP3    H231854   5.621   1.615   5.209  0.5149 -0.8510 -1.8532
 3455TIP3   OH231855   0.239   0.118  13.787 -0.3886 -0.3292  0.1569
 3455TIP3    H131856   0.273   0.075  13.866 -0.2688  2.1828  1.5838
 3455TIP3    H231857   0.145   0.125  13.802 -0.4917 -0.5917 -0.3445
 3456TIP3   OH231858   2.605   4.760   5.113  0.0690  0.0975 -0.0980
 3456TIP3    H131859   2.675   4.694   5.109  0.1184  0.0277  1.3141
 3456TIP3    H231860   2.596   4.778   5.207 -0.6711  1.3301 -0.3967
 3457TIP3   OH231861   2.029   4.478  10.504  0.2483 -0.3748  0.1795
 3457TIP3    H131862   2.100   4.478  10.440  0.9035 -1.2589  0.8791
 3457TIP3    H231863   2.057   4.542  10.570 -0.3868  0.4720 -0.3452
 3458TIP3   OH231864   1.861   4.138   2.401  0.1713  0.3394 -0.4693
 3458TIP3    H131865   1.889   4.191   2.327 -0.4014  0.1893 -0.8018
 3458TIP3    H231866   1.768   4.157   2.411  0.1878  0.1758  0.0616
 3459TIP3   OH231867   0.990   3.322   5.755  0.1447  0.3039  0.2767
 3459TIP3    H131868   1.080   3.296   5.733 -0.9031 -3.6911 -0.1761
 3459TIP3    H231869   0.989   3.328   5.850  0.1779 -3.7672  0.7007
 3460TIP3   OH231870   1.480   0.511  16.733  0.0853 -0.2798  0.5366
 3460TIP3    H131871   1.397   0.547  16.703  0.3828 -0.3091 -0.3543
 3460TIP3    H231872   1.469   0.416  16.726  0.3900 -0.2700 -0.1544
 3461TIP3   OH231873   1.146   1.540  16.010  0.8294 -0.2626 -0.2306
 3461TIP3    H131874   1.064   1.525  16.057  1.7778 -0.9898  1.2836
 3461TIP3    H231875   1.148   1.472  15.942 -0.1488  0.2356 -0.7726
 3462TIP3   OH231876   4.199   0.486  15.408 -0.1351 -0.2952  0.3116
 3462TIP3    H131877   4.200   0.395  15.379  2.6982 -0.4711  0.7108
 3462TIP3    H231878   4.208   0.536  15.327  1.1486 -0.5312  0.2807
 3463TIP3   OH231879   2.397   2.557  13.947  0.2518  0.5197 -0.3757
 3463TIP3    H131880   2.403   2.489  13.880 -0.3717 -0.4478  0.5289
 3463TIP3    H231881   2.427   2.515  14.027  0.8917  1.6352 -0.0138
 3464TIP3   OH231882   0.980   3.752  16.540 -0.5300 -0.3178  0.2146
 3464TIP3    H131883   1.058   3.719  16.585 -0.9929 -1.5691  0.1323
 3464TIP3    H231884   1.012   3.825  16.487  1.0851 -2.2590 -1.6826
 3465TIP3   OH231885   4.164   1.677   5.086  0.2276  0.1434  0.1100
 3465TIP3    H131886   4.221   1.753   5.071  0.4480 -0.2404 -1.1332
 3465TIP3    H231887   4.186   1.648   5.174 -0.2049  1.8015  0.8106
 3466TIP3   OH231888   1.920   2.853  12.540  0.6956  0.4872  0.0861
 3466TIP3    H131889   1.939   2.939  12.578 -0.1009  0.0831  1.4775
 3466TIP3    H231890   1.924   2.793  12.614 -0.9878 -0.3306 -0.4210
 3467TIP3   OH231891   1.990   5.527  13.201 -0.8026 -0.1085 -0.1180
 3467TIP3    H131892   2.009   5.613  13.239 -1.4653  0.2903 -0.6724
 3467TIP3    H231893   1.931   5.485  13.264 -0.0623 -0.3701  0.4072
 3468TIP3   OH231894   3.056   6.214  12.516  0.1318  0.0091 -0.1768
 3468TIP3    H131895   3.098   6.252  12.439  2.3017 -3.0432 -0.6693
 3468TIP3    H231896   2.976   6.173  12.481  0.7302 -0.7405 -0.6920
 3469TIP3   OH231897   2.613   0.014  14.865  0.5625 -0.2645 -0.3000
 3469TIP3    H131898   2.588   0.022  14.957  1.1815  0.1697 -0.1587
 3469TIP3    H231899   2.624   0.105  14.835  0.2374 -0.3983 -0.8398
 3470TIP3   OH231900   1.050   6.666  14.364  0.0499  0.4156  0.6219
 3470TIP3    H131901   1.034   6.695  14.275 -0.3296  0.6560  0.7647
 3470TIP3    H231902   1.053   6.747  14.416 -0.2349  0.2496  0.9026
 3471TIP3   OH231903   3.643   3.772   5.955 -0.2887 -0.3324  0.0387
 3471TIP3    H131904   3.553   3.772   5.922 -0.3190 -1.4327  0.0771
 3471TIP3    H231905   3.655   3.683   5.991  0.9215 -0.3072 -0.2736
 3472TIP3   OH231906   5.559   6.354  12.768 -0.0146  0.2311 -0.0037
 3472TIP3    H131907   5.521   6.381  12.852 -1.1140  0.8005 -0.6648
 3472TIP3    H231908   5.528   6.265  12.755  1.4339 -0.4455  0.9091
 3473TIP3   OH231909   3.848   2.736   3.165  0.1582 -0.0734  0.1739
 3473TIP3    H131910   3.880   2.667   3.107 -0.0590 -0.6662  0.7436
 3473TIP3    H231911   3.765   2.703   3.198 -0.5576  1.0152 -0.5049
 3474TIP3   OH231912   6.166   1.027   0.538  0.3054 -0.0705  0.0437
 3474TIP3    H131913   6.107   0.992   0.605 -0.4022 -1.1488 -1.1115
 3474TIP3    H231914   6.252   0.993   0.562  0.4072  1.0456  1.4106
 3475TIP3   OH231915   1.093   2.486   3.216 -0.4033 -0.2639  0.5185
 3475TIP3    H131916   1.015   2.524   3.256  0.9953  1.6872  1.5641
 3475TIP3    H231917   1.092   2.395   3.244 -2.7856 -0.5675 -0.3152
 3476TIP3   OH231918   5.958   1.274   5.263  0.2066 -0.0095  0.1425
 3476TIP3    H131919   5.920   1.187   5.276  2.3409 -1.3098 -1.5708
 3476TIP3    H231920   5.946   1.318   5.347 -0.5994 -2.0913  1.2009
 3477TIP3   OH231921   1.852   5.252  15.660 -0.1581  0.2681  0.7181
 3477TIP3    H131922   1.835   5.328  15.604 -1.1207 -1.4768 -1.5297
 3477TIP3    H231923   1.770   5.238  15.707 -0.7567 -0.6155 -0.5276
 3478TIP3   OH231924   4.565   5.547  11.350  0.4693 -0.3158  0.1475
 3478TIP3    H131925   4.600   5.502  11.426 -0.1495 -1.5644 -0.2807
 3478TIP3    H231926   4.532   5.477  11.293 -0.5095  0.6646 -0.5490
 3479TIP3   OH231927   3.787   5.244  15.669  0.3950 -0.0496 -0.8439
 3479TIP3    H131928   3.832   5.168  15.631  0.1528 -0.2774 -0.6751
 3479TIP3    H231929   3.699   5.242  15.632 -0.0527 -0.6458  0.2175
 3480TIP3   OH231930   4.425   6.110   2.003 -0.1188 -0.6250  0.1512
 3480TIP3    H131931   4.386   6.108   2.091 -2.8274 -0.1323 -0.9422
 3480TIP3    H231932   4.442   6.018   1.982 -1.6038 -0.9574  0.3256
 3481TIP3   OH231933   0.367   3.363  13.158  0.1435 -0.4346 -0.9435
 3481TIP3    H131934   0.343   3.452  13.182 -1.9283 -0.5898 -2.2173
 3481TIP3    H231935   0.425   3.374  13.082  0.5757 -0.1772 -0.5859
 3482TIP3   OH231936   2.442   3.482  10.730 -0.4531 -0.3752  0.0537
 3482TIP3    H131937   2.359   3.440  10.750 -0.9339  0.6114  0.2153
 3482TIP3    H231938   2.429   3.574  10.753  0.3759 -0.0212 -0.7869
 3483TIP3   OH231939   0.024   5.546   2.068  0.0730 -0.5881 -0.3326
 3483TIP3    H131940  -0.034   5.507   2.133 -2.0705  0.7718 -1.3247
 3483TIP3    H231941  -0.035   5.583   2.002  2.1133 -0.3038 -2.1170
 3484TIP3   OH231942   1.160   3.826   0.462  0.1060  0.2167  0.1774
 3484TIP3    H131943   1.094   3.759   0.482  0.8830 -0.5325  0.2971
 3484TIP3    H231944   1.138   3.899   0.520 -1.1750  0.3484 -0.4568
 3485TIP3   OH231945   0.695   2.553   4.233 -0.5517  0.2570 -0.3520
 3485TIP3    H131946   0.752   2.623   4.265 -0.4240 -0.2142  0.4835
 3485TIP3    H231947   0.642   2.529   4.309 -0.9110 -0.2524 -0.7536
 3486TIP3   OH231948   5.437   0.854   0.905  0.4382 -0.2834  0.2702
 3486TIP3    H131949   5.494   0.828   0.833  0.7407 -3.1618  1.3936
 3486TIP3    H231950   5.397   0.936   0.877  0.5567 -1.2647 -3.1345
 3487TIP3   OH231951   5.174   1.635  14.174  0.2630  0.0172  0.2138
 3487TIP3    H131952   5.134   1.585  14.245 -2.8054  0.7632 -0.8283
 3487TIP3    H231953   5.218   1.569  14.120 -1.0791 -1.1748  0.5186
 3488TIP3   OH231954   2.122   5.233  12.152  0.0369  0.1491 -0.4522
 3488TIP3    H131955   2.136   5.325  12.174  0.6104 -0.2262  0.8852
 3488TIP3    H231956   2.031   5.216  12.177  0.0560  0.2423 -0.3199
 3489TIP3   OH231957   4.463   3.419   2.883 -0.5519 -0.3878  0.4048
 3489TIP3    H131958   4.370   3.396   2.878 -0.5373 -0.1027 -2.7359
 3489TIP3    H231959   4.468   3.509   2.849  0.8591 -0.3272  0.7072
 3490TIP3   OH231960   4.213   0.625   5.456  0.1198  0.4672  0.1900
 3490TIP3    H131961   4.222   0.687   5.528 -0.2347  1.8900 -0.9468
 3490TIP3    H231962   4.303   0.607   5.428  0.1851  1.7911 -0.5270
 3491TIP3   OH231963   1.301   1.642   0.868 -0.0539  0.0051 -0.3581
 3491TIP3    H131964   1.210   1.642   0.837 -0.2619  0.6432  0.2152
 3491TIP3    H231965   1.296   1.683   0.955  0.5854 -1.2073  0.2767
 3492TIP3   OH231966   1.383   4.280  16.221 -0.1929 -0.1319  0.3616
 3492TIP3    H131967   1.461   4.282  16.166 -1.4303 -1.6933 -1.5684
 3492TIP3    H231968   1.319   4.335  16.176 -0.1912  1.3119  2.0335
 3493TIP3   OH231969   5.096   4.312  16.299 -0.9183 -0.0122  0.2337
 3493TIP3    H131970   5.023   4.256  16.273 -0.6235 -0.5549  0.5550
 3493TIP3    H231971   5.056   4.377  16.357 -0.9402 -1.1461  1.5409
 3494TIP3   OH231972   0.488   3.898   6.694  0.6010  0.1410  0.1983
 3494TIP3    H131973   0.435   3.955   6.637 -0.4569 -0.1260  0.8780
 3494TIP3    H231974   0.502   3.819   6.642  1.6532  0.8006 -0.5617
 3495TIP3   OH231975   1.591   2.504   1.430  0.0024  0.3645  0.0567
 3495TIP3    H131976   1.530   2.503   1.504 -0.7840 -0.9654 -0.5719
 3495TIP3    H231977   1.591   2.596   1.401 -0.5839  0.6683  0.9653
 3496TIP3   OH231978   4.024   4.152  12.379  0.6040 -0.0166 -0.1313
 3496TIP3    H131979   3.965   4.099  12.433 -0.0757 -0.2146 -1.0426
 3496TIP3    H231980   4.042   4.097  12.302  1.6149  0.2251 -0.0837
 3497TIP3   OH231981   1.462   3.447   3.285 -0.1269  0.6717 -0.6634
 3497TIP3    H131982   1.384   3.394   3.268 -0.9983  1.0622  1.7756
 3497TIP3    H231983   1.535   3.391   3.258 -1.1644 -0.3761 -1.4083
 3498TIP3   OH231984   3.332   4.832   4.524  0.3654 -0.0397 -0.5631
 3498TIP3    H131985   3.420   4.802   4.500  0.0174 -0.1274 -1.7567
 3498TIP3    H231986   3.342   4.864   4.614  1.8886  1.0081 -1.0618
 3499TIP3   OH231987   3.104   5.051  13.868  0.0062  0.2728  0.2108
 3499TIP3    H131988   3.047   4.997  13.922 -1.7527  1.1948 -0.6303
 3499TIP3    H231989   3.192   5.017  13.884 -0.7997 -1.4403  1.2829
 3500TIP3   OH231990   5.369   6.272  11.441  0.2523  0.0195  0.5573
 3500TIP3    H131991   5.405   6.247  11.356  0.5229 -1.5241  1.0932
 3500TIP3    H231992   5.440   6.318  11.485  1.1553 -1.7836  1.0671
 3501TIP3   OH231993   0.265   1.743   6.199  0.1897  0.0532 -0.1254
 3501TIP3    H131994   0.227   1.655   6.207 -1.0131  0.4465 -1.1435
 3501TIP3    H231995   0.245   1.769   6.109 -0.1823  1.6952  0.4024
 3502TIP3   OH231996   5.498   2.999   4.441 -0.0360  0.1006  0.0588
 3502TIP3    H131997   5.515   2.950   4.521  2.2133 -1.4533 -1.2548
 3502TIP3    H231998   5.583   3.004   4.397 -1.1432  1.0661 -2.1402
 3503TIP3   OH231999   2.322   0.772   5.305  0.2757  0.6787  0.3637
 3503TIP3    H132000   2.400   0.755   5.253 -0.4020 -0.4326 -0.3422
 3503TIP3    H232001   2.336   0.722   5.386  1.2690  2.2992  1.2461
 3504TIP3   OH232002   4.221   0.111  13.515  0.0678 -0.0950  0.8097
 3504TIP3    H132003   4.192   0.021  13.498 -1.2024  0.0376  2.0724
 3504TIP3    H232004   4.150   0.150  13.567  1.7687  0.8224  2.5870
 3505TIP3   OH232005   1.085   1.572   2.087 -0.2066  0.4527  0.2381
 3505TIP3    H132006   1.180   1.579   2.099 -0.0364 -1.9816  0.9342
 3505TIP3    H232007   1.075   1.552   1.994 -0.0698  0.9807  0.1056
 3506TIP3   OH232008   5.774   6.367  11.490 -0.2229  0.2587  0.0691
 3506TIP3    H132009   5.762   6.424  11.414 -0.4828 -0.3451 -0.3532
 3506TIP3    H232010   5.814   6.288  11.454  2.0304  0.9156  0.9254
 3507TIP3   OH232011   3.727   5.911  14.952  0.1158 -0.2723 -0.1664
 3507TIP3    H132012   3.730   6.007  14.955 -2.8369 -0.1123 -0.0875
 3507TIP3    H232013   3.684   5.891  14.869 -0.5341 -1.4805  0.4507
 3508TIP3   OH232014   0.598   3.804   4.572  0.5515 -0.0427  0.5138
 3508TIP3    H132015   0.637   3.786   4.658  1.5164 -0.8154 -0.0643
 3508TIP3    H232016   0.657   3.869   4.533 -0.5324  1.2013  0.8745
 3509TIP3   OH232017   6.142   3.815   5.690  0.1041 -0.1864 -0.3021
 3509TIP3    H132018   6.116   3.732   5.651  0.5958 -0.3138 -0.3567
 3509TIP3    H232019   6.071   3.876   5.666 -1.4949 -1.1220  1.7303
 3510TIP3   OH232020   6.465   2.206   0.670  0.1307  0.2600  0.2473
 3510TIP3    H132021   6.490   2.171   0.584 -0.5920 -1.4342  0.6840
 3510TIP3    H232022   6.376   2.173   0.685 -0.0432  1.1433  1.3367
 3511TIP3   OH232023   2.336   3.659   4.338  0.3648  0.2716 -0.7491
 3511TIP3    H132024   2.338   3.564   4.350 -2.4973  0.0889 -1.1272
 3511TIP3    H232025   2.282   3.691   4.410  1.6814  1.7225 -0.3422
 3512TIP3   OH232026   1.041   4.738   3.220 -0.6420  0.1176 -0.7113
 3512TIP3    H132027   1.127   4.732   3.178  0.6421  1.0581  1.5961
 3512TIP3    H232028   1.023   4.832   3.223 -1.2594 -0.0078 -0.2555
 3513TIP3   OH232029   3.680   6.520  13.220  0.8903  0.4831  0.3779
 3513TIP3    H132030   3.642   6.443  13.178  0.9181  0.2984  0.6852
 3513TIP3    H232031   3.604   6.569  13.253  0.8168  1.1002 -0.6848
 3514TIP3   OH232032   0.512   4.754   2.518  0.0729 -0.2543 -0.5331
 3514TIP3    H132033   0.569   4.746   2.442 -0.0068  1.8295 -0.8779
 3514TIP3    H232034   0.433   4.706   2.495 -0.2767  1.0177 -2.1304
 3515TIP3   OH232035   3.278   3.795   3.814  0.5541  0.1876 -0.2223
 3515TIP3    H132036   3.303   3.713   3.773 -1.4459 -0.9642  0.7036
 3515TIP3    H232037   3.185   3.784   3.834  0.8871  1.5421  2.5093
 3516TIP3   OH232038   2.594   4.543  12.204 -0.3428 -0.1725  0.2838
 3516TIP3    H132039   2.665   4.605  12.189 -0.3493 -0.2893 -0.2725
 3516TIP3    H232040   2.553   4.534  12.118 -1.5274  0.4973  0.7502
 3517TIP3   OH232041   5.746   3.623   6.547 -0.1126  0.0802 -0.4444
 3517TIP3    H132042   5.709   3.705   6.513 -0.4500 -0.1188 -0.5556
 3517TIP3    H232043   5.670   3.572   6.575  0.0685 -0.3656 -0.7546
 3518TIP3   OH232044   6.496   6.539  16.867  0.5174  0.0261 -0.0898
 3518TIP3    H132045   6.581   6.544  16.910  0.5251 -0.1865 -0.0802
 3518TIP3    H232046   6.448   6.472  16.917  0.5068 -0.1816 -0.3817
 3519TIP3   OH232047   5.803   6.017   4.419 -1.0869  0.2605  0.3982
 3519TIP3    H132048   5.846   6.099   4.442 -0.1448 -0.1672  0.2296
 3519TIP3    H232049   5.724   6.015   4.473  0.2884 -0.0124  2.5297
 3520TIP3   OH232050   3.878   3.467   2.343 -0.6932  0.8218  0.3584
 3520TIP3    H132051   3.918   3.439   2.426  0.7618  0.1536 -0.5403
 3520TIP3    H232052   3.833   3.388   2.310 -1.7099  1.2239  0.7311
 3521TIP3   OH232053   4.485   1.278  15.585 -0.3611  0.3493  0.2172
 3521TIP3    H132054   4.403   1.321  15.561  0.0832  0.9447 -0.2921
 3521TIP3    H232055   4.547   1.351  15.596  0.1160 -0.0964  0.5152
 3522TIP3   OH232056   5.236   2.707   0.956 -0.6370 -0.4012 -0.5864
 3522TIP3    H132057   5.232   2.693   0.862 -1.8958  0.3316 -0.6690
 3522TIP3    H232058   5.150   2.678   0.988 -0.1855 -0.7457  0.3543
 3523TIP3   OH232059   4.206   5.836  16.431 -0.0471  0.3935 -0.1083
 3523TIP3    H132060   4.123   5.792  16.410 -0.5097  1.0919  0.1880
 3523TIP3    H232061   4.179   5.923  16.460  0.9078  1.2313 -1.6535
 3524TIP3   OH232062   2.234   1.078  14.505 -0.0014 -0.5049 -0.1969
 3524TIP3    H132063   2.140   1.086  14.491  0.4641  1.7687 -3.0671
 3524TIP3    H232064   2.257   0.992  14.469 -0.8904 -0.8709  0.0889
 3525TIP3   OH232065   2.227   0.317  16.181  0.1174 -0.3276 -0.0404
 3525TIP3    H132066   2.162   0.371  16.225  0.2486  0.9695 -1.3577
 3525TIP3    H232067   2.266   0.265  16.251 -0.7271  0.5480  1.1270
 3526TIP3   OH232068   5.059   0.001   0.408 -0.6148  0.3147 -0.6776
 3526TIP3    H132069   5.106   0.005   0.491 -1.6421 -0.2776 -0.0462
 3526TIP3    H232070   5.035  -0.092   0.398 -1.4070  0.5506 -1.1058
 3527TIP3   OH232071   1.410   6.443  14.640  0.5122 -0.4982 -0.0166
 3527TIP3    H132072   1.408   6.356  14.680  0.5290 -0.2928  0.4370
 3527TIP3    H232073   1.341   6.440  14.574 -1.3835  0.0119  1.8359
 3528TIP3   OH232074   5.582   3.201  16.283  0.4143 -0.9811  0.9016
 3528TIP3    H132075   5.622   3.174  16.366  0.6509  1.4289  1.6325
 3528TIP3    H232076   5.585   3.296  16.284  0.1682 -0.8568 -1.7786
 3529TIP3   OH232077   3.251   2.237   3.176  0.2635 -0.3377  0.1118
 3529TIP3    H132078   3.195   2.250   3.253 -1.0839  0.3615 -0.9545
 3529TIP3    H232079   3.340   2.245   3.210 -0.3047  0.3556  1.5294
 3530TIP3   OH232080   0.922   0.945  15.859 -0.7296  0.2693 -0.5637
 3530TIP3    H132081   0.860   0.873  15.862 -0.1657 -0.1935  0.3508
 3530TIP3    H232082   0.960   0.949  15.947 -0.9566  1.8733 -0.5011
 3531TIP3   OH232083   4.269   2.934  11.798 -0.1107 -0.4876 -1.0326
 3531TIP3    H132084   4.254   3.005  11.860 -1.0503 -0.3738 -1.3720
 3531TIP3    H232085   4.188   2.883  11.800 -0.0898 -0.5751 -2.0493
 3532TIP3   OH232086   3.063   1.973   5.077  0.7648  0.6000 -0.0864
 3532TIP3    H132087   3.098   1.940   5.160 -0.5197  0.5215  0.4559
 3532TIP3    H232088   3.004   2.044   5.103 -0.4713 -0.1180 -0.8274
 3533TIP3   OH232089   2.560   1.929  11.484  0.3974 -0.5576  0.2749
 3533TIP3    H132090   2.497   1.966  11.545  1.6419  0.0474  1.2427
 3533TIP3    H232091   2.514   1.928  11.400 -0.6845  0.4345  0.8211
 3534TIP3   OH232092   5.959   5.752   1.101 -0.0504  0.3068 -0.1437
 3534TIP3    H132093   5.953   5.739   1.006 -1.1474 -2.3553  0.2053
 3534TIP3    H232094   5.983   5.665   1.135  1.3925  1.4524  1.9589
 3535TIP3   OH232095   1.698   2.955   1.168  0.1543 -0.8214 -0.2459
 3535TIP3    H132096   1.778   2.988   1.208 -0.6977  0.3215  0.5452
 3535TIP3    H232097   1.710   2.860   1.168  1.7440 -0.6576 -0.6729
 3536TIP3   OH232098   2.542   1.596   3.146 -0.2125  0.1921  0.1850
 3536TIP3    H132099   2.551   1.510   3.188 -0.3465  0.3582  0.5531
 3536TIP3    H232100   2.579   1.583   3.059  4.1616  0.8955  1.6870
 3537TIP3   OH232101   2.091   0.989  16.781  0.1120 -0.0854  0.1537
 3537TIP3    H132102   2.174   0.982  16.733  2.0168 -0.5282  3.2276
 3537TIP3    H232103   2.069   1.082  16.776 -0.3984 -0.2556 -2.3627
 3538TIP3   OH232104   0.270   2.583  12.237  0.4298  0.0593  0.2652
 3538TIP3    H132105   0.291   2.609  12.148  3.2206 -0.3086  0.7021
 3538TIP3    H232106   0.274   2.664  12.288 -1.9660  0.4033  0.0005
 3539TIP3   OH232107   5.071   3.763   0.994 -0.3620 -0.1435 -0.0559
 3539TIP3    H132108   5.043   3.785   1.083 -0.8783 -0.0349 -0.2426
 3539TIP3    H232109   4.998   3.791   0.939  0.0199 -0.0724 -0.5278
 3540TIP3   OH232110   4.094   0.056   0.723 -0.4894 -0.6296 -0.0071
 3540TIP3    H132111   4.038   0.110   0.780  1.2764  0.9344  0.3760
 3540TIP3    H232112   4.079  -0.034   0.754 -3.5560 -0.4738 -0.6770
 3541TIP3   OH232113   0.611   6.767  17.078 -0.5907 -0.0947  0.0520
 3541TIP3    H132114   0.539   6.827  17.101 -0.8213  1.1337 -3.2808
 3541TIP3    H232115   0.690   6.816  17.100 -0.6718  2.9342 -4.9316
 3542TIP3   OH232116   3.455   6.433   5.828 -0.3317 -0.3407 -1.0455
 3542TIP3    H132117   3.406   6.414   5.748 -0.0563  1.0088 -1.5646
 3542TIP3    H232118   3.527   6.490   5.799  0.0417 -0.1938  0.0989
 3543TIP3   OH232119   5.216   1.413   0.950  0.3526 -0.0299 -0.0526
 3543TIP3    H132120   5.246   1.490   0.901  0.0568 -1.4360 -2.5581
 3543TIP3    H232121   5.288   1.350   0.942 -0.3499 -0.8461  0.0066
 3544TIP3   OH232122   1.987   2.349   6.777  0.3148 -0.9329 -0.0901
 3544TIP3    H132123   2.016   2.439   6.790 -0.6409 -0.3840 -1.5035
 3544TIP3    H232124   1.892   2.352   6.789  0.1138 -1.4761 -1.3596
 3545TIP3   OH232125   0.911   6.619   4.926  0.2749 -0.7363 -0.2060
 3545TIP3    H132126   0.829   6.628   4.975  0.0440 -1.7997 -0.3725
 3545TIP3    H232127   0.962   6.556   4.976  1.3304  0.4843  0.3032
 3546TIP3   OH232128   0.647   5.960   1.699 -0.1693 -0.6092  0.4815
 3546TIP3    H132129   0.626   5.901   1.771 -0.1676 -0.6888  0.4169
 3546TIP3    H232130   0.664   6.045   1.741 -1.8970 -0.1981  0.4453
 3547TIP3   OH232131   3.112   4.267  15.243  0.6158  0.1954  0.1902
 3547TIP3    H132132   3.119   4.317  15.162  2.2394 -0.6059 -0.1977
 3547TIP3    H232133   3.025   4.288  15.276  0.4187  1.5494 -1.0809
 3548TIP3   OH232134   0.181   4.068  16.725 -0.0879  0.1778 -0.0123
 3548TIP3    H132135   0.104   4.077  16.781  2.0982 -0.5581  3.4507
 3548TIP3    H232136   0.157   4.001  16.661 -2.7816  1.0750 -0.0622
 3549TIP3   OH232137   0.522   0.265  14.756 -0.0498 -0.1229 -0.4302
 3549TIP3    H132138   0.436   0.225  14.745 -0.0698  0.0799 -1.0786
 3549TIP3    H232139   0.503   0.352  14.791 -0.1600  0.1596 -1.1658
 3550TIP3   OH232140   5.745   3.018  10.626  0.5515 -0.3789  0.0316
 3550TIP3    H132141   5.708   2.995  10.710 -0.6087 -1.2505 -0.6922
 3550TIP3    H232142   5.693   2.969  10.562  1.6706 -0.0702 -1.1624
 3551TIP3   OH232143   1.664   3.324  13.955  0.2671 -0.2135 -0.0382
 3551TIP3    H132144   1.587   3.276  13.923  0.1396  0.0329 -0.1050
 3551TIP3    H232145   1.627   3.404  13.994  0.5131  0.0702 -0.3815
 3552TIP3   OH232146   5.450   6.436  12.988  0.1140  0.2126 -0.6530
 3552TIP3    H132147   5.523   6.445  13.048  0.6247 -1.1103 -1.0495
 3552TIP3    H232148   5.386   6.382  13.035  0.2219 -0.2456 -1.0205
 3553TIP3   OH232149   3.660   5.731   2.059  0.0935 -0.0009  0.4102
 3553TIP3    H132150   3.603   5.714   2.134  0.9318  0.8128  1.2423
 3553TIP3    H232151   3.694   5.645   2.035  2.6861  0.0639  3.2896
 3554TIP3   OH232152   4.822   4.249  15.882 -0.0363 -0.2468 -0.5040
 3554TIP3    H132153   4.738   4.214  15.912 -0.6845  0.3722 -1.5119
 3554TIP3    H232154   4.859   4.179  15.829 -0.3810 -0.1760 -0.8479
 3555TIP3   OH232155   5.459   3.319   6.703 -0.1270 -0.1946 -0.0889
 3555TIP3    H132156   5.400   3.254   6.664 -1.2060 -0.7116  2.2374
 3555TIP3    H232157   5.543   3.304   6.659 -0.5195 -2.6857 -0.1467
 3556TIP3   OH232158   0.154   1.963   4.382  0.3902  0.2138  0.6566
 3556TIP3    H132159   0.198   2.047   4.371  0.0571  0.3282  0.1608
 3556TIP3    H232160   0.172   1.938   4.472  0.1554  1.0114  0.9324
 3557TIP3   OH232161   0.129   0.556  12.168  0.3613  0.6146 -0.4120
 3557TIP3    H132162   0.074   0.618  12.216  0.7041 -0.2146  1.0881
 3557TIP3    H232163   0.074   0.479  12.155  1.3189 -0.5188  1.7562
 3558TIP3   OH232164   2.772   1.210   1.781 -0.0163 -0.0828 -0.5183
 3558TIP3    H132165   2.681   1.234   1.799  0.4024  1.3905 -0.2512
 3558TIP3    H232166   2.787   1.130   1.832 -1.1712 -0.3900 -0.6388
 3559TIP3   OH232167   3.972   4.389   3.051 -0.3641  0.3145 -0.4472
 3559TIP3    H132168   3.889   4.357   3.015 -1.3195  2.2622 -0.0908
 3559TIP3    H232169   4.023   4.413   2.974 -0.2210 -0.5922 -0.6539
 3560TIP3   OH232170   4.184   5.663  12.897 -0.2467  0.5027  0.0198
 3560TIP3    H132171   4.126   5.689  12.826 -0.3979  0.7969  0.2462
 3560TIP3    H232172   4.244   5.737  12.907 -1.2803  1.2100  1.3077
 3561TIP3   OH232173   1.292   5.885   2.869 -0.0592  0.3421 -0.0489
 3561TIP3    H132174   1.352   5.959   2.868  0.9172 -0.4131  0.4134
 3561TIP3    H232175   1.284   5.862   2.962 -1.3241  0.6312 -0.0748
 3562TIP3   OH232176   6.069   6.726   1.725  0.4852 -0.0585  0.4401
 3562TIP3    H132177   6.097   6.816   1.709  1.8935 -0.7465 -1.4005
 3562TIP3    H232178   6.083   6.681   1.641 -1.9712 -1.5774  0.7286
 3563TIP3   OH232179   1.509   1.600   2.105  0.0523  0.3683  0.4918
 3563TIP3    H132180   1.457   1.565   2.033  1.3050 -0.3111 -0.1284
 3563TIP3    H232181   1.549   1.522   2.146  0.7911  0.8725  0.7592
 3564TIP3   OH232182   5.791   4.356  12.887  0.2470 -0.0879 -0.3648
 3564TIP3    H132183   5.781   4.434  12.941 -1.5545  0.8163 -1.9030
 3564TIP3    H232184   5.883   4.359  12.858  0.0694  1.7975 -0.8459
 3565TIP3   OH232185   2.716   3.911  14.392  0.8112 -0.3412  0.0502
 3565TIP3    H132186   2.733   3.885  14.483 -3.0076  0.9408  1.3232
 3565TIP3    H232187   2.714   4.007  14.394  2.0270 -0.2265 -1.7570
 3566TIP3   OH232188   6.321   5.194  14.604 -0.2656 -0.0762 -0.4190
 3566TIP3    H132189   6.276   5.268  14.564  0.0689  0.2076 -0.2738
 3566TIP3    H232190   6.296   5.197  14.696 -0.3340 -0.2070 -0.4326
 3567TIP3   OH232191   1.020   1.745  12.025  0.4240 -0.4092 -0.0578
 3567TIP3    H132192   0.939   1.763  12.072  0.5483 -0.1369  0.0592
 3567TIP3    H232193   0.998   1.676  11.963  0.3265 -0.9508  0.5813
 3568TIP3   OH232194   0.650   4.629  13.930  0.4198 -0.1390  0.0853
 3568TIP3    H132195   0.582   4.632  13.997  1.2715 -1.6948  1.0897
 3568TIP3    H232196   0.620   4.564  13.867  0.4460  0.0064 -0.0782
 3569TIP3   OH232197   1.044   3.246  12.339 -0.4312 -0.3058  0.5267
 3569TIP3    H132198   1.118   3.211  12.289  0.4112 -0.3705  1.7791
 3569TIP3    H232199   1.047   3.199  12.422 -1.7362 -0.1237  0.6907
 3570TIP3   OH232200   2.457   1.938   1.090  0.1304  0.0852 -0.5129
 3570TIP3    H132201   2.465   1.914   1.183 -0.3954  1.1315 -0.1829
 3570TIP3    H232202   2.491   1.862   1.043  0.0326 -0.6268  0.5270
 3571TIP3   OH232203   0.757   2.403  12.307  0.6797  0.4480 -0.2090
 3571TIP3    H132204   0.666   2.393  12.335  0.7894  0.9786  0.3656
 3571TIP3    H232205   0.793   2.314  12.309  0.6127  0.4261  1.1335
 3572TIP3   OH232206   4.214   1.087  13.344 -0.2473  0.2924 -0.4006
 3572TIP3    H132207   4.269   1.089  13.265  0.8848  1.1917  0.3785
 3572TIP3    H232208   4.268   1.040  13.409 -1.4475 -1.0656 -0.3292
 3573TIP3   OH232209   6.647   3.483  14.624  0.0172  0.4059 -0.0040
 3573TIP3    H132210   6.662   3.420  14.554  1.6186  2.1437 -1.3247
 3573TIP3    H232211   6.713   3.551  14.610 -0.2785  1.3491  2.5945
 3574TIP3   OH232212   0.802   5.460  17.005  0.1116 -0.4126  0.0579
 3574TIP3    H132213   0.891   5.441  17.035 -0.1474 -1.2974  0.2801
 3574TIP3    H232214   0.784   5.393  16.939 -0.2704 -0.0371 -0.2238
 3575TIP3   OH232215   4.131   0.928  11.818 -0.5780 -0.0113 -0.4903
 3575TIP3    H132216   4.150   0.959  11.906  2.1413  2.0668 -1.6449
 3575TIP3    H232217   4.067   0.858  11.830  0.1745 -0.2656  3.1503
 3576TIP3   OH232218   4.979   3.545  16.678 -0.2415 -0.0738  0.0490
 3576TIP3    H132219   4.920   3.617  16.700 -0.4609 -0.0996 -0.4363
 3576TIP3    H232220   4.969   3.534  16.583  1.8823  1.1072 -0.3769
 3577TIP3   OH232221   6.674   4.021  15.122 -0.5367 -0.1093  0.1612
 3577TIP3    H132222   6.718   4.001  15.039 -0.3236 -0.6956  0.4108
 3577TIP3    H232223   6.645   3.936  15.155  0.4654 -0.0423  1.2877
 3578TIP3   OH232224   6.244   5.266  14.875  0.3528  0.2693 -0.1143
 3578TIP3    H132225   6.332   5.298  14.893  0.5567  0.2993 -1.0947
 3578TIP3    H232226   6.186   5.337  14.904  0.4598 -0.7989  3.0002
 3579TIP3   OH232227   3.045   5.669   1.052 -0.2127 -0.5160 -0.5079
 3579TIP3    H132228   3.095   5.747   1.028 -0.6180  0.4563  1.5669
 3579TIP3    H232229   2.996   5.646   0.973 -0.4795  1.6445 -1.0132
 3580TIP3   OH232230   0.883   2.257  12.806 -0.3130 -0.0483  0.0946
 3580TIP3    H132231   0.821   2.214  12.866 -0.7074  0.9296  0.4084
 3580TIP3    H232232   0.944   2.188  12.782 -0.4122 -0.5778  1.2790
 3581TIP3   OH232233   1.896   2.361   5.298 -0.3082 -0.0533  0.8596
 3581TIP3    H132234   1.802   2.378   5.295 -0.1676  0.7997 -2.3573
 3581TIP3    H232235   1.904   2.266   5.290 -0.8891 -0.0196 -0.1456
 3582TIP3   OH232236   3.472   4.409  11.673  0.1859  0.2732  0.4292
 3582TIP3    H132237   3.547   4.455  11.711 -0.8745  1.5895  0.9888
 3582TIP3    H232238   3.444   4.464  11.600 -1.2597  0.7088  1.2680
 3583TIP3   OH232239   3.227   4.030   3.708 -0.9324  0.2915 -0.0673
 3583TIP3    H132240   3.260   3.944   3.733 -0.7519 -0.2760 -2.1458
 3583TIP3    H232241   3.192   4.066   3.790  1.0517 -0.7772  1.3614
 3584TIP3   OH232242   3.546   4.867  10.521 -0.2316 -0.2736 -0.2173
 3584TIP3    H132243   3.506   4.785  10.492  0.3552  0.4539 -3.5063
 3584TIP3    H232244   3.638   4.858  10.496  0.2776  0.6714  1.1906
 3585TIP3   OH232245   5.693   2.634  14.523 -0.5623  0.4527 -0.2761
 3585TIP3    H132246   5.610   2.633  14.475 -0.0198  0.5196 -1.2260
 3585TIP3    H232247   5.752   2.687  14.470  0.2262  0.0417  0.1665
 3586TIP3   OH232248   0.998   2.077  12.628 -0.5003 -0.0423 -0.0276
 3586TIP3    H132249   1.076   2.049  12.675  0.5566  1.1370 -1.0026
 3586TIP3    H232250   1.027   2.090  12.537 -1.9799 -0.2024 -0.5602
 3587TIP3   OH232251   4.432   4.825  17.302  0.0816  0.0170 -0.3374
 3587TIP3    H132252   4.498   4.895  17.307  0.1524 -0.0099 -0.8836
 3587TIP3    H232253   4.481   4.748  17.273 -0.5209  0.4573 -2.6611
 3588TIP3   OH232254   4.399   3.841  16.200 -0.2488 -0.0826 -0.1627
 3588TIP3    H132255   4.416   3.933  16.178 -1.1345  0.2238  0.3849
 3588TIP3    H232256   4.341   3.810  16.130 -0.0401 -0.1955 -0.2861
 3589TIP3   OH232257   5.948   4.552  15.594 -0.0714  0.3233 -0.2101
 3589TIP3    H132258   5.978   4.461  15.590  1.9202  0.8455  1.2737
 3589TIP3    H232259   6.002   4.598  15.530 -0.1062  0.6978  0.0280
 3590TIP3   OH232260   1.448   0.994  11.201 -0.4072  0.8509  0.0647
 3590TIP3    H132261   1.526   1.049  11.201 -0.6120  1.1472  0.9275
 3590TIP3    H232262   1.409   1.006  11.287 -0.6281 -0.4127  0.1662
 3591TIP3   OH232263   5.171   0.581   6.697  0.0080  0.3023  0.4038
 3591TIP3    H132264   5.226   0.581   6.619  0.0894 -2.4585  0.3788
 3591TIP3    H232265   5.195   0.662   6.743  0.9319  1.3080 -1.7027
 3592TIP3   OH232266   3.268   0.628  14.027  0.2704 -0.3590 -0.4862
 3592TIP3    H132267   3.275   0.579  13.946 -0.1523 -0.0248 -0.7291
 3592TIP3    H232268   3.186   0.597  14.067 -0.1570  0.3654 -0.7913
 3593TIP3   OH232269   5.689   1.560  12.745  0.0512 -0.6808  0.1662
 3593TIP3    H132270   5.634   1.563  12.667 -0.3829  1.0239  0.4975
 3593TIP3    H232271   5.647   1.621  12.806  1.0836 -1.0319  1.2610
 3594TIP3   OH232272   5.041   1.369  13.402  0.3295 -0.2431  0.2548
 3594TIP3    H132273   5.011   1.284  13.371 -1.7810  0.1111  1.1784
 3594TIP3    H232274   5.119   1.388  13.349  0.1657 -2.2023 -0.7590
 3595TIP3   OH232275   6.439   0.283   5.597  0.1270 -0.2099 -0.2223
 3595TIP3    H132276   6.474   0.233   5.671 -0.1334 -0.1310 -0.0434
 3595TIP3    H232277   6.352   0.310   5.625  1.3033  2.9088  0.9222
 3596TIP3   OH232278   5.421   2.765   2.527  0.0419  1.0410  0.1991
 3596TIP3    H132279   5.348   2.800   2.475  1.2217  1.8611 -0.9792
 3596TIP3    H232280   5.425   2.673   2.503  0.1076  1.2481 -0.6277
 3597TIP3   OH232281   4.237   2.105   6.464 -0.2813  0.2379 -0.4985
 3597TIP3    H132282   4.288   2.163   6.521 -0.4151 -1.1648  1.1352
 3597TIP3    H232283   4.146   2.125   6.485 -0.3622  0.6280 -1.2012
 3598TIP3   OH232284   4.639   0.684  13.857 -0.2592 -0.0761  0.1451
 3598TIP3    H132285   4.580   0.742  13.809 -0.4901 -0.3711  0.0727
 3598TIP3    H232286   4.587   0.606  13.876  0.4632 -0.8793 -1.0108
 3599TIP3   OH232287   4.836   2.302   1.955  0.4983 -0.2514  0.4335
 3599TIP3    H132288   4.749   2.317   1.917  1.4490  1.8136 -1.1371
 3599TIP3    H232289   4.841   2.207   1.967 -2.7882 -0.2755  2.8016
 3600TIP3   OH232290   4.268   5.849   0.458 -0.2314  0.4996 -0.8369
 3600TIP3    H132291   4.187   5.892   0.432 -0.8796 -0.3162 -0.2508
 3600TIP3    H232292   4.296   5.896   0.536 -0.3538  0.5569 -0.8265
 3601TIP3   OH232293   4.471   4.463   2.445  0.7895  0.0173  0.5097
 3601TIP3    H132294   4.492   4.493   2.533  1.5146  0.9973  0.0309
 3601TIP3    H232295   4.441   4.542   2.400 -1.0368 -0.7507  0.2767
 3602TIP3   OH232296   4.758   6.165   4.908 -0.1121  0.4088  0.0356
 3602TIP3    H132297   4.697   6.117   4.852 -0.2651 -2.2051  2.2324
 3602TIP3    H232298   4.704   6.195   4.982  0.8887 -0.4447  1.1493
 3603TIP3   OH232299   2.665   0.230  11.655  0.0681  0.2062 -0.3930
 3603TIP3    H132300   2.649   0.161  11.719 -1.0977 -0.7773 -1.6611
 3603TIP3    H232301   2.734   0.194  11.599 -1.3465 -0.5185 -1.7666
 3604TIP3   OH232302   6.680   1.886   2.345 -0.2960 -0.2559 -0.1469
 3604TIP3    H132303   6.652   1.977   2.337 -1.8300 -0.6721  0.1363
 3604TIP3    H232304   6.626   1.839   2.281  0.1249 -1.0298  0.0551
 3605TIP3   OH232305   2.720   4.195  16.337  0.3914  0.1417 -0.3401
 3605TIP3    H132306   2.780   4.270  16.346  0.6412 -0.1595  0.6863
 3605TIP3    H232307   2.743   4.138  16.410 -0.3913 -0.5236 -0.6052
 3606TIP3   OH232308   3.817   4.232  14.092  0.4944  0.2613 -0.2418
 3606TIP3    H132309   3.795   4.190  14.175  1.1319 -1.1036 -0.7334
 3606TIP3    H232310   3.803   4.325  14.108 -0.2814 -0.0576  1.1093
 3607TIP3   OH232311   0.543   0.887   0.150  0.0116 -0.5557 -0.3027
 3607TIP3    H132312   0.598   0.809   0.142  0.6734 -0.0127 -1.1273
 3607TIP3    H232313   0.597   0.959   0.117 -0.9181  0.1131 -0.4105
 3608TIP3   OH232314   1.776   0.234   4.638 -0.1067 -0.2091 -0.3993
 3608TIP3    H132315   1.769   0.278   4.722  1.2004 -0.6287 -0.0482
 3608TIP3    H232316   1.812   0.148   4.658 -0.9074 -0.7812 -1.2710
 3609TIP3   OH232317   0.226   5.292   6.303 -0.2636  0.3703 -0.0929
 3609TIP3    H132318   0.138   5.324   6.285 -0.4651  0.2711  0.6825
 3609TIP3    H232319   0.282   5.369   6.299  0.0841  0.0694 -3.3083
 3610TIP3   OH232320   5.951   3.142   2.827 -0.1078  0.6462 -0.0317
 3610TIP3    H132321   5.900   3.103   2.756  0.0725  0.9279 -0.3221
 3610TIP3    H232322   6.033   3.092   2.828 -0.6860 -0.3256  0.9533
 3611TIP3   OH232323   2.796   4.688  12.124  0.3769 -0.1030 -0.1806
 3611TIP3    H132324   2.874   4.684  12.068  0.8938 -0.2022  0.5366
 3611TIP3    H232325   2.813   4.760  12.184 -0.4811  0.4503 -0.5897
 3612TIP3   OH232326   2.777   5.831  16.523  0.1887 -0.4231  0.1099
 3612TIP3    H132327   2.833   5.805  16.596 -0.8418 -1.2865  0.6210
 3612TIP3    H232328   2.832   5.886  16.469  1.4686 -1.0926  0.6978
 3613TIP3   OH232329   3.496   4.709  11.144 -0.2565 -0.0611 -0.0389
 3613TIP3    H132330   3.538   4.794  11.155  2.1311 -1.2607  0.8266
 3613TIP3    H232331   3.545   4.650  11.201 -1.4780 -2.1421 -1.0154
 3614TIP3   OH232332   5.326   4.649  12.856 -0.3019  0.3284  0.6407
 3614TIP3    H132333   5.418   4.676  12.865  0.2956 -1.9794  2.0864
 3614TIP3    H232334   5.329   4.577  12.793 -0.6752 -1.6331  2.7857
 3615TIP3   OH232335   6.590   0.206   2.357 -0.3237 -0.2537 -0.4216
 3615TIP3    H132336   6.508   0.255   2.351 -1.1194 -1.6603 -1.5993
 3615TIP3    H232337   6.652   0.259   2.307 -0.1853  1.3447  1.3255
 3616TIP3   OH232338   1.116   5.061   2.446  0.0903 -0.1850  0.1461
 3616TIP3    H132339   1.062   5.044   2.523  1.0327 -0.0549  0.8602
 3616TIP3    H232340   1.184   5.122   2.478  0.2179  0.2425 -0.9018
 3617TIP3   OH232341   0.601   0.702  10.599  0.2550  0.4513 -0.7845
 3617TIP3    H132342   0.614   0.786  10.555 -0.8851 -0.5274 -3.1589
 3617TIP3    H232343   0.507   0.699  10.616  0.4751  0.1751  0.4835
 3618TIP3   OH232344   4.874   1.043   2.711  0.7972  0.5790 -0.1242
 3618TIP3    H132345   4.902   1.134   2.707 -1.2250  1.2197 -1.5607
 3618TIP3    H232346   4.914   1.002   2.633  1.1488  0.4078  0.1440
 3619TIP3   OH232347   1.606   6.297  13.709  0.3050  0.0365 -0.1878
 3619TIP3    H132348   1.583   6.301  13.801 -0.1644  2.7706 -0.3444
 3619TIP3    H232349   1.618   6.388  13.683  2.0644 -0.7293 -2.4443
 3620TIP3   OH232350   1.068   2.888  11.015 -0.9985  0.0642 -0.0238
 3620TIP3    H132351   1.141   2.891  10.954 -1.7489 -0.1187 -0.9663
 3620TIP3    H232352   1.089   2.953  11.082  0.2935 -0.4060  0.0593
 3621TIP3   OH232353   6.353   3.055   5.512  0.0484 -0.3661  0.2865
 3621TIP3    H132354   6.310   3.129   5.555 -0.3204 -1.5327  1.9860
 3621TIP3    H232355   6.284   2.991   5.498  0.7245 -1.1665  0.5648
 3622TIP3   OH232356   5.853   5.625  11.567 -0.4860 -0.5331 -0.1903
 3622TIP3    H132357   5.887   5.575  11.641 -0.1304 -0.1636 -0.1002
 3622TIP3    H232358   5.926   5.631  11.506 -1.2001 -2.1093 -1.2712
 3623TIP3   OH232359   2.703   2.315   2.128 -0.3200 -0.2287  0.0641
 3623TIP3    H132360   2.745   2.321   2.042 -1.1163  0.4716 -0.3003
 3623TIP3    H232361   2.774   2.297   2.189  0.4336  0.4659 -0.5849
 3624TIP3   OH232362   5.321   1.471  14.852  0.1963 -0.0662 -0.0133
 3624TIP3    H132363   5.305   1.458  14.759 -0.8905  1.0596 -0.0095
 3624TIP3    H232364   5.405   1.517  14.856  0.4832 -0.5562 -0.4040
 3625TIP3   OH232365   3.797   6.197  15.523  0.6235 -0.0001  0.9539
 3625TIP3    H132366   3.738   6.193  15.598 -0.6275 -2.7140 -0.0558
 3625TIP3    H232367   3.807   6.106  15.495  1.8183  0.8140 -1.6139
 3626TIP3   OH232368   1.898   0.592  14.540  0.0730  0.3467 -0.0823
 3626TIP3    H132369   1.864   0.511  14.577 -0.1710  0.5537  0.1483
 3626TIP3    H232370   1.831   0.658  14.559  0.7198  0.8198  0.6278
 3627TIP3   OH232371   0.822   2.068  15.364 -0.3682 -0.3265 -0.5581
 3627TIP3    H132372   0.726   2.062  15.357 -0.4170  0.4500 -0.5775
 3627TIP3    H232373   0.838   2.099  15.452 -0.0962 -1.1415 -0.3107
 3628TIP3   OH232374   0.301   6.758   5.296 -0.0757 -0.1099  0.1342
 3628TIP3    H132375   0.390   6.740   5.326  0.8696  0.4025 -2.0963
 3628TIP3    H232376   0.310   6.836   5.241 -1.6667 -0.7328 -1.1075
 3629TIP3   OH232377   6.523   2.021  14.268  0.1017 -0.2028 -0.1699
 3629TIP3    H132378   6.499   1.970  14.345  1.6690  1.0718  1.2365
 3629TIP3    H232379   6.443   2.023  14.215 -1.0630 -1.0014  1.4575
 3630TIP3   OH232380   1.206   1.623  13.690  0.1662 -0.0014  0.4069
 3630TIP3    H132381   1.159   1.706  13.692  0.6613  0.3658 -1.2717
 3630TIP3    H232382   1.153   1.567  13.633  0.3409 -0.5118  0.7369
 3631TIP3   OH232383   2.959   4.139  13.111  0.0077 -0.0345  0.0731
 3631TIP3    H132384   2.981   4.231  13.099 -0.7025  0.1454  0.1122
 3631TIP3    H232385   2.917   4.114  13.029 -0.4957 -0.1152  0.3543
 3632TIP3   OH232386   3.641   4.586   4.250  0.7024 -0.4556 -0.4259
 3632TIP3    H132387   3.650   4.505   4.298  0.1506  1.0742  2.4720
 3632TIP3    H232388   3.726   4.628   4.256  0.3915  0.1297 -0.0409
 3633TIP3   OH232389   4.013   3.408   0.374 -0.2053  0.5173  0.5746
 3633TIP3    H132390   4.038   3.316   0.367 -1.2850  0.3325 -3.9365
 3633TIP3    H232391   3.935   3.407   0.429 -1.4511 -1.6961 -1.0543
 3634TIP3   OH232392   2.608   6.016  14.611 -0.1852  0.0372 -0.0001
 3634TIP3    H132393   2.699   5.998  14.633 -0.9207 -1.7228  1.9718
 3634TIP3    H232394   2.593   5.970  14.528  1.1808  2.0557 -1.4636
 3635TIP3   OH232395   6.012   1.449  11.616  0.4562  0.1975  0.4753
 3635TIP3    H132396   5.932   1.481  11.658  0.6231  0.8399  0.3113
 3635TIP3    H232397   5.983   1.374  11.563 -0.0228  0.3704  0.4893
 3636TIP3   OH232398   4.200   3.618  12.653  0.1006  0.4215 -0.3468
 3636TIP3    H132399   4.243   3.686  12.704 -0.6451  1.1947 -0.7187
 3636TIP3    H232400   4.124   3.593  12.706  0.6271 -0.4701  0.0080
 3637TIP3   OH232401   1.147   1.423  12.941 -0.2572  0.6973  0.6204
 3637TIP3    H132402   1.090   1.475  12.998  1.2798  1.7164  1.2761
 3637TIP3    H232403   1.184   1.485  12.879  0.8485  0.2136  0.7773
 3638TIP3   OH232404   2.841   2.085  13.749 -0.6260  0.2381  0.4418
 3638TIP3    H132405   2.753   2.091  13.785 -1.7472  0.5647 -2.1784
 3638TIP3    H232406   2.864   1.992  13.759 -0.6708  0.3803  2.3067
 3639TIP3   OH232407   4.863   2.708   0.225  0.4466 -0.4612 -0.1017
 3639TIP3    H132408   4.781   2.731   0.182  1.0015  0.9733 -0.4341
 3639TIP3    H232409   4.865   2.761   0.304  0.5049 -1.3912  0.5350
 3640TIP3   OH232410   0.096   2.024  17.143 -0.1340  0.4514 -0.5346
 3640TIP3    H132411   0.116   2.051  17.054 -0.0157 -0.8707 -0.9253
 3640TIP3    H232412   0.006   1.991  17.139 -0.4365  1.1607  0.0290
 3641TIP3   OH232413   0.974   0.295   5.059  0.1252  0.1197 -0.3466
 3641TIP3    H132414   1.002   0.362   4.997 -1.4073  1.0206 -0.1436
 3641TIP3    H232415   0.933   0.345   5.130 -2.3506 -1.0200 -0.8498
 3642TIP3   OH232416   2.471   4.318   1.067 -0.2347 -0.1676 -0.2179
 3642TIP3    H132417   2.511   4.300   1.152 -1.5914 -1.5839  0.1622
 3642TIP3    H232418   2.541   4.358   1.015  0.8293  0.0156  1.3124
 3643TIP3   OH232419   1.011   2.684  17.175 -0.2752  0.0257  0.0496
 3643TIP3    H132420   1.026   2.778  17.184  1.6926 -0.2581  0.2731
 3643TIP3    H232421   1.059   2.660  17.096  1.5182 -1.1802  1.4225
 3644TIP3   OH232422   1.452   6.825  15.631  0.1992 -0.2007 -0.9184
 3644TIP3    H132423   1.433   6.793  15.543 -1.1084 -0.3657 -0.5963
 3644TIP3    H232424   1.481   6.916  15.618 -1.6670  0.3669 -1.4184
 3645TIP3   OH232425   4.508   4.163   3.250 -0.3523  0.2903 -0.1131
 3645TIP3    H132426   4.429   4.205   3.216 -0.7212  1.9860  2.5496
 3645TIP3    H232427   4.580   4.216   3.215 -0.5289  0.2532 -0.5445
 3646TIP3   OH232428   0.527   5.883  13.656 -0.6951  0.3516  0.0271
 3646TIP3    H132429   0.584   5.930  13.595  0.3455  1.3959  1.7297
 3646TIP3    H232430   0.488   5.813  13.603  1.3288  0.2606 -1.4722
 3647TIP3   OH232431   2.934   0.607   3.675  0.3561 -0.2201 -0.0469
 3647TIP3    H132432   2.845   0.610   3.711  0.0855 -0.1481 -0.6968
 3647TIP3    H232433   2.991   0.593   3.750  0.0144  2.0907  0.7262
 3648TIP3   OH232434   0.568   3.058  13.653 -0.4476 -0.3590  0.1685
 3648TIP3    H132435   0.552   3.133  13.711 -1.4673 -0.5733  0.1815
 3648TIP3    H232436   0.483   3.014  13.646 -0.2775 -0.5109 -1.2489
 3649TIP3   OH232437   3.833   4.597  11.169  0.0769  0.1610  0.2613
 3649TIP3    H132438   3.878   4.513  11.173 -0.7098 -0.2350  2.1316
 3649TIP3    H232439   3.798   4.609  11.257 -1.9498  1.2775 -0.6255
 3650TIP3   OH232440   2.735   5.359  13.773  0.1178 -0.1925 -0.5194
 3650TIP3    H132441   2.754   5.449  13.800 -1.4492  0.6825 -2.1338
 3650TIP3    H232442   2.721   5.311  13.855  1.7784  0.8070  0.3975
 3651TIP3   OH232443   0.117   6.224   0.315 -0.1750  0.5219  0.2004
 3651TIP3    H132444   0.111   6.208   0.409  0.2990 -1.8355 -0.1074
 3651TIP3    H232445   0.156   6.311   0.308  2.0318 -0.1931  2.2364
 3652TIP3   OH232446   5.970   5.203   4.770 -0.5401  0.3014  0.0580
 3652TIP3    H132447   5.882   5.240   4.767 -0.5135  0.2843 -1.7149
 3652TIP3    H232448   5.958   5.113   4.799 -0.9618  0.6472  0.9960
 3653TIP3   OH232449   0.574   5.344  15.095 -0.0768  0.8360 -0.0392
 3653TIP3    H132450   0.553   5.372  15.184 -1.3969  1.6089 -0.5534
 3653TIP3    H232451   0.560   5.422  15.041 -0.4850  0.0886 -1.0643
 3654TIP3   OH232452   0.587   6.364   2.522 -0.1216  0.3573  0.4251
 3654TIP3    H132453   0.576   6.425   2.450 -0.1774  0.8965  0.8859
 3654TIP3    H232454   0.588   6.419   2.600 -3.2883 -0.4112  1.1628
 3655TIP3   OH232455   4.433   1.716  13.303 -0.3255 -0.4533  0.3953
 3655TIP3    H132456   4.356   1.733  13.356 -1.5382 -1.9985 -0.7724
 3655TIP3    H232457   4.486   1.655  13.355 -1.4865 -1.9291 -0.0765
 3656TIP3   OH232458   5.550   1.110  11.054  0.1314 -0.4693  0.0391
 3656TIP3    H132459   5.514   1.031  11.013  1.9992 -0.7318 -1.2215
 3656TIP3    H232460   5.474   1.165  11.071 -1.4194 -2.9976  2.1426
 3657TIP3   OH232461   1.738   1.870  16.689  0.1281 -0.2104 -0.0966
 3657TIP3    H132462   1.758   1.934  16.757 -0.9874 -1.2153  1.2376
 3657TIP3    H232463   1.701   1.795  16.736  1.1316 -1.7557 -1.6098
 3658TIP3   OH232464   1.320   0.119   1.123 -0.0758 -0.3620 -0.2727
 3658TIP3    H132465   1.306   0.093   1.214  0.5652  0.8035  0.1845
 3658TIP3    H232466   1.318   0.037   1.074  0.0393 -1.0598  0.8512
 3659TIP3   OH232467   4.779   1.088   6.656 -0.1596  0.1803  0.8451
 3659TIP3    H132468   4.746   1.007   6.618  1.3757  0.0498 -0.2743
 3659TIP3    H232469   4.710   1.152   6.638 -0.5911 -0.4631  0.1297
 3660TIP3   OH232470   4.666   5.604  15.338  0.1982  0.0224 -0.3370
 3660TIP3    H132471   4.631   5.553  15.411  0.5470  1.8347  1.1821
 3660TIP3    H232472   4.665   5.694  15.369 -0.6923  1.0427 -3.0282
 3661TIP3   OH232473   2.719   0.656   5.346  0.1772 -0.2645  0.5025
 3661TIP3    H132474   2.806   0.654   5.385  0.7826  1.2495 -0.6670
 3661TIP3    H232475   2.666   0.599   5.402  1.4312  0.3328  2.3900
 3662TIP3   OH232476   1.732   2.869  14.294  0.5024 -0.3329  0.4405
 3662TIP3    H132477   1.698   2.817  14.222  0.9015  0.7370 -0.5608
 3662TIP3    H232478   1.796   2.927  14.253  1.0423  0.0198  1.7316
 3663TIP3   OH232479   1.644   6.059  14.301  0.4216 -0.1754  0.4397
 3663TIP3    H132480   1.571   6.018  14.347  0.2044  1.4924  1.6585
 3663TIP3    H232481   1.721   6.008  14.326 -0.2455 -1.8767 -0.7591
 3664TIP3   OH232482   5.461   3.662  13.282 -0.1672 -0.1127 -0.4661
 3664TIP3    H132483   5.472   3.588  13.223  1.1925 -1.2178  1.0738
 3664TIP3    H232484   5.399   3.630  13.348 -2.4020  1.4224 -1.7094
 3665TIP3   OH232485   1.512   4.259  12.277 -0.5012  0.1812  0.2393
 3665TIP3    H132486   1.579   4.217  12.224 -0.8029 -1.5782  1.1519
 3665TIP3    H232487   1.435   4.264  12.220 -0.9534 -2.0758  0.5454
 3666TIP3   OH232488   4.421   0.158  13.331 -0.0459 -0.2267 -0.4846
 3666TIP3    H132489   4.348   0.146  13.392 -2.0632 -1.8957 -3.0447
 3666TIP3    H232490   4.406   0.243  13.291  0.1778  0.0105 -0.0694
 3667TIP3   OH232491   2.770   1.527   4.677 -0.2658  0.3926 -0.0345
 3667TIP3    H132492   2.719   1.457   4.635 -1.8225  1.2493  0.3290
 3667TIP3    H232493   2.758   1.511   4.771  2.0830 -0.7249  0.1502
 3668TIP3   OH232494   5.197   4.909   4.095 -0.0448  0.8635 -0.2375
 3668TIP3    H132495   5.164   4.978   4.152  0.3390  1.2411 -0.4658
 3668TIP3    H232496   5.119   4.862   4.066 -0.1516 -0.4871  2.0088
 3669TIP3   OH232497   3.154   3.000   3.587  0.0191 -0.0193 -0.2517
 3669TIP3    H132498   3.232   2.963   3.627  0.5935  0.5195 -0.8440
 3669TIP3    H232499   3.148   3.089   3.622  0.7324  0.5897 -1.5834
 3670TIP3   OH232500   2.893   2.582   2.393  0.1971 -0.4853  0.7882
 3670TIP3    H132501   2.980   2.610   2.364 -0.2636 -0.8072 -1.0093
 3670TIP3    H232502   2.909   2.498   2.436  0.6945 -0.9941 -0.3364
 3671TIP3   OH232503   5.742   0.632  14.951 -0.2405  0.9025 -0.4953
 3671TIP3    H132504   5.761   0.702  14.889 -1.3903  1.1927 -0.5460
 3671TIP3    H232505   5.777   0.665  15.034  1.7779  0.2852 -1.0411
 3672TIP3   OH232506   2.645   0.823   6.075 -0.2975  0.0775  0.7515
 3672TIP3    H132507   2.649   0.821   5.980  3.3749 -0.2482  0.7669
 3672TIP3    H232508   2.627   0.915   6.097  3.1426  1.1674 -0.3808
 3673TIP3   OH232509   0.690   2.623  10.463  0.2709 -0.3718 -0.5874
 3673TIP3    H132510   0.651   2.566  10.529 -0.0337  0.0227 -0.4204
 3673TIP3    H232511   0.783   2.622  10.483  0.4603 -1.8697 -1.4112
 3674TIP3   OH232512   4.136   1.312   5.837  0.4582  0.2660  0.1421
 3674TIP3    H132513   4.190   1.341   5.910  0.5078 -1.3646  0.8100
 3674TIP3    H232514   4.047   1.311   5.873  0.6637 -2.0247  0.7444
 3675TIP3   OH232515   5.567   2.177  15.978  0.5860 -0.3156 -0.2218
 3675TIP3    H132516   5.538   2.216  15.896  0.7350 -0.3752 -0.3030
 3675TIP3    H232517   5.588   2.086  15.956  0.0410 -0.5033  0.0112
 3676TIP3   OH232518   4.599   4.332  14.315 -0.3239  0.7256  0.0937
 3676TIP3    H132519   4.554   4.417  14.308  1.3482  1.6135 -0.4183
 3676TIP3    H232520   4.546   4.283  14.378 -0.6894  2.6112  1.3768
 3677TIP3   OH232521   1.467   6.362  12.729 -0.1858 -0.5096  0.4361
 3677TIP3    H132522   1.505   6.450  12.727  0.8962 -0.9697 -1.1756
 3677TIP3    H232523   1.479   6.332  12.819  3.3527 -0.6171  0.0625
 3678TIP3   OH232524   3.519   1.880   3.262  0.4666 -0.2080 -0.1371
 3678TIP3    H132525   3.426   1.893   3.243  0.6151  1.7345  0.2395
 3678TIP3    H232526   3.564   1.897   3.180  0.5561 -0.1046 -0.0678
 3679TIP3   OH232527   2.944   5.016  13.156  0.0913  0.6887  0.1514
 3679TIP3    H132528   2.918   4.925  13.166  1.7675  0.2778  1.1017
 3679TIP3    H232529   2.992   5.019  13.074  0.4979  0.5883  0.3817
 3680TIP3   OH232530   6.506   2.377   4.127 -0.8562  0.4993 -0.0095
 3680TIP3    H132531   6.540   2.465   4.144  0.2900  0.2067 -0.6217
 3680TIP3    H232532   6.570   2.339   4.066 -0.8192 -1.0780  0.9669
 3681TIP3   OH232533   3.680   5.924   3.087 -0.1142 -0.2035  0.0668
 3681TIP3    H132534   3.633   5.841   3.089 -0.3927 -0.1210 -1.5096
 3681TIP3    H232535   3.769   5.902   3.061  0.7011 -0.3161  2.6929
 3682TIP3   OH232536   6.528   4.598   5.763 -0.6937 -0.2680  0.1890
 3682TIP3    H132537   6.481   4.527   5.718  0.3419 -1.9512  1.6111
 3682TIP3    H232538   6.505   4.587   5.855  0.8950  0.1072  0.6553
 3683TIP3   OH232539   6.448   3.640   2.020 -0.3285  0.1948  0.1227
 3683TIP3    H132540   6.502   3.561   2.026 -1.2599 -0.4584  0.1269
 3683TIP3    H232541   6.502   3.709   2.060  0.9299 -0.1839 -0.8418
 3684TIP3   OH232542   1.896   0.620   3.718 -0.6232  0.0290 -0.3061
 3684TIP3    H132543   1.832   0.671   3.669 -0.8172  0.6817  0.5832
 3684TIP3    H232544   1.884   0.649   3.809 -1.7179 -2.6342  0.4868
 3685TIP3   OH232545   0.203   6.140   2.744  0.3438  0.1314  0.6680
 3685TIP3    H132546   0.256   6.127   2.665  0.0166  1.2707  0.2412
 3685TIP3    H232547   0.131   6.196   2.715  0.2257  0.5636  1.7788
 3686TIP3   OH232548   4.067   2.789   2.115  0.3773 -0.1240 -0.3915
 3686TIP3    H132549   4.039   2.700   2.092 -0.5547 -0.1896  0.9131
 3686TIP3    H232550   4.058   2.838   2.033 -0.7401 -0.8479 -0.7271
 3687TIP3   OH232551   4.958   0.639   2.994  0.6895 -0.0430 -0.1707
 3687TIP3    H132552   4.895   0.692   2.946  1.3449  0.2356 -0.7340
 3687TIP3    H232553   5.033   0.696   3.006 -0.2454  0.7179  3.1907
 3688TIP3   OH232554   1.880   0.540  15.684  0.2606 -0.1717 -0.3097
 3688TIP3    H132555   1.842   0.598  15.618 -0.6348 -1.1878 -0.7276
 3688TIP3    H232556   1.812   0.474  15.700  1.5983 -1.7126 -0.6249
 3689TIP3   OH232557   6.483   2.084   2.182  0.6766 -0.3258  0.0589
 3689TIP3    H132558   6.425   2.009   2.170  0.1704  0.2376 -1.1647
 3689TIP3    H232559   6.475   2.106   2.274  0.2543 -1.3054  0.2712
 3690TIP3   OH232560   4.632   6.440   1.459 -0.1669 -0.3548  0.1852
 3690TIP3    H132561   4.722   6.413   1.440 -0.2980 -0.5544 -0.1692
 3690TIP3    H232562   4.641   6.516   1.516  0.2242 -0.5382  0.3758
 3691TIP3   OH232563   5.275   3.324   6.255  0.2420  0.0216 -0.4522
 3691TIP3    H132564   5.281   3.256   6.188  0.5374 -0.6092  0.2009
 3691TIP3    H232565   5.265   3.276   6.337  0.0355  0.7804 -0.0253
 3692TIP3   OH232566   2.022   3.783   0.681  0.1046  0.2251 -0.0042
 3692TIP3    H132567   1.980   3.707   0.640 -0.6866  1.2286 -1.1278
 3692TIP3    H232568   2.115   3.760   0.685  0.0372 -0.3778 -1.3312
 3693TIP3   OH232569   4.481   0.709   1.066 -0.5785  0.5929  0.0318
 3693TIP3    H132570   4.572   0.703   1.095 -0.4248  3.7633  0.5985
 3693TIP3    H232571   4.430   0.685   1.143 -0.2973 -1.4943 -0.3739
 3694TIP3   OH232572   0.135   2.797   1.278 -0.0657 -0.2841 -0.2641
 3694TIP3    H132573   0.154   2.747   1.199 -0.4518 -0.3136 -0.3361
 3694TIP3    H232574   0.087   2.736   1.334  0.1346 -0.2368 -0.0405
 3695TIP3   OH232575   5.832   0.898  17.090  0.3281  0.6065  0.5581
 3695TIP3    H132576   5.817   0.864  17.002  0.0300 -0.3910  0.9734
 3695TIP3    H232577   5.823   0.821  17.147  1.9389  0.9407  1.3239
 3696TIP3   OH232578   0.078   4.769   6.333  0.5543 -0.0074 -0.2520
 3696TIP3    H132579   0.058   4.723   6.414 -0.3280  0.1791 -0.3472
 3696TIP3    H232580   0.144   4.834   6.357  1.8246 -1.3175 -0.1210
 3697TIP3   OH232581   0.561   6.040   1.444  0.0527  0.5498  0.2389
 3697TIP3    H132582   0.600   5.989   1.515 -2.0356 -1.5762  0.0103
 3697TIP3    H232583   0.480   6.074   1.481 -0.0016  1.2542 -0.5041
 3698TIP3   OH232584   6.650   0.691  12.576 -0.3959  0.0670 -0.1343
 3698TIP3    H132585   6.679   0.608  12.614  1.5153  0.7191 -0.0549
 3698TIP3    H232586   6.559   0.701  12.604 -0.9242 -2.3549 -0.8002
 3699TIP3   OH232587   1.766   1.241   4.526 -0.7462 -0.7227  0.0482
 3699TIP3    H132588   1.769   1.188   4.446  0.5444  0.8657 -1.0357
 3699TIP3    H232589   1.726   1.324   4.498  0.6454  0.2327  0.7784
 3700TIP3   OH232590   2.961   2.592  14.936  0.2237 -0.3953  0.0632
 3700TIP3    H132591   2.918   2.543  15.006  0.1522 -1.0735 -0.4457
 3700TIP3    H232592   2.962   2.532  14.861  0.4616  0.2517 -0.4654
 3701TIP3   OH232593   3.503   0.705   1.525 -0.5143 -0.1930 -0.8767
 3701TIP3    H132594   3.435   0.647   1.560 -0.2935  1.0237  1.7676
 3701TIP3    H232595   3.455   0.768   1.472 -1.2382 -0.3847 -0.4728
 3702TIP3   OH232596   5.444   4.810   6.157 -0.6528  0.8705  0.5285
 3702TIP3    H132597   5.360   4.768   6.138 -0.0585  0.3002 -1.0214
 3702TIP3    H232598   5.422   4.894   6.196 -1.9735  1.2109 -0.8798
 3703TIP3   OH232599   1.971   1.877  11.645 -0.4930  0.0756  0.0940
 3703TIP3    H132600   2.014   1.907  11.726  0.6440 -0.7050 -0.2049
 3703TIP3    H232601   2.035   1.821  11.603 -2.0134 -1.6350 -0.0884
 3704TIP3   OH232602   5.321   6.802   0.635  0.5122 -0.5999 -0.4706
 3704TIP3    H132603   5.307   6.891   0.603  1.1620 -0.3068  0.0500
 3704TIP3    H232604   5.412   6.801   0.665 -0.1544 -0.7497  1.7003
 3705TIP3   OH232605   1.649   3.571  11.364  0.1636  0.4321 -0.1652
 3705TIP3    H132606   1.731   3.603  11.402  0.2590 -0.3339  0.2877
 3705TIP3    H232607   1.602   3.532  11.437 -0.9264  1.4751 -0.2810
 3706TIP3   OH232608   2.764   2.412  10.909 -0.2479 -0.2360  0.1967
 3706TIP3    H132609   2.716   2.494  10.916  0.7256  0.3115  0.6414
 3706TIP3    H232610   2.775   2.382  10.999  0.4545 -0.2152  0.1275
 3707TIP3   OH232611   4.347   1.552  12.962 -0.0155 -0.7973  0.1712
 3707TIP3    H132612   4.407   1.509  13.023 -0.1432  0.2623  1.0848
 3707TIP3    H232613   4.262   1.548  13.005 -0.1017 -0.0112  0.0883
 3708TIP3   OH232614   0.696   1.763   6.082 -0.6203 -0.1041 -0.3816
 3708TIP3    H132615   0.606   1.781   6.109 -0.3301  0.0802  0.5206
 3708TIP3    H232616   0.706   1.668   6.091 -0.7422 -0.1288 -0.5210
 3709TIP3   OH232617   3.550   2.347   0.448 -0.0433  0.2732 -0.6744
 3709TIP3    H132618   3.468   2.397   0.452  0.6611  1.3719  0.5009
 3709TIP3    H232619   3.585   2.366   0.361 -0.5734  0.5339 -0.8396
 3710TIP3   OH232620   2.398   4.311  13.315  0.6485  0.5852  0.2410
 3710TIP3    H132621   2.478   4.328  13.364  0.8777 -2.6098  1.2418
 3710TIP3    H232622   2.428   4.290  13.227  0.8434  0.3619  0.3584
 3711TIP3   OH232623   0.363   4.873  15.046 -0.0690  0.2864 -0.5971
 3711TIP3    H132624   0.429   4.941  15.057  0.2624 -0.0335 -0.5882
 3711TIP3    H232625   0.337   4.878  14.954  0.0463  0.3433 -0.6261
 3712TIP3   OH232626   4.818   4.961   6.316 -0.3324  0.2489  0.4470
 3712TIP3    H132627   4.843   5.027   6.380  0.6376 -1.6661  2.1735
 3712TIP3    H232628   4.795   4.884   6.368 -0.0953 -1.2288 -1.4888
 3713TIP3   OH232629   3.019   5.724  17.264 -0.3529  0.5390 -0.3867
 3713TIP3    H132630   3.050   5.654  17.321  1.5562  0.4912 -1.4107
 3713TIP3    H232631   2.963   5.681  17.201 -0.3260  0.1611 -0.1572
 3714TIP3   OH232632   3.174   5.287   0.795  0.7868 -0.1758  0.6274
 3714TIP3    H132633   3.263   5.253   0.788  0.9659  0.3192  0.4813
 3714TIP3    H232634   3.170   5.327   0.882  1.4802  1.9573 -0.2631
 3715TIP3   OH232635   5.548   4.312  16.547  0.2802 -0.6980 -0.0630
 3715TIP3    H132636   5.509   4.399  16.538  0.9516 -0.4704 -0.8628
 3715TIP3    H232637   5.478   4.252  16.521  0.0791 -0.3611 -0.3127
 3716TIP3   OH232638   0.212   0.248   0.784 -0.5703 -0.0288  0.0622
 3716TIP3    H132639   0.306   0.263   0.773 -0.6837  0.1247 -0.7941
 3716TIP3    H232640   0.172   0.334   0.770 -0.9307 -0.3455 -0.9012
 3717TIP3   OH232641   6.409   5.918  14.247 -0.2248  0.0029  0.5789
 3717TIP3    H132642   6.406   6.006  14.285 -0.0001  0.7482 -1.0725
 3717TIP3    H232643   6.337   5.871  14.290  1.5521 -0.0382  3.8187
 3718TIP3   OH232644   4.571   2.578   0.713  0.1220  0.0437 -0.3001
 3718TIP3    H132645   4.526   2.656   0.680 -0.5577 -0.5524 -0.8341
 3718TIP3    H232646   4.621   2.546   0.638  2.6537  1.5018  0.6715
 3719TIP3   OH232647   3.762   2.549  11.535 -0.1711  0.4482  0.1619
 3719TIP3    H132648   3.748   2.633  11.490  1.3446  0.4048 -0.4535
 3719TIP3    H232649   3.675   2.510  11.538 -0.9347  2.0726  0.5500
 3720TIP3   OH232650   2.668   4.821   3.639 -0.1470 -0.5412 -0.6597
 3720TIP3    H132651   2.612   4.769   3.697  1.7294 -2.1736 -0.1924
 3720TIP3    H232652   2.755   4.782   3.649  1.2279  2.2334 -0.9265
 3721TIP3   OH232653   4.197   2.732   3.796  0.6894  0.2354  0.1521
 3721TIP3    H132654   4.247   2.759   3.874  2.0086 -0.3280 -0.4758
 3721TIP3    H232655   4.185   2.638   3.807 -0.8619  0.4628  0.6206
 3722TIP3   OH232656   6.134   0.284  16.168 -0.9426 -0.3530 -0.2757
 3722TIP3    H132657   6.175   0.201  16.142  0.2690  0.5418 -1.3303
 3722TIP3    H232658   6.202   0.328  16.219 -0.8193  0.8496 -1.4349
 3723TIP3   OH232659   1.740   4.343  13.537 -0.0176 -1.1512  0.0451
 3723TIP3    H132660   1.808   4.372  13.476 -1.5958 -1.0800 -1.7888
 3723TIP3    H232661   1.750   4.400  13.613  1.7797 -0.9826 -0.2649
 3724TIP3   OH232662   5.717   4.204  12.154  0.1600 -0.5616  0.3766
 3724TIP3    H132663   5.789   4.178  12.213  0.2765  2.2216  1.6455
 3724TIP3    H232664   5.638   4.194  12.207  0.1696  1.0818  0.7489
 3725TIP3   OH232665   5.186   1.343  14.595 -0.2805  0.4031  0.7026
 3725TIP3    H132666   5.211   1.251  14.600 -0.0303  0.3860 -0.5220
 3725TIP3    H232667   5.236   1.377  14.520 -2.2498  0.9113 -0.4563
 3726TIP3   OH232668   4.909   3.269   5.410 -0.3172  0.0680  0.2023
 3726TIP3    H132669   4.924   3.260   5.505 -0.9224  0.8875  0.3843
 3726TIP3    H232670   4.890   3.362   5.398  0.8911  0.1966 -0.8903
 3727TIP3   OH232671   6.357   6.379   3.873  0.4201 -0.4995 -0.4838
 3727TIP3    H132672   6.274   6.426   3.870 -0.3080 -1.7772 -1.6372
 3727TIP3    H232673   6.355   6.321   3.797  1.9869 -1.2020 -0.0421
 3728TIP3   OH232674   6.260   3.714   6.735 -0.1765 -0.2088  0.3046
 3728TIP3    H132675   6.168   3.711   6.707 -0.0975 -0.5038  0.0757
 3728TIP3    H232676   6.310   3.717   6.653  0.0433 -0.7266  0.4141
 3729TIP3   OH232677   0.131   4.421   0.985 -0.4723 -0.0487  0.6246
 3729TIP3    H132678   0.196   4.389   0.923 -2.0672 -3.0374  0.2995
 3729TIP3    H232679   0.067   4.469   0.932 -0.2980 -0.0417  0.4213
 3730TIP3   OH232680   4.302   2.398   2.872  0.0300 -0.0794  0.0938
 3730TIP3    H132681   4.359   2.465   2.834  0.8983 -1.0757 -0.3835
 3730TIP3    H232682   4.285   2.429   2.961 -1.0134  1.6616 -0.6519
 3731TIP3   OH232683   2.177   1.869   0.654  0.4285  0.5046 -0.1826
 3731TIP3    H132684   2.247   1.926   0.620  1.9526 -1.0934  0.0901
 3731TIP3    H232685   2.103   1.884   0.595  0.9847  2.2307 -0.5152
 3732TIP3   OH232686   3.886   5.232  12.141 -0.1430  0.1152  0.3649
 3732TIP3    H132687   3.957   5.225  12.205 -0.9481 -4.4756  1.1281
 3732TIP3    H232688   3.806   5.229  12.193 -0.8059 -1.7613 -0.6619
 3733TIP3   OH232689   2.099   0.215   3.179 -0.4439 -0.3091 -0.2415
 3733TIP3    H132690   2.042   0.151   3.136 -1.1820  0.2191 -0.0774
 3733TIP3    H232691   2.152   0.250   3.107  0.1660 -1.2852 -0.2892
 3734TIP3   OH232692   5.415   6.534  11.946  0.0215  0.0052  0.3725
 3734TIP3    H132693   5.405   6.532  12.041 -1.3598 -1.4826  0.2339
 3734TIP3    H232694   5.437   6.444  11.922  2.5944  0.7890 -0.5598
 3735TIP3   OH232695   5.366   5.202   3.153  0.1610  0.1680  0.3248
 3735TIP3    H132696   5.290   5.144   3.160 -0.1890  0.7173  1.1871
 3735TIP3    H232697   5.405   5.179   3.069 -0.1059 -1.1588  0.5328
 3736TIP3   OH232698   5.729   0.463   2.999  0.0766  0.4025 -0.4446
 3736TIP3    H132699   5.791   0.403   2.957 -0.1656  0.2926 -0.6444
 3736TIP3    H232700   5.755   0.550   2.968  0.7787  0.4704  0.2755
 3737TIP3   OH232701   0.114   1.132  15.702  0.3186 -0.2927  0.6865
 3737TIP3    H132702   0.113   1.129  15.798  2.0648 -1.5855  0.7106
 3737TIP3    H232703   0.181   1.197  15.681  0.0671 -0.1456  0.3378
 3738TIP3   OH232704   5.861   3.117   3.235  0.8883 -0.4777 -0.3765
 3738TIP3    H132705   5.904   3.168   3.304  0.0770 -1.8140  1.1721
 3738TIP3    H232706   5.929   3.056   3.206  1.1717 -0.0384 -0.6673
 3739TIP3   OH232707   0.417   5.887  16.176 -0.0933  0.3500  0.0622
 3739TIP3    H132708   0.339   5.845  16.140  1.2760 -2.9915  0.6795
 3739TIP3    H232709   0.447   5.945  16.106 -1.9462  0.1399 -0.9763
 3740TIP3   OH232710   1.163   5.043  14.569  0.9830 -0.2093  0.1889
 3740TIP3    H132711   1.085   5.008  14.612  2.0526 -0.3109  2.1554
 3740TIP3    H232712   1.200   4.968  14.523 -0.0284 -0.1668 -0.7367
 3741TIP3   OH232713   5.435   2.077   1.858 -0.3334  0.3948  0.1306
 3741TIP3    H132714   5.530   2.081   1.848  0.2369 -1.0995  3.5428
 3741TIP3    H232715   5.414   2.152   1.914 -1.0121  0.1734  0.1856
 3742TIP3   OH232716   6.586   6.659   1.163  0.2715 -0.1623 -0.4335
 3742TIP3    H132717   6.680   6.670   1.148 -0.1357  1.1270 -2.3800
 3742TIP3    H232718   6.560   6.592   1.101 -0.0926 -0.6261  0.2089
 3743TIP3   OH232719   0.718   4.537   0.395 -0.7993 -0.0702  0.2034
 3743TIP3    H132720   0.690   4.628   0.408 -0.1488  0.4583 -1.7736
 3743TIP3    H232721   0.639   4.485   0.410 -0.9810  0.6847  2.2721
 3744TIP3   OH232722   3.830   4.515   3.524  0.1648 -0.0064  0.0604
 3744TIP3    H132723   3.832   4.435   3.577 -0.8471 -0.1750 -0.1270
 3744TIP3    H232724   3.844   4.586   3.587 -2.5992 -0.0742  0.9019
 3745TIP3   OH232725   0.220   6.802  15.390 -0.2391 -0.0999 -0.0052
 3745TIP3    H132726   0.141   6.842  15.427 -0.3374  1.5867 -1.8305
 3745TIP3    H232727   0.201   6.709  15.387 -1.8417  0.1898  0.3496
 3746TIP3   OH232728   4.075   3.124   0.380  0.8031  0.0879 -0.0081
 3746TIP3    H132729   4.079   3.053   0.316  0.5750 -0.6072  0.7353
 3746TIP3    H232730   3.984   3.125   0.409  0.9695  0.1965  0.5220
 3747TIP3   OH232731   5.637   1.967  14.685 -0.9936  0.0462 -0.3077
 3747TIP3    H132732   5.680   2.042  14.646  2.8573 -1.3002  0.8673
 3747TIP3    H232733   5.624   1.992  14.777  0.5231 -0.7144  0.1456
 3748TIP3   OH232734   6.182   6.415   0.621  0.6035 -0.0486  0.1334
 3748TIP3    H132735   6.194   6.335   0.570  0.0116  0.8945 -1.5504
 3748TIP3    H232736   6.104   6.397   0.674  0.0132 -0.3307 -0.7949
 3749TIP3   OH232737   0.280   6.302   5.237 -0.3288  0.3902  0.6577
 3749TIP3    H132738   0.272   6.378   5.180  0.3006  0.0003  0.0332
 3749TIP3    H232739   0.369   6.307   5.272 -0.0683 -0.3645  0.1440
 3750TIP3   OH232740   1.317   3.792   0.889  0.1754 -0.4051  0.0111
 3750TIP3    H132741   1.404   3.753   0.884  0.2520 -0.3730  0.8388
 3750TIP3    H232742   1.257   3.718   0.893  0.2220 -0.4336  0.1934
 3751TIP3   OH232743   4.453   5.950  16.381 -0.5059 -0.0255  0.3061
 3751TIP3    H132744   4.482   6.040  16.369  0.6491 -0.5207 -0.8286
 3751TIP3    H232745   4.358   5.954  16.375 -0.4556  1.1033  0.1635
 3752TIP3   OH232746   1.708   1.289  15.190 -1.0391 -0.4414  0.1206
 3752TIP3    H132747   1.684   1.265  15.100  1.8923 -1.1919 -0.5765
 3752TIP3    H232748   1.659   1.369  15.208  0.4106  1.4146 -3.2796
 3753TIP3   OH232749   5.333   4.101   2.334 -0.2219 -1.1204  0.9568
 3753TIP3    H132750   5.291   4.049   2.266 -5.2838  1.5042  1.6119
 3753TIP3    H232751   5.314   4.054   2.416  1.0459 -1.4633  1.0883
 3754TIP3   OH232752   5.887   2.700   5.382 -0.0218  0.4716 -0.1208
 3754TIP3    H132753   5.841   2.617   5.395  0.0181  0.5120  0.2964
 3754TIP3    H232754   5.897   2.707   5.288  0.3017 -0.1795 -0.1397
 3755TIP3   OH232755   4.545   2.659  12.250  0.4346 -0.0603  0.5177
 3755TIP3    H132756   4.603   2.653  12.174  1.3492 -2.3218  1.3132
 3755TIP3    H232757   4.580   2.732  12.301  0.0534  1.2220 -0.9845
 3756TIP3   OH232758   1.108   0.907   4.878  0.2594 -0.4897 -0.5079
 3756TIP3    H132759   1.099   0.858   4.959  0.3827  1.1790  0.5475
 3756TIP3    H232760   1.040   0.974   4.882 -0.1271 -0.7281 -2.0725
 3757TIP3   OH232761   0.788   6.377   3.992  0.6828 -0.3109 -0.5697
 3757TIP3    H132762   0.837   6.310   4.039  1.6153  0.9026  0.2575
 3757TIP3    H232763   0.726   6.411   4.057  1.8670  1.2603 -0.1976
 3758TIP3   OH232764   3.860   6.193  16.742  0.1304 -0.6784 -0.2294
 3758TIP3    H132765   3.870   6.287  16.755  1.5960 -0.5926 -1.6884
 3758TIP3    H232766   3.940   6.155  16.779 -0.4829 -1.3683  0.4146
 3759TIP3   OH232767   4.320   0.452   2.902 -0.0178 -0.6899 -1.2449
 3759TIP3    H132768   4.286   0.488   2.983 -0.8665 -0.0637 -1.8695
 3759TIP3    H232769   4.400   0.407   2.928  0.3612  0.5066 -0.2414
 3760TIP3   OH232770   6.658   0.078  17.258 -0.3397 -0.5501  0.1160
 3760TIP3    H132771   6.663   0.124  17.342  0.0331  0.2184 -0.3178
 3760TIP3    H232772   6.587   0.014  17.270 -0.8944  0.1553  0.7251
 3761TIP3   OH232773   1.332   0.511  14.936  0.3642  0.1540 -0.5073
 3761TIP3    H132774   1.343   0.416  14.928 -0.2377  0.2357 -3.5485
 3761TIP3    H232775   1.421   0.546  14.937  0.6030 -0.3991  1.0152
 3762TIP3   OH232776   2.508   3.751  15.267  0.3702  1.5525  0.6879
 3762TIP3    H132777   2.428   3.802  15.254 -1.8470 -1.7041  0.1773
 3762TIP3    H232778   2.568   3.810  15.311 -2.1052  4.3731  0.5694
 3763TIP3   OH232779   5.371   3.719  14.106  0.2848  0.1312  0.3498
 3763TIP3    H132780   5.362   3.799  14.054 -1.1497 -1.1966 -1.5959
 3763TIP3    H232781   5.336   3.649  14.049  0.4722 -1.7239  2.3783
 3764TIP3   OH232782   3.284   5.226   4.362  0.6069 -0.2416  0.6368
 3764TIP3    H132783   3.277   5.319   4.345 -1.7416 -0.4038  0.4880
 3764TIP3    H232784   3.361   5.198   4.313  1.5497  1.6446  0.9604
 3765TIP3   OH232785   0.823   5.894   2.902  1.0661 -0.2040 -0.3622
 3765TIP3    H132786   0.763   5.857   2.837 -1.0531 -1.3918  2.0636
 3765TIP3    H232787   0.864   5.817   2.942 -1.1464  0.0294  2.7224
 3766TIP3   OH232788   5.733   2.688  15.969  0.2998  0.7921  0.2644
 3766TIP3    H132789   5.640   2.703  15.982  0.2643  2.1761 -1.3270
 3766TIP3    H232790   5.739   2.621  15.901  0.4575  0.9556  0.1132
 3767TIP3   OH232791   5.150   2.028  10.555 -0.3903  0.0235 -0.2023
 3767TIP3    H132792   5.173   2.120  10.544 -1.2826  0.3168  0.3470
 3767TIP3    H232793   5.150   1.993  10.465  0.2609  0.4768 -0.3853
 3768TIP3   OH232794   1.054   6.020  12.559 -0.0396  0.3533  0.1087
 3768TIP3    H132795   1.042   5.991  12.469  0.0465 -0.2149  0.2765
 3768TIP3    H232796   1.148   6.025  12.571  0.1023 -2.4629  1.0332
 3769TIP3   OH232797   0.423   4.249  15.039 -0.5571  0.0631  0.0376
 3769TIP3    H132798   0.469   4.271  15.120  2.1276  1.1552 -1.6319
 3769TIP3    H232799   0.455   4.162  15.016  0.1690  0.5145 -0.7430
 3770TIP3   OH232800   4.862   4.467   2.499  0.0975 -0.3606 -0.1070
 3770TIP3    H132801   4.836   4.559   2.510  1.0158 -0.2837  2.0843
 3770TIP3    H232802   4.788   4.418   2.535  0.2370 -0.4118  0.1103
 3771TIP3   OH232803   6.399   3.412  12.306 -0.0150  0.0725 -0.5692
 3771TIP3    H132804   6.469   3.463  12.346 -1.7928  0.1785  2.7460
 3771TIP3    H232805   6.346   3.476  12.259  0.1211  0.5912 -0.0309
 3772TIP3   OH232806   2.554   1.023   3.372  0.2554  0.3712 -1.1058
 3772TIP3    H132807   2.551   1.103   3.425  1.0812  0.5131 -1.2623
 3772TIP3    H232808   2.603   0.960   3.424 -1.0996 -0.3303 -0.6244
 3773TIP3   OH232809   6.210   5.771  14.407 -0.0426  0.3636  0.2028
 3773TIP3    H132810   6.125   5.739  14.439  0.4957 -0.4809  0.8334
 3773TIP3    H232811   6.239   5.833  14.474 -0.3494  0.9644 -0.2187
 3774TIP3   OH232812   1.746   6.184  15.450  0.2854  0.2949 -0.3958
 3774TIP3    H132813   1.680   6.121  15.477  1.3016 -0.8327 -0.4667
 3774TIP3    H232814   1.746   6.178  15.354 -1.8876  2.8155 -0.6764
 3775TIP3   OH232815   2.713   2.700  16.704 -0.0340  0.3685 -0.0101
 3775TIP3    H132816   2.620   2.693  16.728 -0.6870 -0.1094 -2.3745
 3775TIP3    H232817   2.754   2.625  16.747 -0.7150  0.6093  1.1151
 3776TIP3   OH232818   6.041   2.302  11.255 -0.3317 -0.2847 -0.0494
 3776TIP3    H132819   5.971   2.311  11.191  0.2160  0.4308 -0.5626
 3776TIP3    H232820   6.121   2.319  11.206  0.0305  1.3847  1.0380
 3777TIP3   OH232821   1.442   1.318  15.067  0.2710  0.2944  0.1323
 3777TIP3    H132822   1.390   1.306  14.988  0.6140 -1.0018  0.0815
 3777TIP3    H232823   1.414   1.403  15.101 -0.9688  0.1976 -0.5632
 3778TIP3   OH232824   6.760   2.846  16.281  0.2120  0.0854  0.4770
 3778TIP3    H132825   6.792   2.927  16.242 -0.2631 -0.6263 -1.5302
 3778TIP3    H232826   6.766   2.782  16.210 -2.2629 -0.9264  1.0962
 3779TIP3   OH232827   2.861   2.925   2.914  0.3878 -0.0439  0.3283
 3779TIP3    H132828   2.954   2.912   2.933  0.1409 -0.8081  1.1124
 3779TIP3    H232829   2.859   2.993   2.847  1.6378 -1.7519 -1.5588
 3780TIP3   OH232830   2.098   4.299   3.447  0.0400  0.4036 -0.5345
 3780TIP3    H132831   2.054   4.216   3.427 -1.7209  1.2855 -0.4896
 3780TIP3    H232832   2.191   4.277   3.447 -0.3994 -1.7680  0.3196
 3781TIP3   OH232833   6.580   4.065   5.032 -0.1013 -0.3501  0.4592
 3781TIP3    H132834   6.666   4.075   4.991 -0.1138  0.7147  0.6604
 3781TIP3    H232835   6.589   4.108   5.117 -0.9472  0.1529  0.3055
 3782TIP3   OH232836   3.541   2.987   3.596  0.0251 -0.0563 -0.1501
 3782TIP3    H132837   3.500   2.918   3.545  0.5756 -0.2741 -0.3076
 3782TIP3    H232838   3.599   3.031   3.534  0.3515 -0.0275  0.1701
 3783TIP3   OH232839   6.800   4.375  13.863  0.1788  0.0630 -0.1696
 3783TIP3    H132840   6.866   4.308  13.878  0.0084  0.2361  1.6328
 3783TIP3    H232841   6.717   4.328  13.869  0.0995 -0.1664 -2.4884
 3784TIP3   OH232842   4.246   3.295   3.537  0.0303 -0.3979 -0.0515
 3784TIP3    H132843   4.261   3.386   3.564 -1.7522  0.5462 -1.9272
 3784TIP3    H232844   4.299   3.285   3.458  1.2174 -1.4441  0.8505
 3785TIP3   OH232845   0.797   0.409   2.987 -0.2792 -0.0107 -0.0434
 3785TIP3    H132846   0.795   0.504   2.972  0.4475  0.3473  1.8817
 3785TIP3    H232847   0.850   0.375   2.914 -1.1836  0.9490 -1.1776
 3786TIP3   OH232848   0.519   6.754  12.367 -0.1136  0.3356  0.5623
 3786TIP3    H132849   0.466   6.834  12.361 -1.0458 -0.3255 -0.2689
 3786TIP3    H232850   0.576   6.758  12.290  1.0508  1.0080  1.4129
 3787TIP3   OH232851   5.117   6.756  16.690  0.2355 -0.3637 -0.4900
 3787TIP3    H132852   5.135   6.662  16.696  2.2765 -0.1368 -1.7445
 3787TIP3    H232853   5.178   6.787  16.622 -0.2275  1.8989  0.0433
 3788TIP3   OH232854   3.891   4.867  15.904 -0.1613  0.5734  0.1447
 3788TIP3    H132855   3.986   4.875  15.913 -0.3272  0.7666  2.0067
 3788TIP3    H232856   3.878   4.781  15.863  0.7885  0.2381  0.5156
 3789TIP3   OH232857   6.549   1.127  14.933 -0.0745 -0.0716  0.1571
 3789TIP3    H132858   6.556   1.191  15.003 -0.0555  1.0378 -0.8300
 3789TIP3    H232859   6.462   1.142  14.896 -0.3133 -1.0365  0.2964
 3790TIP3   OH232860   2.943   3.030  16.489 -0.0072  0.0843 -0.2803
 3790TIP3    H132861   3.017   2.971  16.494 -0.7652 -0.8657  0.0562
 3790TIP3    H232862   2.939   3.057  16.397  1.6121  1.3180 -0.0438
 3791TIP3   OH232863   1.315   4.586   2.088  0.1984  0.4935 -0.7866
 3791TIP3    H132864   1.231   4.629   2.072 -0.5585 -1.2513 -1.7277
 3791TIP3    H232865   1.299   4.528   2.162  0.4681 -0.1425 -1.2252
 3792TIP3   OH232866   4.130   6.187   6.312 -0.0235 -0.1080  0.1618
 3792TIP3    H132867   4.193   6.137   6.365  0.1928  0.7316  0.7215
 3792TIP3    H232868   4.046   6.145   6.329  0.1664 -0.3487  0.5419
 3793TIP3   OH232869   6.620   3.222   2.883  0.3491  0.0372  0.5355
 3793TIP3    H132870   6.591   3.229   2.792 -1.5243  1.7667  1.1917
 3793TIP3    H232871   6.655   3.134   2.890  0.8240 -0.0414 -1.9262
 3794TIP3   OH232872   3.385   1.523  16.333 -0.3751  0.2775 -0.2917
 3794TIP3    H132873   3.308   1.468  16.322 -0.6553  0.1257  1.9598
 3794TIP3    H232874   3.449   1.466  16.376  0.1535  1.0659 -0.0134
 3795TIP3   OH232875   5.096   3.647   5.142 -0.0526  0.2605  0.2196
 3795TIP3    H132876   5.125   3.623   5.055  0.0812  2.1013 -0.2869
 3795TIP3    H232877   5.173   3.635   5.198 -0.4584 -2.0492  0.3566
 3796TIP3   OH232878   1.233   2.064   1.651 -0.0703  0.1111  0.5522
 3796TIP3    H132879   1.226   2.075   1.557  2.3080 -0.4714  0.2467
 3796TIP3    H232880   1.247   2.152   1.685  2.2971  0.0273 -0.0466
 3797TIP3   OH232881   2.591   2.451   4.975  0.3707 -0.4000  0.5724
 3797TIP3    H132882   2.538   2.402   5.037  0.1172 -0.7362  0.0905
 3797TIP3    H232883   2.634   2.385   4.922  0.7887 -0.1181  0.5541
 3798TIP3   OH232884   3.964   4.552   6.744  0.3518  0.1102  0.4503
 3798TIP3    H132885   3.874   4.570   6.771  0.4276  1.0663  0.1183
 3798TIP3    H232886   4.000   4.638   6.722  0.7969 -0.4514 -1.1362
 3799TIP3   OH232887   6.184   2.146   2.093 -0.3081 -0.2764 -0.2948
 3799TIP3    H132888   6.148   2.127   2.007  1.2379 -0.3656 -0.9519
 3799TIP3    H232889   6.223   2.064   2.122 -0.9323 -0.2822  0.5582
 3800TIP3   OH232890   5.603   4.059  14.962 -0.2618  0.8428 -0.2197
 3800TIP3    H132891   5.691   4.039  14.994 -0.4683 -0.9973 -0.6623
 3800TIP3    H232892   5.589   3.996  14.891 -1.8596  1.2371 -0.2897
 3801TIP3   OH232893   6.007   3.254   1.067 -0.1458 -0.3130 -0.3435
 3801TIP3    H132894   6.075   3.203   1.024  1.3201  1.2259  0.0316
 3801TIP3    H232895   5.981   3.320   1.003  0.4945  0.6200  0.3186
 3802TIP3   OH232896   5.169   2.723   0.390  0.3996  0.3508  0.1202
 3802TIP3    H132897   5.095   2.709   0.449 -0.8205  0.3583 -1.3446
 3802TIP3    H232898   5.134   2.780   0.321  1.7540  0.2931 -0.6488
 3803TIP3   OH232899   4.048   1.398  14.147  0.2824 -0.2079 -0.5820
 3803TIP3    H132900   4.128   1.421  14.100  0.2858 -1.7509 -1.4002
 3803TIP3    H232901   4.012   1.324  14.099 -0.8382 -0.5136  0.6524
 3804TIP3   OH232902   4.045   2.861  11.554  0.0938 -0.2692  0.2957
 3804TIP3    H132903   4.049   2.768  11.576  1.3164 -0.1432  0.6981
 3804TIP3    H232904   3.990   2.900  11.621 -1.6031 -0.9046 -0.6791
 3805TIP3   OH232905   0.024   0.627  13.988 -0.1253  0.0626 -0.5440
 3805TIP3    H132906  -0.045   0.689  13.964  1.3415  1.0682 -2.4883
 3805TIP3    H232907  -0.010   0.541  13.963 -0.9158  0.4631 -0.8702
 3806TIP3   OH232908   0.118   0.900  14.532 -0.4270 -1.0609  0.2768
 3806TIP3    H132909   0.152   0.968  14.474 -1.6099 -0.8407 -0.1910
 3806TIP3    H232910   0.120   0.940  14.619  1.2550 -1.3548  0.4028
 3807TIP3   OH232911   2.889   3.167   5.057  0.0853 -0.3232 -0.2039
 3807TIP3    H132912   2.879   3.173   4.962 -1.3402 -1.3414 -0.1461
 3807TIP3    H232913   2.901   3.073   5.073  1.5797 -0.0326  0.5336
 3808TIP3   OH232914   5.620   3.501  13.055  0.3717 -0.0761 -0.2496
 3808TIP3    H132915   5.646   3.592  13.039 -1.3299  0.3416 -0.9062
 3808TIP3    H232916   5.639   3.456  12.973  0.0519 -0.0111 -0.3620
 3809TIP3   OH232917   4.402   2.404  12.269  1.0729  0.0340 -0.0987
 3809TIP3    H132918   4.432   2.494  12.261 -1.5274  0.9958 -0.2523
 3809TIP3    H232919   4.314   2.405  12.230  1.3521 -2.8220 -1.0406
 3810TIP3   OH232920   0.772   3.134   3.779 -0.3625  0.7472 -0.1898
 3810TIP3    H132921   0.859   3.134   3.817  0.4938  1.5756 -2.0189
 3810TIP3    H232922   0.773   3.062   3.715 -1.4282 -0.0000  0.6092
 3811TIP3   OH232923   2.540   6.212   3.929 -0.1539  0.1737  0.2172
 3811TIP3    H132924   2.467   6.243   3.982 -0.4348 -0.0584 -0.0362
 3811TIP3    H232925   2.513   6.126   3.898  0.7084 -0.4566  1.1078
 3812TIP3   OH232926   5.402   2.222   3.391  0.6702 -0.0132 -0.0146
 3812TIP3    H132927   5.474   2.286   3.390  1.3337 -0.5615  2.8907
 3812TIP3    H232928   5.324   2.275   3.409  0.9048  0.2314  0.3128
 3813TIP3   OH232929   5.864   3.170  15.922 -0.4936  0.1453 -0.5119
 3813TIP3    H132930   5.854   3.106  15.852 -2.2053  0.8533 -0.9480
 3813TIP3    H232931   5.899   3.248  15.879  1.9996 -0.5298  0.0867
 3814TIP3   OH232932   2.549   0.834   4.139 -0.4369 -0.5568  0.2192
 3814TIP3    H132933   2.558   0.861   4.230 -0.5874  1.3699 -0.2709
 3814TIP3    H232934   2.581   0.744   4.136  0.1325 -0.4463  2.0475
 3815TIP3   OH232935   2.226   1.801  12.482  0.6110 -0.2047 -0.2093
 3815TIP3    H132936   2.216   1.706  12.484 -1.2095 -0.0920 -1.5714
 3815TIP3    H232937   2.137   1.834  12.495  1.2642  1.3344  0.5491
 3816TIP3   OH232938   1.072   1.744  12.660 -0.3968  0.6556 -0.3385
 3816TIP3    H132939   1.096   1.778  12.574 -2.3025  0.5003 -0.9869
 3816TIP3    H232940   0.983   1.778  12.675 -0.3232  0.2018  1.3051
 3817TIP3   OH232941   3.321   1.594   3.372  0.8014  0.9079 -0.1100
 3817TIP3    H132942   3.302   1.639   3.289  1.4508  0.4852 -0.4954
 3817TIP3    H232943   3.415   1.611   3.387  0.9072  0.1978  0.0525
 3818TIP3   OH232944   0.269   2.717   5.896 -0.1118 -0.6717  0.1827
 3818TIP3    H132945   0.301   2.742   5.982 -0.0056 -0.0541 -0.0343
 3818TIP3    H232946   0.347   2.711   5.842 -0.1846 -0.9922  0.1067
 3819TIP3   OH232947   2.585   3.217  15.969 -0.5027 -0.1200  0.5616
 3819TIP3    H132948   2.505   3.215  16.021 -0.6233 -1.0219  0.3558
 3819TIP3    H232949   2.645   3.160  16.017 -0.6096 -0.9503 -0.2729
 3820TIP3   OH232950   1.825   6.799   3.483 -0.4546 -0.8778 -0.2529
 3820TIP3    H132951   1.826   6.776   3.575 -1.8264 -0.9791 -0.2557
 3820TIP3    H232952   1.906   6.849   3.470 -0.2501 -0.8689  0.9858
 3821TIP3   OH232953   4.168   0.562   2.457 -0.4417  0.6304 -0.1666
 3821TIP3    H132954   4.257   0.528   2.463 -0.4441  0.6915  0.2544
 3821TIP3    H232955   4.120   0.518   2.528 -0.1681  2.3337  1.1645
 3822TIP3   OH232956   6.237   3.076   2.508  0.2917 -0.1745 -0.1182
 3822TIP3    H132957   6.230   3.111   2.420  1.1930  0.0858 -0.0943
 3822TIP3    H232958   6.253   3.153   2.563  0.7647 -0.4488  0.1317
 3823TIP3   OH232959   0.807   5.970  15.468 -1.0354  0.1851  0.0887
 3823TIP3    H132960   0.762   5.971  15.383 -1.6045  0.3674  0.3814
 3823TIP3    H232961   0.737   5.954  15.532 -0.2667 -2.6673  0.3515
 3824TIP3   OH232962   2.755   1.140  15.756  0.4454  0.6425 -0.0122
 3824TIP3    H132963   2.763   1.170  15.846  2.3579 -0.4005  0.2139
 3824TIP3    H232964   2.826   1.077  15.745 -0.4836 -0.1483 -1.9007
 3825TIP3   OH232965   6.777   1.253  12.043  0.3918  0.0752  0.5916
 3825TIP3    H132966   6.802   1.300  11.964 -0.6225  1.1376  0.8832
 3825TIP3    H232967   6.792   1.315  12.114 -0.0737 -0.3607  1.0825
 3826TIP3   OH232968   0.045   3.734   0.304 -0.4501 -0.0965 -0.4594
 3826TIP3    H132969   0.089   3.804   0.352 -1.0780 -0.4437  0.6563
 3826TIP3    H232970   0.045   3.660   0.364 -0.1020 -0.9543 -1.5036
 3827TIP3   OH232971   5.357   2.685   1.534  0.6100 -1.2787 -0.2270
 3827TIP3    H132972   5.278   2.732   1.560  0.9473 -1.8591  2.0510
 3827TIP3    H232973   5.337   2.651   1.446 -1.0748 -0.1561 -0.3182
 3828TIP3   OH232974   6.698   1.305  15.641 -0.5480 -0.3532 -0.1733
 3828TIP3    H132975   6.761   1.374  15.661 -1.2887  0.1068  0.6823
 3828TIP3    H232976   6.729   1.229  15.691 -1.4966  0.3295  1.5756
 3829TIP3   OH232977   3.594   2.702  15.337 -0.3368 -0.1681  0.3668
 3829TIP3    H132978   3.608   2.738  15.424  0.5197 -1.7345  0.9266
 3829TIP3    H232979   3.502   2.720  15.318 -0.1535  1.5218  0.9336
 3830TIP3   OH232980   4.667   5.560  16.451  0.5674 -0.0306  0.5210
 3830TIP3    H132981   4.572   5.545  16.455  0.6593 -0.3982  1.7826
 3830TIP3    H232982   4.687   5.608  16.531  1.4646 -0.0219  0.3029
 3831TIP3   OH232983   6.245   5.824  10.916  0.3843  0.3655 -0.8238
 3831TIP3    H132984   6.280   5.865  10.838  2.3146  0.1884 -0.0965
 3831TIP3    H232985   6.295   5.862  10.988 -0.1081 -0.7773  0.1606
 3832TIP3   OH232986   5.403   0.528   2.154  0.2749  0.8358  0.8071
 3832TIP3    H132987   5.447   0.443   2.150  0.5704  1.0068  0.3193
 3832TIP3    H232988   5.348   0.523   2.232  1.2073  0.6409  1.4695
 3833TIP3   OH232989   3.631   0.107   5.186  0.1809 -0.2742  0.6010
 3833TIP3    H132990   3.599   0.084   5.099 -0.0896  0.2054  0.5677
 3833TIP3    H232991   3.695   0.040   5.207 -0.8541 -1.2692  0.6756
 3834TIP3   OH232992   1.612   4.485  13.934 -0.2404  0.4633 -0.4361
 3834TIP3    H132993   1.518   4.483  13.912 -0.3465  2.1067 -0.2233
 3834TIP3    H232994   1.615   4.467  14.028 -0.3583  0.7453 -0.3794
 3835TIP3   OH232995   2.864   2.613   3.688  0.3133 -0.2232  0.4595
 3835TIP3    H132996   2.865   2.588   3.596 -1.3524 -1.5159  0.7269
 3835TIP3    H232997   2.779   2.655   3.701  0.8583  0.6791  1.2438
 3836TIP3   OH232998   4.777   4.283   4.596  0.2478  0.2231 -0.1901
 3836TIP3    H132999   4.698   4.230   4.581  0.6750 -0.7877  0.9399
 3836TIP3    H233000   4.831   4.269   4.519  0.1760 -0.6969 -0.0857
 3837TIP3   OH233001   0.094   6.021   4.878 -0.9646 -0.0368 -0.0852
 3837TIP3    H133002   0.095   6.045   4.970  0.5437  0.1671 -0.1332
 3837TIP3    H233003   0.057   6.097   4.833  1.3745  1.2623  0.0395
 3838TIP3   OH233004   4.709   3.445   4.008  0.0874 -0.2956 -0.0060
 3838TIP3    H133005   4.676   3.392   3.936 -0.9654 -0.0677  0.2824
 3838TIP3    H233006   4.768   3.386   4.056 -0.0202 -0.7785 -0.4543
 3839TIP3   OH233007   0.757   4.065  14.615  0.0997  0.1807  0.0239
 3839TIP3    H133008   0.801   4.008  14.678 -1.7541 -0.0220  1.2233
 3839TIP3    H233009   0.726   4.006  14.546 -0.5458 -0.0914  0.5276
 3840TIP3   OH233010   5.325   1.162   1.558 -0.1784  0.4844 -0.2790
 3840TIP3    H133011   5.286   1.245   1.588  0.8366  1.4484 -1.5334
 3840TIP3    H233012   5.393   1.188   1.497 -0.8772 -1.3294 -1.9332
 3841TIP3   OH233013   0.410   1.445   3.100  0.2090  0.0698 -0.0351
 3841TIP3    H133014   0.393   1.509   3.031  1.0025  1.7115  1.2247
 3841TIP3    H233015   0.407   1.360   3.055 -0.9997  0.9566 -1.7302
 3842TIP3   OH233016   5.011   0.774  15.270 -0.5704  0.1690  0.1061
 3842TIP3    H133017   5.050   0.801  15.187 -1.2137  0.9532  0.0454
 3842TIP3    H233018   4.938   0.836  15.284  0.7028  1.3238  2.2265
 3843TIP3   OH233019   5.398   4.936  15.473  0.2755  0.1601 -0.1399
 3843TIP3    H133020   5.463   4.889  15.421  0.3292 -1.1400  1.0547
 3843TIP3    H233021   5.330   4.959  15.410 -1.1628 -4.0247 -0.3993
 3844TIP3   OH233022   0.295   4.841  11.964 -0.1294  0.3626  0.7164
 3844TIP3    H133023   0.280   4.806  12.052  0.8815  0.4326  0.9272
 3844TIP3    H233024   0.383   4.811  11.941 -0.2551  0.6278 -0.1432
 3845TIP3   OH233025   2.213   1.093   4.330 -0.0481  0.5218 -0.3573
 3845TIP3    H133026   2.147   1.145   4.377 -0.5109  0.8317 -1.3159
 3845TIP3    H233027   2.232   1.144   4.251  0.5306 -0.1003 -0.6313
 3846TIP3   OH233028   1.446   5.187  15.815 -0.1077 -0.1047  0.1011
 3846TIP3    H133029   1.484   5.250  15.754 -2.0331 -1.2085 -2.4260
 3846TIP3    H233030   1.485   5.103  15.790 -1.0566 -0.6005  0.2441
 3847TIP3   OH233031   2.736   1.871   0.599 -0.4282  0.4098  0.3312
 3847TIP3    H133032   2.739   1.776   0.591  0.8528  0.5582 -1.8870
 3847TIP3    H233033   2.726   1.887   0.693  1.2829 -1.8955  1.0137
 3848TIP3   OH233034   4.889   5.288  12.874  0.1460 -0.0155  0.5781
 3848TIP3    H133035   4.973   5.242  12.875 -0.2115 -0.6749  1.9021
 3848TIP3    H233036   4.831   5.234  12.928 -0.7614  1.1099  0.7684
 3849TIP3   OH233037   5.590   5.328   5.935  0.2879 -0.0339  0.2416
 3849TIP3    H133038   5.676   5.368   5.925  0.3819  0.8685  3.5026
 3849TIP3    H233039   5.580   5.315   6.030 -2.1315 -2.5024 -0.2113
 3850TIP3   OH233040   5.913   6.614   5.715  0.0217  0.0195  0.5380
 3850TIP3    H133041   5.941   6.567   5.794  0.3306  0.6183  0.7947
 3850TIP3    H233042   5.856   6.553   5.669  0.5840 -0.6758  0.7597
 3851TIP3   OH233043   5.374   4.501  12.641  0.1280  0.5495 -0.9221
 3851TIP3    H133044   5.438   4.429  12.639  0.3335  0.7191 -3.4502
 3851TIP3    H233045   5.417   4.573  12.595 -1.4227  1.0669 -1.6176
 3852TIP3   OH233046   1.156   5.514   4.215  0.1182 -0.1134 -0.0480
 3852TIP3    H133047   1.124   5.572   4.284  0.0565  0.6739 -0.7196
 3852TIP3    H233048   1.231   5.469   4.254  1.8961  2.4071 -0.3206
 3853TIP3   OH233049   1.823   3.352   2.423 -0.0791 -0.0449  0.6545
 3853TIP3    H133050   1.893   3.287   2.422  1.6631  1.7360  0.8518
 3853TIP3    H233051   1.854   3.420   2.364 -2.4682  0.0408 -0.5942
 3854TIP3   OH233052   4.499   2.247  15.212 -0.0684 -0.3356  0.5759
 3854TIP3    H133053   4.428   2.270  15.151  0.3298 -1.3275 -0.2958
 3854TIP3    H233054   4.545   2.330  15.225  0.7978 -0.3530 -1.7919
 3855TIP3   OH233055   6.612   6.411   4.671  0.1966 -0.3735  0.5234
 3855TIP3    H133056   6.557   6.391   4.595  0.2889  1.6097 -0.1161
 3855TIP3    H233057   6.552   6.408   4.745 -1.1134  2.6275 -0.2575
 3856TIP3   OH233058   1.696   3.069   3.573 -0.4608  0.4378 -0.4903
 3856TIP3    H133059   1.672   3.161   3.566  1.2396  0.8801 -0.7436
 3856TIP3    H233060   1.786   3.069   3.605 -0.1670 -1.1087 -1.2066
 3857TIP3   OH233061   6.099   5.311   5.281 -0.2966  0.6697  0.3613
 3857TIP3    H133062   6.098   5.312   5.377 -2.2899  1.3973  0.3783
 3857TIP3    H233063   6.077   5.221   5.257 -0.5493  0.6648  0.6087
 3858TIP3   OH233064   1.787   6.632  12.571  0.0139  0.1992  0.6610
 3858TIP3    H133065   1.809   6.619  12.663 -0.5377 -1.4865  0.5768
 3858TIP3    H233066   1.698   6.597  12.562  1.2334 -2.7388 -1.1597
 3859TIP3   OH233067   0.090   4.416   0.139 -0.5673  0.9103  0.0789
 3859TIP3    H133068   0.062   4.325   0.134 -0.9623  0.8505  2.3356
 3859TIP3    H233069   0.121   4.437   0.051 -1.4898 -1.0563 -0.7582
 3860TIP3   OH233070   4.288   4.632  14.373 -0.3678 -0.1225  0.1298
 3860TIP3    H133071   4.263   4.713  14.329 -0.5677  0.5196  1.3869
 3860TIP3    H233072   4.279   4.651  14.466  1.2339 -1.0504  0.5151
 3861TIP3   OH233073   4.560   1.632   2.714 -0.4712 -0.5850  0.4033
 3861TIP3    H133074   4.595   1.694   2.778  3.6466  0.6541 -2.6528
 3861TIP3    H233075   4.504   1.685   2.657 -2.7125 -1.3340  1.7649
 3862TIP3   OH233076   3.164   4.441   3.885 -0.3651  0.2668 -0.2388
 3862TIP3    H133077   3.118   4.522   3.863  0.1616  0.0922 -2.2143
 3862TIP3    H233078   3.094   4.378   3.902 -0.7821  1.2667  2.1389
 3863TIP3   OH233079   1.363   1.695  16.409  0.0457 -0.4202 -0.1675
 3863TIP3    H133080   1.453   1.694  16.440 -0.2267 -2.8947  0.8314
 3863TIP3    H233081   1.364   1.642  16.329 -0.4699 -0.3439 -0.2289
 3864TIP3   OH233082   0.135   0.817  13.477 -0.1891 -0.4862 -0.1902
 3864TIP3    H133083   0.076   0.767  13.535  2.3895 -0.8719  2.3381
 3864TIP3    H233084   0.200   0.753  13.448  1.9405  0.8306  1.3809
 3865TIP3   OH233085   4.563   0.397   1.022 -0.0637  0.2712 -0.1047
 3865TIP3    H133086   4.583   0.314   0.978 -2.9956  0.1574 -1.4482
 3865TIP3    H233087   4.588   0.465   0.960 -2.4451  0.1580 -1.3036
 3866TIP3   OH233088   1.292   1.913  10.831  0.3702 -0.0158 -0.3045
 3866TIP3    H133089   1.231   1.838  10.828 -0.5630  0.7052  0.0030
 3866TIP3    H233090   1.241   1.986  10.796  0.9233  0.7003  0.3530
 3867TIP3   OH233091   4.147   2.707   0.714  0.2120  0.1702 -0.4243
 3867TIP3    H133092   4.198   2.788   0.712 -0.1964  0.4296 -0.4908
 3867TIP3    H233093   4.093   2.710   0.635 -0.1612  0.0703 -0.1795
 3868TIP3   OH233094   3.180   5.982   2.848  0.3078  0.2974 -0.0118
 3868TIP3    H133095   3.092   5.957   2.820 -0.1655  1.2318  0.5871
 3868TIP3    H233096   3.234   5.907   2.825 -0.5819 -0.1627 -0.6954
 3869TIP3   OH233097   1.617   5.202  14.475 -0.4694 -0.3226  0.0894
 3869TIP3    H133098   1.570   5.190  14.557  0.2158 -0.0733  0.5230
 3869TIP3    H233099   1.565   5.264  14.425 -0.5525  0.0171  0.6016
 3870TIP3   OH233100   6.161   6.800   2.030  0.6392 -0.0913 -0.4279
 3870TIP3    H133101   6.127   6.826   1.945  0.7886  1.7873  0.0397
 3870TIP3    H233102   6.181   6.883   2.074 -0.6591 -0.9456  1.9387
 3871TIP3   OH233103   6.582   4.451   0.588 -0.1531 -0.5436 -0.3450
 3871TIP3    H133104   6.521   4.385   0.620  1.1655 -1.5341  0.2099
 3871TIP3    H233105   6.533   4.534   0.593 -1.7686 -1.4139 -0.8604
 3872TIP3   OH233106   2.856   0.520   4.284  0.2005  0.7521  0.8346
 3872TIP3    H133107   2.768   0.508   4.318 -0.0645 -2.2095 -0.5687
 3872TIP3    H233108   2.844   0.557   4.197  0.1169 -1.5237 -0.1850
 3873TIP3   OH233109   0.143   1.657  16.953 -0.4354 -0.1230  0.1684
 3873TIP3    H133110   0.237   1.660  16.969 -0.4919  1.4759  0.4034
 3873TIP3    H233111   0.107   1.728  17.007 -1.8761 -1.1561  0.6461
 3874TIP3   OH233112   5.427   0.118  12.172  0.0232  0.5160 -0.2836
 3874TIP3    H133113   5.491   0.085  12.235 -0.2176  0.9549  0.1892
 3874TIP3    H233114   5.428   0.053  12.101 -0.0053 -0.1983  0.3595
 3875TIP3   OH233115   0.604   5.377   4.821 -0.2152  0.6801 -0.1521
 3875TIP3    H133116   0.554   5.441   4.870 -2.2204 -0.3382 -0.7574
 3875TIP3    H233117   0.629   5.423   4.740 -3.2278  0.2611 -1.4377
 3876TIP3   OH233118   3.969   5.274   4.202 -0.6803  0.1190 -0.6462
 3876TIP3    H133119   4.051   5.288   4.249 -0.5590  1.3810 -1.2028
 3876TIP3    H233120   3.995   5.236   4.118 -0.7138  0.0226 -0.6135
 3877TIP3   OH233121   2.179   1.754   5.446 -0.0457 -0.0091 -0.1543
 3877TIP3    H133122   2.119   1.771   5.374  0.4434  0.1478 -0.5254
 3877TIP3    H233123   2.125   1.706   5.511 -0.4043 -0.4189 -0.7421
 3878TIP3   OH233124   4.882   6.124  12.632  0.6293 -0.0405  0.3849
 3878TIP3    H133125   4.876   6.185  12.558  0.5746 -0.2404  0.2205
 3878TIP3    H233126   4.887   6.179  12.709  2.3995  0.2279  0.1290
 3879TIP3   OH233127   2.312   4.842   0.572 -0.3387  0.4207  0.4273
 3879TIP3    H133128   2.256   4.915   0.547  0.1878  0.3310 -1.1282
 3879TIP3    H233129   2.252   4.768   0.583 -0.6925  0.6865  0.2950
 3880TIP3   OH233130   2.155   0.299  11.101 -0.4625 -0.2468 -0.2382
 3880TIP3    H133131   2.156   0.379  11.049  0.3945  1.2266  1.8928
 3880TIP3    H233132   2.247   0.276  11.112 -0.6324 -0.6031  0.5047
 3881TIP3   OH233133   5.735   1.875   3.152  0.5227 -0.4004  0.2483
 3881TIP3    H133134   5.682   1.817   3.207  0.2902 -0.6388 -0.2154
 3881TIP3    H233135   5.795   1.917   3.213  0.2210 -0.6000  0.6962
 3882TIP3   OH233136   3.351   5.662  11.599  0.2042  0.1128 -0.1331
 3882TIP3    H133137   3.440   5.666  11.565  0.1165 -1.3482 -0.6076
 3882TIP3    H233138   3.295   5.674  11.522 -0.0583  1.9028  0.2793
 3883TIP3   OH233139   0.772   2.769   4.586 -0.1672  0.2179  0.0012
 3883TIP3    H133140   0.846   2.712   4.570 -0.5206 -0.3194  0.2526
 3883TIP3    H233141   0.784   2.842   4.525  1.5679  1.1197  1.3330
 3884TIP3   OH233142   1.373   5.204  14.713 -0.0160 -0.4425  0.6490
 3884TIP3    H133143   1.330   5.290  14.704  0.4272 -0.4191 -2.6960
 3884TIP3    H233144   1.311   5.143  14.672  1.9308 -0.7612 -2.0865
 3885TIP3   OH233145   2.986   4.906  10.651  0.0324  0.4674  0.3271
 3885TIP3    H133146   3.029   4.828  10.685 -0.4167 -0.5287 -1.3094
 3885TIP3    H233147   3.031   4.924  10.568  0.2477  2.0581  0.7587
 3886TIP3   OH233148   6.521   2.323   2.678  0.5723  0.1590 -0.3653
 3886TIP3    H133149   6.555   2.409   2.702  0.2568 -0.4738  2.8056
 3886TIP3    H233150   6.593   2.263   2.695  0.5874 -0.3192 -1.9583
 3887TIP3   OH233151   3.312   3.897   4.057  0.0931  0.3368  0.7754
 3887TIP3    H133152   3.298   3.851   3.974  2.0201 -3.9972  2.5181
 3887TIP3    H233153   3.402   3.929   4.052 -0.3575  1.6169  0.6026
 3888TIP3   OH233154   6.268   5.997  11.430  0.0016 -0.3591 -0.0450
 3888TIP3    H133155   6.275   5.928  11.495  2.9839 -0.0080  0.1569
 3888TIP3    H233156   6.244   5.952  11.349 -2.5569 -0.9499  0.9571
 3889TIP3   OH233157   1.925   5.369   1.304 -0.0861  0.1263 -0.1078
 3889TIP3    H133158   1.962   5.449   1.266 -0.7362  0.0266 -0.9870
 3889TIP3    H233159   1.995   5.304   1.294 -0.1331  0.1849 -0.8645
 3890TIP3   OH233160   1.245   4.485   4.698  0.5764 -0.1004  0.2617
 3890TIP3    H133161   1.175   4.543   4.728  1.2429  0.7286  0.2445
 3890TIP3    H233162   1.264   4.429   4.774  2.1121  1.8473  1.3989
 3891TIP3   OH233163   4.620   0.587  10.936  0.0959 -0.1703  0.6027
 3891TIP3    H133164   4.596   0.616  11.024  0.6952 -0.0289  0.7254
 3891TIP3    H233165   4.694   0.527  10.951  0.0178 -0.3644  0.2154
 3892TIP3   OH233166   3.811   1.215   0.408  0.4352 -0.0496 -0.3337
 3892TIP3    H133167   3.840   1.174   0.490  2.3770 -1.5056 -1.6455
 3892TIP3    H233168   3.831   1.308   0.420  2.3243 -0.4859  0.2505
 3893TIP3   OH233169   6.189   3.678   4.222 -0.5691  0.1081 -0.2297
 3893TIP3    H133170   6.154   3.618   4.288 -1.5822  0.7680 -0.1505
 3893TIP3    H233171   6.281   3.652   4.212 -0.9507 -1.3546 -0.0997
 3894TIP3   OH233172   6.360   4.870   5.868  0.2949  0.0917  0.0322
 3894TIP3    H133173   6.316   4.819   5.936  1.6265 -1.1407  0.0257
 3894TIP3    H233174   6.358   4.960   5.901  1.3378 -0.5253  1.9968
 3895TIP3   OH233175   0.317   4.927   1.896  1.1088  0.2554  0.1971
 3895TIP3    H133176   0.350   5.016   1.885  2.2090 -0.1059  0.3629
 3895TIP3    H233177   0.396   4.872   1.896  0.5306 -0.6185  1.0781
 3896TIP3   OH233178   1.499   0.365   3.014 -0.1856 -0.0214 -0.6753
 3896TIP3    H133179   1.411   0.402   3.006 -0.7465 -1.0124  0.5990
 3896TIP3    H233180   1.553   0.419   2.957 -1.4526  1.1593 -0.8011
 3897TIP3   OH233181   2.990   1.347   1.567 -0.1099 -0.0226 -0.3831
 3897TIP3    H133182   3.039   1.366   1.487  0.4475  0.7700  0.1261
 3897TIP3    H233183   3.045   1.381   1.638 -0.8663 -0.1624  0.2925
 3898TIP3   OH233184   1.068   4.586   1.361 -0.5402 -0.2774  0.2098
 3898TIP3    H133185   1.093   4.571   1.452  0.4117 -0.1771 -0.0238
 3898TIP3    H233186   1.013   4.511   1.338  0.6594 -1.2261  0.3472
 3899TIP3   OH233187   6.420   4.364   5.273  0.0170 -0.5222 -0.0585
 3899TIP3    H133188   6.432   4.437   5.212 -0.1293 -0.8035 -0.4283
 3899TIP3    H233189   6.350   4.392   5.332 -1.2109 -1.0124 -1.2275
 3900TIP3   OH233190   3.071   2.378   2.767  0.5065  0.3030  0.0119
 3900TIP3    H133191   3.156   2.334   2.768 -0.3093 -1.4551 -1.1374
 3900TIP3    H233192   3.043   2.374   2.675 -0.6924  1.0957  0.3133
 3901TIP3   OH233193   6.267   3.694   3.026 -0.9200  0.5684  0.5308
 3901TIP3    H133194   6.220   3.750   2.965  0.1774  1.9176  0.8902
 3901TIP3    H233195   6.202   3.629   3.054 -2.3019  1.8257  0.3177
 3902TIP3   OH233196   3.269   3.224   2.513  0.0698 -0.3742 -0.2063
 3902TIP3    H133197   3.211   3.165   2.561  1.1987 -1.4981 -0.1670
 3902TIP3    H233198   3.227   3.234   2.428 -0.5032 -0.6736  0.0369
 3903TIP3   OH233199   5.926   6.586   4.256 -0.3549  0.0057 -0.3301
 3903TIP3    H133200   5.911   6.663   4.310  0.6810  0.4318 -0.6406
 3903TIP3    H233201   5.843   6.537   4.261 -0.7327  0.7134  0.5280
 3904TIP3   OH233202   6.613   6.697  10.670 -0.2319  0.4362 -0.2621
 3904TIP3    H133203   6.618   6.709  10.575  0.6848  0.8851 -0.1683
 3904TIP3    H233204   6.548   6.628  10.682 -0.3373  0.3541 -1.2205
 3905TIP3   OH233205   1.739   4.673   5.572  0.1072 -0.0162  0.1714
 3905TIP3    H133206   1.656   4.717   5.591 -0.3893 -0.4825 -0.8903
 3905TIP3    H233207   1.722   4.581   5.589  0.1867 -0.2081 -0.7677
 3906TIP3   OH233208   5.492   0.274   2.208  0.1164 -0.3643 -0.1128
 3906TIP3    H133209   5.540   0.248   2.287 -0.7989  0.8945  0.9019
 3906TIP3    H233210   5.423   0.207   2.200 -0.8019  0.3894  1.1412
 3907TIP3   OH233211   5.616   3.655   3.042  0.0659 -0.1027 -0.1696
 3907TIP3    H133212   5.699   3.674   3.086 -0.6728 -2.4310  2.4913
 3907TIP3    H233213   5.578   3.741   3.025  2.2229  0.9772  0.1053
 3908TIP3   OH233214   6.556   5.755  13.277  0.4393 -0.2956 -0.4780
 3908TIP3    H133215   6.640   5.711  13.260  0.6689 -0.7191  1.4878
 3908TIP3    H233216   6.567   5.794  13.364 -0.9290  0.8555 -0.7899
 3909TIP3   OH233217   6.264   1.056  13.956 -0.3595  0.2161 -0.1507
 3909TIP3    H133218   6.294   1.105  13.880  1.1398 -1.1233 -0.4839
 3909TIP3    H233219   6.343   1.038  14.006 -1.3279  1.1856  1.8540
 3910TIP3   OH233220   0.487   1.045  14.082  0.0696  0.2669 -0.7444
 3910TIP3    H133221   0.561   1.022  14.138 -0.8628  1.6038  1.1612
 3910TIP3    H233222   0.487   1.141  14.080 -2.6825  0.4244  0.9747
 3911TIP3   OH233223   5.881   4.231  13.906 -0.3684  0.0156  0.7222
 3911TIP3    H133224   5.787   4.240  13.918 -0.6692  0.9013 -1.7513
 3911TIP3    H233225   5.912   4.320  13.890  0.2030 -0.6345 -2.3403
 3912TIP3   OH233226   0.408   2.656  12.695  0.2932 -1.0202 -0.2661
 3912TIP3    H133227   0.390   2.574  12.648  1.0866 -1.4914  0.2136
 3912TIP3    H233228   0.429   2.719  12.626  0.1988 -1.3632 -0.6166
 3913TIP3   OH233229   0.949   2.040   4.807  0.0544 -0.3534 -0.3258
 3913TIP3    H133230   1.009   2.108   4.835 -0.8067 -0.5228  2.1330
 3913TIP3    H233231   0.867   2.086   4.787 -0.6659 -0.6334  1.7680
 3914TIP3   OH233232   4.785   6.313  15.935  0.1328  0.0673 -0.2569
 3914TIP3    H133233   4.710   6.350  15.889  1.3987  1.3296 -1.4236
 3914TIP3    H233234   4.835   6.268  15.868  0.9527  0.1575  0.2775
 3915TIP3   OH233235   4.577   1.670  11.677 -0.2833  0.1113 -0.1744
 3915TIP3    H133236   4.632   1.688  11.753  1.4210 -0.2168 -1.2593
 3915TIP3    H233237   4.487   1.675  11.710  0.3932  0.0297  1.8169
 3916TIP3   OH233238   3.807   6.424  12.619  0.0184 -0.2127 -0.1101
 3916TIP3    H133239   3.759   6.462  12.692  2.1047  0.4016  1.0127
 3916TIP3    H233240   3.787   6.481  12.545 -1.4823 -0.3724  0.1319
 3917TIP3   OH233241   6.620   2.644  14.031  0.2937 -0.1390 -0.4115
 3917TIP3    H133242   6.530   2.645  13.997  0.5045 -0.7439 -0.9924
 3917TIP3    H233243   6.640   2.552  14.043  0.6257  0.0209  0.3109
 3918TIP3   OH233244   4.223   3.279   6.015 -0.6048  0.2035 -0.2583
 3918TIP3    H133245   4.202   3.370   5.997 -0.9594 -0.0449 -1.1132
 3918TIP3    H233246   4.247   3.279   6.108 -0.2336  1.2275 -0.3365
 3919TIP3   OH233247   3.659   1.244  15.080 -0.4655  0.6701  0.0392
 3919TIP3    H133248   3.717   1.193  15.137 -0.8443  0.3401  0.1351
 3919TIP3    H233249   3.690   1.225  14.992 -0.5021  0.3956  0.0842
 3920TIP3   OH233250   2.857   6.351   0.465  0.0347  0.2520 -0.2311
 3920TIP3    H133251   2.816   6.352   0.378 -2.6295 -1.2263  0.8833
 3920TIP3    H233252   2.811   6.419   0.514  1.2554  0.8124  0.1735
 3921TIP3   OH233253   3.695   2.260   6.327  0.0578  0.2109 -0.1391
 3921TIP3    H133254   3.762   2.203   6.366  0.4872 -0.0676 -1.2340
 3921TIP3    H233255   3.703   2.342   6.374  0.8683  0.0255  0.0623
 3922TIP3   OH233256   1.523   6.307   0.259 -0.3261  0.0221 -0.7774
 3922TIP3    H133257   1.616   6.326   0.248 -0.1684 -0.8200 -0.9991
 3922TIP3    H233258   1.479   6.385   0.228  0.3329  1.1081  0.8862
 3923TIP3   OH233259   0.462   1.396   5.139  0.0914 -0.0359 -0.1221
 3923TIP3    H133260   0.426   1.381   5.052 -0.7047 -0.9178  0.3443
 3923TIP3    H233261   0.417   1.333   5.195  1.1876 -0.0466  0.7829
 3924TIP3   OH233262   2.004   0.027   2.973  0.3735  0.3327 -0.7398
 3924TIP3    H133263   1.937   0.069   2.920 -0.7212  1.3267  1.3068
 3924TIP3    H233264   1.971  -0.062   2.987  0.5512  0.1432 -1.4926
 3925TIP3   OH233265   3.131   6.754  15.978 -0.5908  0.2348 -0.1114
 3925TIP3    H133266   3.224   6.736  15.994 -0.7447 -0.9646 -0.4679
 3925TIP3    H233267   3.088   6.733  16.061 -1.0284 -3.2879 -1.0339
 3926TIP3   OH233268   2.923   0.579  14.500  0.3775 -0.6713  0.4731
 3926TIP3    H133269   3.007   0.625  14.501 -0.5725  1.2178 -0.4566
 3926TIP3    H233270   2.857   0.649  14.505 -1.1574 -2.0700  0.9833
 3927TIP3   OH233271   3.858   2.853  14.076 -0.5578 -1.0152  0.4642
 3927TIP3    H133272   3.827   2.808  14.154 -0.6415 -0.0477  1.0026
 3927TIP3    H233273   3.847   2.789  14.005 -3.3166 -0.9183  0.7097
 3928TIP3   OH233274   4.917   4.105   3.019  0.0563  0.0223  0.0514
 3928TIP3    H133275   4.850   4.041   3.044  0.7360 -0.7033  0.0276
 3928TIP3    H233276   4.974   4.112   3.095 -0.2333  0.9180  0.2070
 3929TIP3   OH233277   2.955   3.025  11.484  0.7684 -0.0318 -0.2983
 3929TIP3    H133278   2.876   2.986  11.521  0.7366  0.0679 -0.2613
 3929TIP3    H233279   2.923   3.084  11.416  0.8929 -1.4121 -1.6178
 3930TIP3   OH233280   4.400   4.806  15.825  0.7461  0.0434  0.4292
 3930TIP3    H133281   4.413   4.887  15.776  1.0039  0.1984  0.7586
 3930TIP3    H233282   4.430   4.737  15.765 -0.1937  0.1157 -0.1533
 3931TIP3   OH233283   5.677   1.511   4.327  0.1739  0.3749 -0.6512
 3931TIP3    H133284   5.585   1.533   4.338  0.4052  0.9960  0.1977
 3931TIP3    H233285   5.704   1.557   4.247 -0.2181  0.3150 -0.8150
 3932TIP3   OH233286   2.967   3.940   0.670 -0.1593 -0.0093 -0.6691
 3932TIP3    H133287   2.896   3.984   0.717  0.7816  0.7009  0.1348
 3932TIP3    H233288   2.948   3.847   0.679 -0.1194  0.1108  0.9872
 3933TIP3   OH233289   4.422   3.449   4.585 -0.1104  0.0397  0.5303
 3933TIP3    H133290   4.418   3.544   4.597 -1.6895  0.0712 -0.1104
 3933TIP3    H233291   4.402   3.436   4.492  0.7369 -0.8993  0.4617
 3934TIP3   OH233292   4.823   3.466  15.067  0.4250  0.2825 -0.3457
 3934TIP3    H133293   4.805   3.372  15.067 -0.0427  0.3396  1.3443
 3934TIP3    H233294   4.913   3.474  15.099  0.4001  0.4208 -0.3081
 3935TIP3   OH233295   4.387   3.075   6.311  0.3790 -0.3355  0.4038
 3935TIP3    H133296   4.303   3.119   6.322 -0.5686 -2.1878  0.9715
 3935TIP3    H233297   4.440   3.108   6.384  0.3002  1.1260 -0.1743
 3936TIP3   OH233298   6.206   2.173  16.140  0.2866 -0.3347  0.4029
 3936TIP3    H133299   6.282   2.213  16.098  0.4188 -0.7802  0.2061
 3936TIP3    H233300   6.133   2.191  16.080  0.5175 -1.1626 -0.1455
 3937TIP3   OH233301   1.557   6.602  12.860 -0.4940  0.4767  0.2266
 3937TIP3    H133302   1.561   6.530  12.924 -1.0753 -0.3706 -0.6640
 3937TIP3    H233303   1.647   6.633  12.854 -0.4068  0.4947  1.3593
 3938TIP3   OH233304   1.749   5.633  15.742  0.1434  0.0637  0.1345
 3938TIP3    H133305   1.723   5.712  15.695  1.2919 -0.4391 -1.4318
 3938TIP3    H233306   1.824   5.659  15.794  1.4981 -0.2779 -1.5563
 3939TIP3   OH233307   6.449   5.077  13.894  0.0879  0.4957  0.1289
 3939TIP3    H133308   6.463   5.085  13.800  1.9528 -0.3583  0.2901
 3939TIP3    H233309   6.456   4.984  13.912 -1.6656  0.4834  0.9535
 3940TIP3   OH233310   4.715   4.869  11.403 -0.4341  0.3391 -0.1531
 3940TIP3    H133311   4.754   4.851  11.489  2.6215  1.2124 -1.2539
 3940TIP3    H233312   4.652   4.939  11.420 -0.6620 -0.2259  1.5262
 3941TIP3   OH233313   4.322   3.807  12.803 -0.5010 -0.3771  0.4942
 3941TIP3    H133314   4.369   3.724  12.814 -0.7095 -0.4605  0.7791
 3941TIP3    H233315   4.264   3.811  12.879 -0.8411 -0.2033  0.2262
 3942TIP3   OH233316   0.604   0.949  13.269 -0.2696 -0.1962 -0.5363
 3942TIP3    H133317   0.537   1.011  13.299  0.7065  0.9369 -0.6132
 3942TIP3    H233318   0.641   0.913  13.349  1.5008  1.9195 -0.3006
 3943TIP3   OH233319   5.895   1.107   0.419  0.0188  0.2579  0.6882
 3943TIP3    H133320   5.897   1.037   0.353 -1.0786  1.1119 -0.2989
 3943TIP3    H233321   5.986   1.116   0.447  0.2245 -1.3672  0.6339
 3944TIP3   OH233322   6.656   0.443   2.616 -0.5250 -0.1811 -0.5112
 3944TIP3    H133323   6.621   0.446   2.705  0.2708  2.2176 -0.2092
 3944TIP3    H233324   6.580   0.458   2.559 -1.1065 -2.1223 -0.3211
 3945TIP3   OH233325   0.400   0.128   3.621  0.0825 -0.0979 -0.1205
 3945TIP3    H133326   0.402   0.202   3.681 -1.5770  0.2443 -0.4345
 3945TIP3    H233327   0.480   0.080   3.639  0.1577  0.6098  1.5713
 3946TIP3   OH233328   3.366   3.364   2.998  0.1682 -0.5886  0.0178
 3946TIP3    H133329   3.434   3.400   2.941  1.3982 -2.1172  0.4457
 3946TIP3    H233330   3.301   3.433   3.004  1.6062  0.8761 -0.5508
 3947TIP3   OH233331   4.320   0.782   6.394  0.0916 -0.5323 -0.0512
 3947TIP3    H133332   4.405   0.750   6.422 -0.4686 -0.2922  2.0473
 3947TIP3    H233333   4.262   0.767   6.469 -1.3804  0.6599 -0.8871
 3948TIP3   OH233334   4.990   0.640  14.701 -0.0888 -0.5171  0.2087
 3948TIP3    H133335   4.991   0.665  14.609 -2.5376 -0.2336  0.1859
 3948TIP3    H233336   5.078   0.607  14.718  0.1730 -1.4393 -2.4530
 3949TIP3   OH233337   3.014   5.669   2.067 -0.4548  0.7810  0.2580
 3949TIP3    H133338   3.014   5.671   1.971 -0.7495  0.5508  0.2516
 3949TIP3    H233339   2.957   5.596   2.089  0.3469  0.2368  0.5979
 3950TIP3   OH233340   0.932   2.394  10.974  0.4062 -0.3290 -0.0083
 3950TIP3    H133341   0.967   2.325  10.918 -0.1165 -1.0218  0.4999
 3950TIP3    H233342   0.847   2.360  11.004  1.3971 -0.7518  2.5880
 3951TIP3   OH233343   4.507   2.743  12.875 -0.0112 -0.1079 -0.1700
 3951TIP3    H133344   4.526   2.653  12.846 -0.3677 -0.9533  2.0813
 3951TIP3    H233345   4.591   2.774  12.911 -0.6083 -0.6905  1.8343
 3952TIP3   OH233346   4.471   0.908  13.190  0.2949 -0.4371 -0.5191
 3952TIP3    H133347   4.398   0.851  13.213 -0.7002  0.3709 -1.5856
 3952TIP3    H233348   4.431   0.980  13.141  1.6841  0.5191 -0.3073
 3953TIP3   OH233349   3.599   3.521   0.904 -0.8644 -0.4545  1.2755
 3953TIP3    H133350   3.519   3.493   0.949 -1.5405 -1.4085 -0.4378
 3953TIP3    H233351   3.670   3.488   0.959 -1.6554 -1.9558  1.4320
 3954TIP3   OH233352   4.077   1.566   3.586 -0.1591  0.0657 -0.3138
 3954TIP3    H133353   4.000   1.510   3.575 -0.2461  0.0945  0.1450
 3954TIP3    H233354   4.047   1.653   3.560 -0.4075  0.1627  0.2794
 3955TIP3   OH233355   3.567   4.681   5.593  0.6832  0.1953  0.5250
 3955TIP3    H133356   3.476   4.663   5.570 -0.0493  1.7602  1.9718
 3955TIP3    H233357   3.590   4.611   5.654  1.0363 -1.1358 -1.0574
 3956TIP3   OH233358   3.040   5.229  10.691  0.5234  0.4063  0.0042
 3956TIP3    H133359   3.123   5.193  10.661  0.5340  0.6143 -0.2169
 3956TIP3    H233360   3.065   5.309  10.739  0.4726  0.3189  0.1766
 3957TIP3   OH233361   0.818   3.881   4.914 -0.0887 -0.1049  0.0816
 3957TIP3    H133362   0.874   3.835   4.852  0.2519 -0.6579  0.7748
 3957TIP3    H233363   0.853   3.970   4.918  1.2500 -0.6530  1.0883
 3958TIP3   OH233364   3.011   3.155  15.324  0.0986  0.3487 -0.0068
 3958TIP3    H133365   3.045   3.237  15.289 -0.6886  0.6271 -0.1532
 3958TIP3    H233366   2.919   3.174  15.342  0.3836  0.1019  1.8837
 3959TIP3   OH233367   0.785   0.009  14.329 -0.4477  0.4189  0.0307
 3959TIP3    H133368   0.813  -0.034  14.409 -0.6062  0.0516 -0.1059
 3959TIP3    H233369   0.865   0.041  14.289 -0.3145  0.1588  0.0859
 3960TIP3   OH233370   0.607   2.034   2.753  0.1020  0.3018 -0.0377
 3960TIP3    H133371   0.516   2.062   2.741 -0.1487 -0.7303 -0.7017
 3960TIP3    H233372   0.657   2.116   2.759 -0.7378  0.8845 -0.7609
 3961TIP3   OH233373   6.169   3.517   0.543 -0.2714  0.0777  0.3924
 3961TIP3    H133374   6.202   3.528   0.632 -1.0117  0.0059  0.6768
 3961TIP3    H233375   6.237   3.465   0.499 -1.0404 -2.0854  1.6098
 3962TIP3   OH233376   3.255   1.905  10.504 -0.2990  0.1817  0.0046
 3962TIP3    H133377   3.220   1.828  10.461  1.1187 -0.0361 -0.8173
 3962TIP3    H233378   3.203   1.914  10.584  0.0532 -2.1117  0.5510
 3963TIP3   OH233379   3.632   6.131  12.011  0.1485 -0.2731 -0.8354
 3963TIP3    H133380   3.576   6.167  11.942 -0.7130  1.1233  0.5200
 3963TIP3    H233381   3.712   6.103  11.965 -0.1053  1.2333 -2.3142
 3964TIP3   OH233382   4.715   6.691   4.350  0.2691  0.3197  0.0149
 3964TIP3    H133383   4.767   6.612   4.336  1.1809  0.8255  0.4380
 3964TIP3    H233384   4.779   6.761   4.359 -0.5441  1.2496 -1.0910
 3965TIP3   OH233385   4.787   2.055  14.609 -0.3133 -0.4620 -0.4909
 3965TIP3    H133386   4.755   2.100  14.531  1.0386 -1.8195 -1.9023
 3965TIP3    H233387   4.836   1.979  14.575 -0.5154 -1.6610  1.7012
 3966TIP3   OH233388   5.552   2.762   3.862 -0.3613  0.5524 -0.1474
 3966TIP3    H133389   5.567   2.668   3.851 -1.4753  0.2144  0.9956
 3966TIP3    H233390   5.586   2.801   3.782 -2.7652 -1.1273 -2.1641
 3967TIP3   OH233391   3.948   5.368   2.996 -0.0366 -0.3023 -0.0297
 3967TIP3    H133392   4.011   5.346   3.065  0.5890 -1.5052 -0.9306
 3967TIP3    H233393   3.915   5.283   2.967 -1.8155  0.2952  0.1669
 3968TIP3   OH233394   0.234   3.007  12.118 -0.2511 -0.1083  0.1524
 3968TIP3    H133395   0.319   2.997  12.074  1.4011  0.7339  2.9440
 3968TIP3    H233396   0.255   3.014  12.211 -3.3534  0.8238  0.9092
 3969TIP3   OH233397   3.508   0.345  12.898 -0.2027  0.1685 -0.2428
 3969TIP3    H133398   3.591   0.370  12.939  0.0408  2.8798 -2.1262
 3969TIP3    H233399   3.534   0.290  12.824 -0.2327 -0.2927  0.0841
 3970TIP3   OH233400   0.540   0.619  13.239 -0.0461  0.5528  0.0100
 3970TIP3    H133401   0.539   0.695  13.182  0.5147  0.1415 -0.5568
 3970TIP3    H233402   0.633   0.602  13.256 -0.2036  0.9733  1.4697
 3971TIP3   OH233403   5.359   0.929  12.610  0.7690 -0.4207  0.5442
 3971TIP3    H133404   5.412   0.947  12.687  0.8215  0.7348  0.2462
 3971TIP3    H233405   5.288   0.874  12.642  0.2539  0.8290  1.6190
 3972TIP3   OH233406   3.391   5.109   0.794 -0.0279 -0.2201  0.0156
 3972TIP3    H133407   3.449   5.128   0.721  0.7767 -2.2644  0.0671
 3972TIP3    H233408   3.448   5.105   0.870 -0.6039  0.1937  0.4763
 3973TIP3   OH233409   4.272   3.732  10.569  0.6092 -0.7291 -0.0130
 3973TIP3    H133410   4.267   3.715  10.663  0.2935  0.0257  0.1150
 3973TIP3    H233411   4.188   3.774  10.548 -0.4722 -3.2920 -1.1500
 3974TIP3   OH233412   5.321   5.603   1.089  0.4090 -0.4084  0.0781
 3974TIP3    H133413   5.228   5.590   1.073  0.2900 -2.6924  2.0625
 3974TIP3    H233414   5.363   5.594   1.004 -1.0989  0.0177 -0.7342
 3975TIP3   OH233415   2.653   3.529   4.417 -0.1623  0.3977 -0.1230
 3975TIP3    H133416   2.745   3.553   4.433  0.1565 -0.9782  0.2409
 3975TIP3    H233417   2.616   3.518   4.504 -0.5520  0.4870 -0.2768
 3976TIP3   OH233418   1.499   2.241   1.388  0.4144 -0.2779  0.0015
 3976TIP3    H133419   1.412   2.280   1.391  0.7445  0.4806  0.0653
 3976TIP3    H233420   1.557   2.314   1.366  0.9760 -0.8665 -0.5369
 3977TIP3   OH233421   2.410   4.235  13.813 -0.8384  0.0055  0.6006
 3977TIP3    H133422   2.405   4.325  13.845 -0.6731 -0.0665  0.8314
 3977TIP3    H233423   2.329   4.222  13.764  0.0210  0.9393 -1.1579
 3978TIP3   OH233424   3.075   6.612  11.633  0.2434 -0.0352 -0.1001
 3978TIP3    H133425   3.051   6.524  11.662  2.1578 -1.1139 -1.4866
 3978TIP3    H233426   3.157   6.631  11.679 -0.6049  1.4752  0.8886
 3979TIP3   OH233427   1.011   6.704  12.081  0.8574 -0.0258 -0.0109
 3979TIP3    H133428   0.987   6.648  12.007  3.4487 -0.5874 -0.4973
 3979TIP3    H233429   1.070   6.770  12.045 -0.5411  1.8531  0.9530
 3980TIP3   OH233430   5.410   1.219  16.135 -0.2773  0.6891  0.1158
 3980TIP3    H133431   5.426   1.305  16.174  0.2746  1.7386 -2.2701
 3980TIP3    H233432   5.459   1.158  16.191 -0.9714  1.8179  2.0577
 3981TIP3   OH233433   6.265   1.182   1.661 -0.1282  0.3961  0.3979
 3981TIP3    H133434   6.359   1.191   1.681  0.0413  0.6645 -0.4718
 3981TIP3    H233435   6.234   1.272   1.650 -0.3364  0.2749  0.0075
 3982TIP3   OH233436   2.426   5.192   0.112  0.1874 -0.7079 -0.2042
 3982TIP3    H133437   2.407   5.156   0.199 -0.3690  0.6414  0.2623
 3982TIP3    H233438   2.518   5.171   0.097  1.0029  1.0501  1.7777
 3983TIP3   OH233439   3.944   5.707  13.387  0.5945  0.1530 -0.2423
 3983TIP3    H133440   3.977   5.780  13.334  0.8311  0.4818  0.3466
 3983TIP3    H233441   3.871   5.672  13.337  1.1442  0.1194 -1.0364
 3984TIP3   OH233442   2.841   1.431   5.451 -0.1202  0.3135 -0.0610
 3984TIP3    H133443   2.802   1.473   5.527 -1.7524 -0.3383 -0.4859
 3984TIP3    H233444   2.926   1.475   5.439 -0.8228  1.9679  0.7607
 3985TIP3   OH233445   4.484   2.579  15.334 -0.8026 -0.2304 -0.2365
 3985TIP3    H133446   4.571   2.539  15.329 -0.3446  0.7655 -0.3851
 3985TIP3    H233447   4.463   2.579  15.427  0.7714  2.4238  0.2145
 3986TIP3   OH233448   3.345   1.624   4.169 -0.0435 -0.2567  0.8169
 3986TIP3    H133449   3.311   1.569   4.099  0.4167  1.0796 -0.5190
 3986TIP3    H233450   3.430   1.586   4.190 -0.5664 -1.1851  1.2868
 3987TIP3   OH233451   3.591   6.699  11.823 -0.1992  0.0033 -0.1295
 3987TIP3    H133452   3.548   6.715  11.739 -1.3142 -2.5025 -0.1323
 3987TIP3    H233453   3.638   6.617  11.811  0.9086  0.3909  1.2596
 3988TIP3   OH233454   3.570   0.768  11.855 -0.5167 -0.8947  0.0440
 3988TIP3    H133455   3.592   0.728  11.771 -0.9439 -0.3557 -0.3301
 3988TIP3    H233456   3.503   0.832  11.834  1.5931  1.5525  0.2600
 3989TIP3   OH233457   1.693   5.543  14.608  0.0046 -0.2287  0.4683
 3989TIP3    H133458   1.635   5.618  14.597  0.1632 -0.2707 -0.7917
 3989TIP3    H233459   1.635   5.467  14.601  0.3629 -0.3245 -2.3986
 3990TIP3   OH233460   3.409   5.275   0.242 -0.1426 -0.0636  0.0383
 3990TIP3    H133461   3.496   5.249   0.213 -0.6816 -0.2093 -1.5520
 3990TIP3    H233462   3.372   5.196   0.282 -0.0361 -0.3989 -0.5166
 3991TIP3   OH233463   3.574   5.886   5.149  0.5639 -0.2146  0.1782
 3991TIP3    H133464   3.568   5.903   5.055 -0.5682  3.4834  0.7749
 3991TIP3    H233465   3.498   5.830   5.168  1.5347 -2.1325 -1.1972
 3992TIP3   OH233466   3.797   0.125  13.916 -0.9014 -0.0269  0.7030
 3992TIP3    H133467   3.864   0.151  13.979 -1.5508 -2.3527  2.4920
 3992TIP3    H233468   3.782   0.204  13.863  0.2920  1.7807  2.8760
 3993TIP3   OH233469   4.562   5.847  11.525  0.3393  0.1263 -0.2342
 3993TIP3    H133470   4.613   5.827  11.446 -0.6297 -1.6411 -0.4574
 3993TIP3    H233471   4.587   5.780  11.588 -1.1255 -0.3334 -0.0980
 3994TIP3   OH233472   0.750   2.177   2.349  0.9228 -0.1554 -0.0239
 3994TIP3    H133473   0.692   2.225   2.408  0.5998 -0.6945  0.1032
 3994TIP3    H233474   0.736   2.085   2.371  1.1692 -0.3348 -0.6066
 3995TIP3   OH233475   2.655   2.220  14.984 -0.4678  0.6170  0.7685
 3995TIP3    H133476   2.724   2.249  14.924 -0.8319  0.1644  0.1091
 3995TIP3    H233477   2.701   2.176  15.055 -0.0722  0.3107  0.3286
 3996TIP3   OH233478   0.859   2.758  13.417 -0.2550  0.2796 -0.2174
 3996TIP3    H133479   0.879   2.680  13.365  1.0833 -0.0822  0.8049
 3996TIP3    H233480   0.795   2.728  13.481 -1.7671  0.6842 -1.4532
 3997TIP3   OH233481   6.155   2.212   5.535  0.1617 -0.5726  0.3007
 3997TIP3    H133482   6.132   2.190   5.446 -0.1207  2.5899 -0.5345
 3997TIP3    H233483   6.209   2.291   5.527 -0.2579  0.0841  2.9332
 3998TIP3   OH233484   5.943   3.861   1.819 -0.2414 -0.1661  0.0976
 3998TIP3    H133485   5.967   3.930   1.881 -1.0445 -0.2151  0.4671
 3998TIP3    H233486   5.932   3.783   1.873 -0.1755 -0.3903 -0.2122
 3999TIP3   OH233487   1.481   5.632   0.856 -0.0217 -0.1197  0.3730
 3999TIP3    H133488   1.412   5.581   0.813 -2.9667  1.7586  2.4704
 3999TIP3    H233489   1.505   5.581   0.933 -0.6918  0.1519  0.7790
 4000TIP3   OH233490   5.623   1.767   4.612 -0.2284 -0.9497 -0.1231
 4000TIP3    H133491   5.698   1.774   4.671 -0.4280  0.3548 -0.0023
 4000TIP3    H233492   5.649   1.699   4.550  1.1457 -0.3944 -0.1993
 4001TIP3   OH233493   6.442   2.657  17.091 -0.0159  0.2501 -0.1622
 4001TIP3    H133494   6.468   2.591  17.156 -1.4105 -0.6282 -0.4600
 4001TIP3    H233495   6.416   2.733  17.143  0.5317  0.1761  0.2288
 4002TIP3   OH233496   3.342   5.241  12.023 -0.9102  0.1035 -0.0220
 4002TIP3    H133497   3.293   5.257  12.103 -0.0715  1.8011  0.2055
 4002TIP3    H233498   3.280   5.258  11.952 -2.0021 -2.5495  0.1912
 4003TIP3   OH233499   4.241   6.427   4.757 -0.1756  0.5894 -0.0212
 4003TIP3    H133500   4.217   6.507   4.710 -2.7920 -0.0069  0.1306
 4003TIP3    H233501   4.336   6.424   4.752 -0.1472  2.3630 -2.2648
 4004TIP3   OH233502   3.793   3.736  13.185 -0.3628  0.0346  0.2925
 4004TIP3    H133503   3.881   3.707  13.211  0.3944  0.5122 -1.5385
 4004TIP3    H233504   3.734   3.692  13.246  1.0837 -1.1311  0.9239
 4005TIP3   OH233505   2.334   0.016  13.612 -0.2234 -0.0678 -0.3437
 4005TIP3    H133506   2.311  -0.014  13.700  0.0486 -2.9947 -1.1549
 4005TIP3    H233507   2.283   0.096  13.599 -0.4464  0.3085  2.3471
 4006TIP3   OH233508   4.461   1.882   3.948 -0.1132 -0.0660  0.3108
 4006TIP3    H133509   4.433   1.797   3.981  0.4767  0.5052  2.4012
 4006TIP3    H233510   4.412   1.945   4.000  0.9369  0.8894  0.1766
 4007TIP3   OH233511   2.240   5.240  15.106  0.0157 -0.1957  0.0888
 4007TIP3    H133512   2.188   5.318  15.122  1.2708  0.5099  0.8812
 4007TIP3    H233513   2.271   5.250  15.016 -3.0009 -1.7573 -1.2867
 4008TIP3   OH233514   4.391   6.084   5.536  0.1215 -0.3396 -0.0564
 4008TIP3    H133515   4.409   6.089   5.442 -0.5953  0.2302 -0.1777
 4008TIP3    H233516   4.329   6.012   5.544  0.7728 -0.8877  0.0807
 4009TIP3   OH233517   2.037   0.728  13.008 -0.3702  0.0105 -0.4511
 4009TIP3    H133518   1.974   0.789  12.972  0.5778  1.4759  0.2814
 4009TIP3    H233519   1.988   0.645  13.016 -2.2991  1.1464  0.3657
 4010TIP3   OH233520   1.172   5.868  12.768  0.3274 -0.2442  0.2226
 4010TIP3    H133521   1.089   5.916  12.762  0.5360  0.0661 -0.1982
 4010TIP3    H233522   1.171   5.809  12.693  1.3592  1.1542 -0.9349
 4011TIP3   OH233523   1.814   0.855  15.842  0.1196  0.5287 -0.8279
 4011TIP3    H133524   1.879   0.877  15.775  0.6991 -0.0894 -0.4720
 4011TIP3    H233525   1.856   0.789  15.896 -0.2266  1.2389  0.3492
 4012TIP3   OH233526   3.546   5.547  13.726 -0.2677  0.0879 -0.0937
 4012TIP3    H133527   3.494   5.560  13.647  0.7794  0.1042 -0.7976
 4012TIP3    H233528   3.630   5.512  13.694 -0.1815 -0.8604  1.0847
 4013TIP3   OH233529   2.570   2.851   3.242  0.0454 -0.1201  0.0730
 4013TIP3    H133530   2.579   2.824   3.333  0.4347 -1.4741 -0.3262
 4013TIP3    H233531   2.600   2.942   3.240 -1.1177  0.3275  1.4819
 4014TIP3   OH233532   0.897   6.031   5.010 -0.0810  0.1719  0.0777
 4014TIP3    H133533   0.842   6.107   4.995  0.0733  0.2488 -0.0863
 4014TIP3    H233534   0.844   5.957   4.980  0.8095  0.4388 -2.3309
 4015TIP3   OH233535   3.119   1.510  11.260  0.0181  0.4310 -0.1690
 4015TIP3    H133536   3.163   1.531  11.178 -0.6820 -1.6379 -1.1632
 4015TIP3    H233537   3.181   1.453  11.306 -1.3725 -2.3955 -1.5222
 4016TIP3   OH233538   2.573   3.720  11.174 -0.1972  0.4117 -0.3594
 4016TIP3    H133539   2.631   3.711  11.249  0.6373  0.4742 -0.9721
 4016TIP3    H233540   2.615   3.787  11.119 -0.5855  0.1050 -1.0483
 4017TIP3   OH233541   1.511   3.322   2.067  0.1372 -0.2411  0.6476
 4017TIP3    H133542   1.569   3.386   2.108 -0.2135 -1.3990  3.1794
 4017TIP3    H233543   1.481   3.267   2.140 -1.0356 -2.1285 -1.1448
 4018TIP3   OH233544   2.902   2.816  15.977 -0.9893 -0.9273 -0.0614
 4018TIP3    H133545   2.985   2.862  15.985 -1.8507  0.4536  1.6516
 4018TIP3    H233546   2.866   2.845  15.893 -0.6712  0.0760  0.1423
 4019TIP3   OH233547   3.821   4.174  11.885 -0.1086 -0.0185 -1.1657
 4019TIP3    H133548   3.768   4.141  11.813 -1.7058  1.3742 -0.7075
 4019TIP3    H233549   3.766   4.241  11.927  1.5544  0.6480  0.0976
 4020TIP3   OH233550   1.142   2.887  14.457 -0.3635 -0.2188 -0.0798
 4020TIP3    H133551   1.080   2.922  14.394 -0.3238  1.2518  0.6522
 4020TIP3    H233552   1.222   2.938  14.443 -0.2410 -0.1095  0.9055
 4021TIP3   OH233553   1.067   2.293   2.649  0.0327 -0.0259 -0.2505
 4021TIP3    H133554   1.004   2.222   2.639  0.1946 -0.1352 -0.5084
 4021TIP3    H233555   1.086   2.320   2.559 -0.8523  1.0714 -0.1363
 4022TIP3   OH233556   6.712   4.863   1.742  0.2757 -1.0922  0.4797
 4022TIP3    H133557   6.705   4.958   1.739 -1.0286 -1.2008 -0.1968
 4022TIP3    H233558   6.678   4.833   1.658  2.2983 -2.1012 -0.0551
 4023TIP3   OH233559   3.278   1.855  13.085 -0.8451 -0.3973 -0.2173
 4023TIP3    H133560   3.212   1.786  13.080 -3.0662  1.3826  1.8849
 4023TIP3    H233561   3.279   1.893  12.998 -2.5400 -0.5887 -0.3579
 4024TIP3   OH233562   3.974   3.426  17.168  0.2167 -0.1420 -0.0698
 4024TIP3    H133563   3.939   3.497  17.221 -0.1801 -0.6097  0.2887
 4024TIP3    H233564   3.921   3.349  17.190 -0.7818 -0.0894 -2.0150
 4025TIP3   OH233565   3.410   1.342  11.448 -0.1969 -0.0386  0.3729
 4025TIP3    H133566   3.479   1.408  11.439 -1.3707  1.5088  2.0432
 4025TIP3    H233567   3.387   1.320  11.357  1.4714  0.4804 -0.2182
 4026TIP3   OH233568   4.047   2.485  16.849 -0.1651 -0.1067 -0.1960
 4026TIP3    H133569   4.112   2.492  16.779 -0.4696  0.0541 -0.4654
 4026TIP3    H233570   4.027   2.391  16.855  0.5229 -0.2311  0.2935
 4027TIP3   OH233571   0.068   3.250   0.891  0.5814  0.1793 -0.0991
 4027TIP3    H133572   0.130   3.306   0.844 -0.5511  1.5795 -0.0150
 4027TIP3    H233573   0.099   3.251   0.982  0.0384  1.5451  0.1073
 4028TIP3   OH233574   5.597   6.534  12.534 -0.0390  0.1595  0.0198
 4028TIP3    H133575   5.597   6.497  12.622 -0.9153 -1.7371 -0.7094
 4028TIP3    H233576   5.685   6.518  12.501 -0.0113 -0.0806  0.2069
 4029TIP3   OH233577   2.313   2.422  12.907 -0.1750  0.2051  0.2818
 4029TIP3    H133578   2.271   2.478  12.842 -0.9919  0.1425  0.7525
 4029TIP3    H233579   2.407   2.434  12.891 -0.3513 -0.3381 -1.3530
 4030TIP3   OH233580   6.098   3.477   4.429 -0.2501 -0.3370 -0.3672
 4030TIP3    H133581   6.096   3.431   4.346  0.3739  0.4398 -0.8279
 4030TIP3    H233582   6.060   3.415   4.492 -0.7684 -0.9095 -1.2274
 4031TIP3   OH233583   6.030   1.643  15.919 -0.4738 -0.1332 -0.6136
 4031TIP3    H133584   6.083   1.586  15.863 -0.6569 -0.6298 -0.2857
 4031TIP3    H233585   6.082   1.723  15.927  1.1989 -1.3208  1.3245
 4032TIP3   OH233586   0.391   6.363  13.511 -0.2367 -0.0086  0.2932
 4032TIP3    H133587   0.377   6.376  13.605 -0.0652 -0.3485  0.3690
 4032TIP3    H233588   0.401   6.451  13.476 -1.5743  0.2064  0.3884
 4033TIP3   OH233589   6.436   6.495   1.321 -0.4568  0.3419 -0.2501
 4033TIP3    H133590   6.389   6.527   1.398 -1.5392  0.6896 -1.0255
 4033TIP3    H233591   6.481   6.572   1.286  1.2738 -0.1138  0.8446
 4034TIP3   OH233592   1.047   6.555   1.087  0.6167 -0.2340 -0.4389
 4034TIP3    H133593   1.065   6.516   1.172 -0.9501  2.3343  1.2174
 4034TIP3    H233594   0.956   6.530   1.069 -0.3264  2.1918  0.5320
 4035TIP3   OH233595   5.029   5.747   1.840 -0.5944 -0.2121  0.0855
 4035TIP3    H133596   5.022   5.831   1.795  1.0130  0.0098  0.1778
 4035TIP3    H233597   5.029   5.770   1.933  1.2482 -0.1412  0.0993
 4036TIP3   OH233598   0.998   5.653  13.847  0.6926 -0.1741 -0.4264
 4036TIP3    H133599   1.039   5.678  13.764  1.3521 -1.7419 -0.6179
 4036TIP3    H233600   0.905   5.671  13.835  0.7015 -0.8393 -1.7119
 4037TIP3   OH233601   2.231   2.501   0.219  0.5289  0.1516  0.0699
 4037TIP3    H133602   2.282   2.581   0.211 -2.6474  2.3871  0.2147
 4037TIP3    H233603   2.202   2.501   0.310 -0.4086 -0.5468 -0.2172
 4038TIP3   OH233604   6.718   1.565   6.541  0.4243 -0.2871 -0.8870
 4038TIP3    H133605   6.650   1.610   6.492  1.3859  0.2564 -1.7346
 4038TIP3    H233606   6.772   1.634   6.578  1.5766 -0.7142 -1.7216
 4039TIP3   OH233607   4.024   4.512   3.282  0.0585  0.2440 -0.1090
 4039TIP3    H133608   3.987   4.459   3.212  1.3502 -2.3382  1.0142
 4039TIP3    H233609   3.980   4.480   3.362  0.4819  1.2805  0.5622
 4040TIP3   OH233610   2.132   6.421  13.301  0.0544  0.2062  0.0527
 4040TIP3    H133611   2.076   6.395  13.375  0.2669  0.0614  0.1622
 4040TIP3    H233612   2.080   6.398  13.224  0.2298 -0.5373  0.1485
 4041TIP3   OH233613   4.393   4.536  16.146 -0.3528 -0.3254  0.9081
 4041TIP3    H133614   4.375   4.627  16.121 -0.3262 -0.2645  1.1043
 4041TIP3    H233615   4.461   4.507  16.086 -1.0474 -0.5360  0.2031
 4042TIP3   OH233616   0.551   1.568   0.511  0.1202 -0.0869 -0.2568
 4042TIP3    H133617   0.457   1.556   0.494  0.1645 -3.5925  1.1572
 4042TIP3    H233618   0.594   1.507   0.451  1.5494  1.2060 -0.6303
 4043TIP3   OH233619   6.047   3.205  11.901 -0.3403  0.1134  0.1928
 4043TIP3    H133620   6.022   3.117  11.875 -1.6091  0.2823  0.7677
 4043TIP3    H233621   6.016   3.261  11.830 -0.5325  0.2076  0.3513
 4044TIP3   OH233622   0.416   1.487  13.871  0.4888  0.5711 -0.1892
 4044TIP3    H133623   0.429   1.473  13.777 -2.2664 -1.2124 -0.4208
 4044TIP3    H233624   0.322   1.472  13.885  0.7457  1.0943  2.8140
 4045TIP3   OH233625   5.926   6.225  13.687  0.8220  0.1846  0.4066
 4045TIP3    H133626   5.979   6.251  13.611 -0.5332 -1.4861 -1.1962
 4045TIP3    H233627   5.983   6.165  13.736  1.4539  0.7284  0.3576
 4046TIP3   OH233628   6.514   0.584   4.485 -0.2869  0.4333 -0.4581
 4046TIP3    H133629   6.550   0.496   4.491 -1.8388 -0.2867 -1.3126
 4046TIP3    H233630   6.590   0.642   4.495  0.9877 -1.0107 -1.4913
 4047TIP3   OH233631   2.288   0.525  11.692 -0.1150  0.0372  0.1114
 4047TIP3    H133632   2.338   0.444  11.697 -1.3166 -0.6542  3.0511
 4047TIP3    H233633   2.273   0.538  11.599  4.1672 -0.4637 -0.8597
 4048TIP3   OH233634   0.693   4.725  16.985  0.2756  0.6470 -0.6475
 4048TIP3    H133635   0.668   4.663  17.054  2.4716  1.1275  0.6588
 4048TIP3    H233636   0.701   4.671  16.906 -1.3291 -0.0811 -0.3581
 4049TIP3   OH233637   5.142   4.151  15.844  0.3715 -0.1028 -0.1768
 4049TIP3    H133638   5.129   4.096  15.921  3.1193  0.4846  0.8167
 4049TIP3    H233639   5.078   4.119  15.780 -1.4086 -1.1646  2.0284
 4050TIP3   OH233640   0.110   1.020  16.145  0.5527  0.2055  0.4790
 4050TIP3    H133641   0.051   1.068  16.088  0.3141 -0.1571  0.4185
 4050TIP3    H233642   0.192   1.069  16.142  0.2349  0.7549  0.6220
 4051TIP3   OH233643   5.721   5.155   5.477 -0.0370  0.0487  0.7235
 4051TIP3    H133644   5.728   5.244   5.510  0.6789  0.3585 -0.2217
 4051TIP3    H233645   5.629   5.144   5.454 -0.3868  0.0954  2.0295
 4052TIP3   OH233646   2.031   1.898  13.276 -0.0160 -0.5248  0.2173
 4052TIP3    H133647   2.110   1.868  13.321  0.8918  0.8684 -0.3748
 4052TIP3    H233648   1.995   1.966  13.332 -0.2498 -0.4910  0.0292
 4053TIP3   OH233649   4.717   1.034   2.485  0.0483 -0.7584 -0.0261
 4053TIP3    H133650   4.804   1.074   2.482 -0.2845  0.0128  0.4130
 4053TIP3    H233651   4.734   0.941   2.498  0.8182 -0.6832 -0.4256
 4054TIP3   OH233652   4.998   0.552  16.625  0.0300  0.0536  0.1494
 4054TIP3    H133653   5.074   0.494  16.637 -0.0073 -0.4428 -1.6335
 4054TIP3    H233654   4.924   0.501  16.658  0.2744 -0.0416  0.5639
 4055TIP3   OH233655   2.941   3.441   0.067 -0.2235 -0.7995  0.2109
 4055TIP3    H133656   2.874   3.385   0.107 -1.1029  0.1907  0.1771
 4055TIP3    H233657   2.924   3.434  -0.027  0.3748 -1.3356  0.1402
 4056TIP3   OH233658   6.682   6.029   5.224 -0.2932 -0.3415 -0.4564
 4056TIP3    H133659   6.689   6.084   5.146 -0.5220 -0.0193 -0.2518
 4056TIP3    H233660   6.591   6.000   5.225 -0.5692  0.5038  0.2538
 4057TIP3   OH233661   6.119   6.171   1.044  0.2319  0.3329 -0.1608
 4057TIP3    H133662   6.029   6.202   1.038  0.5470  1.2747 -0.1704
 4057TIP3    H233663   6.170   6.248   1.069  1.0913 -0.0998 -0.5083
 4058TIP3   OH233664   4.222   5.645  12.127 -0.5507  0.1925  0.2747
 4058TIP3    H133665   4.178   5.668  12.209 -0.5404  0.3264  0.2432
 4058TIP3    H233666   4.294   5.707  12.121 -1.3283  1.0628 -0.4960
 4059TIP3   OH233667   3.922   2.417   5.515  0.1662 -0.3949 -0.3348
 4059TIP3    H133668   3.921   2.416   5.610  2.9427  1.5839 -0.1611
 4059TIP3    H233669   3.910   2.509   5.492  0.2812 -0.7334 -1.8650
 4060TIP3   OH233670   3.208   5.561  11.804 -0.1377  0.6269  0.4911
 4060TIP3    H133671   3.225   5.467  11.805 -0.2372  0.6109  0.9264
 4060TIP3    H233672   3.270   5.597  11.741  0.9664  0.4711  1.4516
 4061TIP3   OH233673   0.097   2.284  11.639 -0.4788 -0.3501  0.2505
 4061TIP3    H133674   0.073   2.191  11.636 -0.7584 -0.3046  0.8441
 4061TIP3    H233675   0.086   2.308  11.731  1.0984 -0.1144  0.4067
 4062TIP3   OH233676   0.906   0.022  12.430 -0.3158 -0.0316  0.3348
 4062TIP3    H133677   0.913   0.029  12.335 -0.1386 -0.9586  0.2692
 4062TIP3    H233678   0.870  -0.066  12.445 -0.6748  0.2396  1.1084
 4063TIP3   OH233679   5.323   4.141  14.051  0.2469  0.1096 -0.4990
 4063TIP3    H133680   5.266   4.176  14.119  0.7125  2.1573 -1.0847
 4063TIP3    H233681   5.303   4.193  13.973  0.6511 -1.2957 -1.5891
 4064TIP3   OH233682   0.744   1.965   4.980 -0.1095 -0.1010 -0.5909
 4064TIP3    H133683   0.797   1.942   4.904  1.6483  1.5847  0.0445
 4064TIP3    H233684   0.735   2.060   4.974 -0.2491  0.0122  1.1037
 4065TIP3   OH233685   6.156   5.331  16.858  0.2736 -0.2403 -0.4351
 4065TIP3    H133686   6.207   5.255  16.886 -0.4954 -0.8615 -0.6451
 4065TIP3    H233687   6.206   5.407  16.888  2.1991 -0.7499 -2.1518
 4066TIP3   OH233688   6.454   0.108  13.035  0.2071 -0.0274  0.7761
 4066TIP3    H133689   6.466   0.013  13.032  1.5125  0.1279  0.4477
 4066TIP3    H233690   6.458   0.136  12.944  2.5196  0.6007  0.9964
 4067TIP3   OH233691   1.345   3.305  14.777 -0.0920  0.6454  0.3343
 4067TIP3    H133692   1.286   3.300  14.852 -1.4541  1.2635 -0.6692
 4067TIP3    H233693   1.361   3.214  14.753  0.5030  0.4295  1.4482
 4068TIP3   OH233694   5.984   1.883   0.025  0.7874 -0.1410  0.0863
 4068TIP3    H133695   5.966   1.926   0.109 -1.0804 -1.0561  0.2084
 4068TIP3    H233696   6.033   1.948  -0.025 -1.7593  2.1477  0.3179
 4069TIP3   OH233697   2.587   4.008  13.137  0.0045  0.1565  0.5636
 4069TIP3    H133698   2.620   4.014  13.047 -1.5962 -2.5154 -0.3437
 4069TIP3    H233699   2.660   3.973  13.187  0.9285  1.7157  0.3467
 4070TIP3   OH233700   5.499   4.829   2.411  0.0533 -0.4829  0.0322
 4070TIP3    H133701   5.455   4.758   2.458  0.7385 -0.4788  0.7081
 4070TIP3    H233702   5.588   4.830   2.448  0.7474 -0.7342 -1.5581
 4071TIP3   OH233703   4.640   5.367   0.570  0.2664  0.6702 -0.0008
 4071TIP3    H133704   4.638   5.381   0.475  1.0048  0.2152 -0.0933
 4071TIP3    H233705   4.732   5.348   0.589  0.8561  4.0540  1.2838
 4072TIP3   OH233706   2.521   2.728  15.433 -0.5757  0.1478  0.5507
 4072TIP3    H133707   2.609   2.726  15.472  0.1513  0.9773 -0.9540
 4072TIP3    H233708   2.516   2.648  15.381 -1.7094 -1.1797  2.5712
 4073TIP3   OH233709   0.068   4.443  16.436  0.2059 -0.0731  0.1835
 4073TIP3    H133710   0.006   4.516  16.426  0.3393  0.0266  0.0808
 4073TIP3    H233711   0.146   4.472  16.390  0.1149 -0.4534 -0.2155
 4074TIP3   OH233712   1.406   0.784   0.325 -0.0673  0.2869 -0.2293
 4074TIP3    H133713   1.435   0.875   0.320  1.9040 -0.2931  0.1087
 4074TIP3    H233714   1.338   0.784   0.392  0.0902  1.4638 -0.0560
 4075TIP3   OH233715   0.114   4.943   0.310 -0.0251 -0.4761 -0.0503
 4075TIP3    H133716   0.064   4.970   0.233 -0.7535  0.8066  0.8330
 4075TIP3    H233717   0.196   4.908   0.274 -0.3011  0.1902 -1.4011
 4076TIP3   OH233718   2.607   5.498   3.878  0.4725 -0.1654  0.0863
 4076TIP3    H133719   2.683   5.528   3.828  1.2756 -2.3416 -0.1036
 4076TIP3    H233720   2.624   5.405   3.894 -2.2892 -0.7920 -0.2033
 4077TIP3   OH233721   0.250   0.112  11.737  0.1930 -0.7853 -0.0252
 4077TIP3    H133722   0.192   0.186  11.757 -0.7036 -1.2122 -0.9376
 4077TIP3    H233723   0.290   0.090  11.821 -0.4698 -0.0490  0.5067
 4078TIP3   OH233724   6.352   1.209   4.884 -0.1975  0.4170  0.4469
 4078TIP3    H133725   6.342   1.157   4.804  1.3615 -0.3011  0.6753
 4078TIP3    H233726   6.349   1.144   4.955  1.5651  0.6116  0.7532
 4079TIP3   OH233727   4.127   3.299  15.351  0.0483 -0.6144 -0.0839
 4079TIP3    H133728   4.113   3.335  15.438  0.6978 -0.8626  0.1272
 4079TIP3    H233729   4.106   3.371  15.291 -1.3404 -0.7293  0.2301
 4080TIP3   OH233730   0.358   2.280  15.210  0.8063 -0.0145 -0.0857
 4080TIP3    H133731   0.398   2.216  15.270 -0.5055  0.3971  1.3008
 4080TIP3    H233732   0.265   2.257  15.210  0.4006  1.5472  0.0074
 4081TIP3   OH233733   4.512   4.090   6.007 -0.1191 -0.5693 -0.2917
 4081TIP3    H133734   4.422   4.079   6.035  0.0125  0.4573  0.5551
 4081TIP3    H233735   4.556   4.134   6.080  0.9704 -0.6671 -0.8580
 4082TIP3   OH233736   6.723   1.565   2.485 -0.1170  0.1574 -0.2319
 4082TIP3    H133737   6.634   1.599   2.483  0.5234  1.9972  0.6434
 4082TIP3    H233738   6.740   1.537   2.394 -1.7435 -0.7932 -0.2787
 4083TIP3   OH233739   3.302   5.084   3.291 -0.3667 -0.4277  0.0799
 4083TIP3    H133740   3.300   5.172   3.327  1.9119  0.5406 -1.9314
 4083TIP3    H233741   3.270   5.094   3.201  1.7751 -1.2271 -0.8355
 4084TIP3   OH233742   6.512   4.096  13.086  0.0965 -0.1030 -0.0068
 4084TIP3    H133743   6.432   4.069  13.131  0.4372  1.0094  1.3388
 4084TIP3    H233744   6.483   4.158  13.020 -0.1160  0.6944  0.8237
 4085TIP3   OH233745   0.363   0.114  11.982 -0.1832  0.5261 -0.3226
 4085TIP3    H133746   0.338   0.206  11.992  1.1697  0.7307  2.3689
 4085TIP3    H233747   0.455   0.117  11.956 -0.0099 -0.0408  0.1888
 4086TIP3   OH233748   0.770   1.167  16.881  0.2993  0.0100 -0.1696
 4086TIP3    H133749   0.794   1.098  16.943 -1.9134  0.8145  1.7450
 4086TIP3    H233750   0.681   1.144  16.854 -0.2277  1.7174  0.0118
 4087TIP3   OH233751   6.656   3.969  16.087 -0.1813  0.4714 -0.0246
 4087TIP3    H133752   6.704   3.951  16.006 -0.2344  1.0569 -0.1932
 4087TIP3    H233753   6.720   4.013  16.143 -0.6116  1.6429 -0.4083
 4088TIP3   OH233754   1.967   0.995  12.492  0.2773  0.3503 -0.0699
 4088TIP3    H133755   2.038   1.004  12.556  0.5629  0.4415 -0.3982
 4088TIP3    H233756   1.964   0.901  12.473 -0.4159  0.1917  0.7580
 4089TIP3   OH233757   0.899   2.275   3.098 -0.6555 -0.1634  0.3420
 4089TIP3    H133758   0.964   2.235   3.156 -0.9478 -0.0709  0.7365
 4089TIP3    H233759   0.815   2.239   3.126 -0.8402  0.1483  0.2052
 4090TIP3   OH233760   2.651   3.233  10.419 -0.1814 -0.0549  0.3720
 4090TIP3    H133761   2.617   3.181  10.492  0.6828 -0.3603  0.5690
 4090TIP3    H233762   2.682   3.314  10.461 -1.8055  0.7857  0.0295
 4091TIP3   OH233763   4.561   5.452   6.368  0.4897 -0.2226  0.0690
 4091TIP3    H133764   4.611   5.503   6.303 -0.3718 -0.3231 -0.6954
 4091TIP3    H233765   4.509   5.391   6.315 -1.1303  0.4921  0.7746
 4092TIP3   OH233766   2.522   2.617  12.911  0.5685  0.8623 -0.2949
 4092TIP3    H133767   2.611   2.585  12.927 -0.2943 -1.0191  1.0199
 4092TIP3    H233768   2.518   2.700  12.957  0.5708 -0.7787  2.9407
 4093TIP3   OH233769   2.723   3.321  14.442 -0.4379 -0.1450 -0.1846
 4093TIP3    H133770   2.631   3.335  14.422  0.0543  2.4949 -0.9296
 4093TIP3    H233771   2.729   3.330  14.537 -0.7647  1.0199 -0.2646
 4094TIP3   OH233772   6.183   0.308  11.987  0.1037  0.3251  0.6894
 4094TIP3    H133773   6.185   0.328  12.080  0.5602  0.8984  0.5591
 4094TIP3    H233774   6.128   0.376  11.949 -1.1670 -0.6567  0.7098
 4095TIP3   OH233775   1.051   2.324   6.341 -0.5016 -0.1080  0.6282
 4095TIP3    H133776   1.027   2.405   6.296  2.0378  0.3336 -0.1003
 4095TIP3    H233777   1.131   2.345   6.388 -0.8833 -1.6820  2.0823
 4096TIP3   OH233778   1.200   0.822  16.770  0.1592  0.0023  0.4364
 4096TIP3    H133779   1.127   0.761  16.778  3.6913 -4.7893  1.0109
 4096TIP3    H233780   1.199   0.849  16.678 -1.7058 -0.6687  0.2225
 4097TIP3   OH233781   5.252   3.610   2.254  0.2765 -0.0153 -0.4698
 4097TIP3    H133782   5.339   3.644   2.232 -0.2822  1.1535 -0.9864
 4097TIP3    H233783   5.230   3.654   2.336 -0.2447  0.5103 -0.8802
 4098TIP3   OH233784   4.900   6.356   4.741  0.2272  0.0517 -0.1153
 4098TIP3    H133785   4.949   6.301   4.679 -0.1105 -0.7026  0.2673
 4098TIP3    H233786   4.879   6.297   4.813  0.6217  0.9243  0.7310
 4099TIP3   OH233787   6.409   3.191   3.612 -0.4627 -0.7428 -0.1953
 4099TIP3    H133788   6.403   3.136   3.533  1.0967  0.9317 -1.5751
 4099TIP3    H233789   6.458   3.268   3.583 -1.8812  1.0242  1.8578
 4100TIP3   OH233790   4.203   4.686   0.955 -0.1983  0.3762  1.0757
 4100TIP3    H133791   4.219   4.652   0.867  0.9880 -1.0942  1.8197
 4100TIP3    H233792   4.258   4.764   0.961 -1.7405  1.6475 -0.0950
 4101TIP3   OH233793   5.749   3.799  13.477  0.6789 -0.0077  0.5138
 4101TIP3    H133794   5.792   3.785  13.392  1.6577  0.9689  0.8145
 4101TIP3    H233795   5.726   3.892  13.477 -0.7663 -0.3531  0.6868
 4102TIP3   OH233796   6.443   3.681   3.261  0.4388 -0.3927  0.1560
 4102TIP3    H133797   6.374   3.744   3.281 -0.4685 -1.2278 -0.2401
 4102TIP3    H233798   6.402   3.621   3.199  1.5156 -0.9334 -0.0384
 4103TIP3   OH233799   3.677   0.988   5.558  0.0774  0.4270 -0.2337
 4103TIP3    H133800   3.629   1.057   5.512  0.5988  0.3875 -0.8506
 4103TIP3    H233801   3.646   0.906   5.518  1.1715  0.4391 -1.1444
 4104TIP3   OH233802   1.256   2.964   1.341  0.5649 -0.1888  0.5497
 4104TIP3    H133803   1.189   2.919   1.289  1.3002 -0.9296  0.1912
 4104TIP3    H233804   1.213   3.041   1.377 -0.5542 -0.8223  0.5951
 4105TIP3   OH233805   2.464   2.202  16.011 -0.2730 -0.2942  0.2587
 4105TIP3    H133806   2.517   2.231  15.936 -0.1001  0.5134  0.6814
 4105TIP3    H233807   2.378   2.184  15.974 -0.3467  0.6391 -0.0588
 4106TIP3   OH233808   6.815   4.575  14.348 -0.2124  0.0045 -0.5068
 4106TIP3    H133809   6.862   4.652  14.316  0.1708 -0.5693 -1.3881
 4106TIP3    H233810   6.872   4.538  14.415  0.8753 -0.9314 -1.8658
 4107TIP3   OH233811   0.609   2.720   3.034 -0.3324 -0.5897 -0.2201
 4107TIP3    H133812   0.547   2.719   2.961 -2.1291 -2.4706  1.2091
 4107TIP3    H233813   0.666   2.645   3.018 -1.9903 -2.2603  1.1933
 4108TIP3   OH233814   4.529   4.658  15.640  0.3171 -0.2154  0.1787
 4108TIP3    H133815   4.530   4.582  15.581 -1.2517 -1.5508  1.7452
 4108TIP3    H233816   4.618   4.662  15.675  0.7366 -0.6004 -0.7894
 4109TIP3   OH233817   2.983   2.595   0.696 -0.1634  0.3117  0.0525
 4109TIP3    H133818   3.024   2.536   0.760 -1.3026 -1.2561 -0.6063
 4109TIP3    H233819   2.891   2.596   0.721 -0.8585 -1.2498 -2.1785
 4110TIP3   OH233820   3.730   4.090   0.722  0.1038 -0.3854 -0.2086
 4110TIP3    H133821   3.643   4.070   0.758 -0.1915 -0.6733 -1.0609
 4110TIP3    H233822   3.791   4.054   0.786 -0.3829  0.3841  0.7323
 4111TIP3   OH233823   5.212   2.631  12.820  0.0801 -0.7499  1.0309
 4111TIP3    H133824   5.268   2.580  12.879  1.9099 -0.3601 -0.2672
 4111TIP3    H233825   5.219   2.586  12.736 -3.6983 -2.1800  1.3216
 4112TIP3   OH233826   0.391   0.732   1.738 -0.2630 -0.6221  0.4533
 4112TIP3    H133827   0.366   0.670   1.806  0.4373 -0.8421  0.5181
 4112TIP3    H233828   0.467   0.692   1.696  0.0790  0.1041  0.3722
 4113TIP3   OH233829   3.166   6.779   0.669  0.3453 -0.3621 -0.1993
 4113TIP3    H133830   3.130   6.804   0.754  1.9697  0.1965  0.3687
 4113TIP3    H233831   3.090   6.773   0.611 -0.5004  3.0129  0.3629
 4114TIP3   OH233832   5.450   1.737  14.866 -0.3361 -0.1964  0.1775
 4114TIP3    H133833   5.496   1.740  14.782 -0.3912  0.8949  0.1729
 4114TIP3    H233834   5.434   1.829  14.888 -1.1961 -0.5092  0.9071
 4115TIP3   OH233835   5.129   1.929  15.782  0.1236 -0.0254 -0.1712
 4115TIP3    H133836   5.069   1.906  15.852 -0.2047  0.0269 -0.4360
 4115TIP3    H233837   5.141   1.847  15.733  0.8171 -0.2144  0.2860
 4116TIP3   OH233838   6.220   5.565  16.489  0.5088 -0.3355  0.1045
 4116TIP3    H133839   6.315   5.573  16.488  0.4376  0.7004  0.2707
 4116TIP3    H233840   6.195   5.558  16.397  0.8003 -1.5397  0.1006
 4117TIP3   OH233841   6.537   2.636  16.658  0.0646  0.2369 -0.3303
 4117TIP3    H133842   6.541   2.699  16.586  0.7449  2.0194  1.1639
 4117TIP3    H233843   6.491   2.684  16.728  1.4753 -0.5493  1.1979
 4118TIP3   OH233844   5.755   2.203  13.064  0.6048  0.1474 -0.2022
 4118TIP3    H133845   5.828   2.256  13.031 -0.0377  1.2152  0.0355
 4118TIP3    H233846   5.752   2.221  13.158 -0.2709  0.5165 -0.2887
 4119TIP3   OH233847   3.305   4.095  15.221  0.1449  0.4048  0.4601
 4119TIP3    H133848   3.383   4.149  15.233 -0.2933  0.9251  1.0368
 4119TIP3    H233849   3.232   4.155  15.236 -0.3744 -0.0444 -0.2023
 4120TIP3   OH233850   6.793   4.329   2.540 -0.1823 -0.4326 -0.2089
 4120TIP3    H133851   6.843   4.409   2.529 -0.6746 -0.1075 -0.1230
 4120TIP3    H233852   6.766   4.304   2.451 -0.9457  0.1006 -0.1373
 4121TIP3   OH233853   1.009   4.993  15.790  0.3084  0.8547  0.3781
 4121TIP3    H133854   1.092   5.015  15.830  0.6032  0.9260 -0.2538
 4121TIP3    H233855   1.007   5.043  15.709 -0.0858  0.4091  0.1027
 4122TIP3   OH233856   2.167   0.860   5.656 -0.0049 -0.4722 -0.4577
 4122TIP3    H133857   2.240   0.798   5.661 -1.0279 -1.8506 -1.6642
 4122TIP3    H233858   2.107   0.821   5.591 -1.1012  1.3618 -0.6118
 4123TIP3   OH233859   5.538   1.912   0.577  0.4955 -0.2577 -0.0738
 4123TIP3    H133860   5.495   1.957   0.505 -1.6617 -1.2299  0.5269
 4123TIP3    H233861   5.605   1.858   0.536  0.9583  1.0294 -1.0753
 4124TIP3   OH233862   2.215   2.533   6.993 -0.3767  0.4362  0.5552
 4124TIP3    H133863   2.146   2.544   6.927 -0.0099 -1.5524 -0.2308
 4124TIP3    H233864   2.246   2.622   7.011 -1.8335  1.1925 -0.4809
 4125TIP3   OH233865   3.051   0.142   5.096 -0.0435 -0.1384  0.0746
 4125TIP3    H133866   2.968   0.187   5.110 -0.0329  0.6323 -1.9820
 4125TIP3    H233867   3.102   0.162   5.175  0.0391  3.7641 -0.7422
 4126TIP3   OH233868   6.118   3.246   0.752  0.1256 -0.0223  0.3267
 4126TIP3    H133869   6.160   3.327   0.721 -0.6619 -0.0149 -0.7760
 4126TIP3    H233870   6.181   3.209   0.813  1.6595  0.1113 -1.1046
 4127TIP3   OH233871   6.413   1.987  16.531 -0.0302  0.3047  0.4027
 4127TIP3    H133872   6.399   1.966  16.624  1.0790 -0.7448  0.3603
 4127TIP3    H233873   6.410   1.902  16.487 -3.8461  0.9986 -1.0880
 4128TIP3   OH233874   0.247   1.153   4.340 -0.1674 -0.1773  0.2883
 4128TIP3    H133875   0.330   1.105   4.343  0.0790  0.1914 -0.3034
 4128TIP3    H233876   0.263   1.233   4.389 -0.7965 -0.9908  1.8917
 4129TIP3   OH233877   2.128   4.997   5.400 -0.0182 -0.0038 -0.3361
 4129TIP3    H133878   2.182   4.965   5.472 -0.1191 -1.5063 -0.8960
 4129TIP3    H233879   2.041   4.959   5.417  0.2593 -1.4403 -1.8853
 4130TIP3   OH233880   3.045   3.148   3.195 -0.1115 -0.6636  0.0058
 4130TIP3    H133881   3.028   3.090   3.269  0.2480  1.5649  1.9369
 4130TIP3    H233882   2.963   3.196   3.183  0.6583  0.9276  0.8245
 4131TIP3   OH233883   4.698   4.642  17.230 -0.2805  0.0867 -0.2492
 4131TIP3    H133884   4.747   4.695  17.292 -0.0800  0.2101 -0.5109
 4131TIP3    H233885   4.655   4.575  17.283 -1.3638  1.1115  0.2178
 4132TIP3   OH233886   5.191   5.046   1.081  0.4345  0.4706  0.4943
 4132TIP3    H133887   5.187   5.002   0.996  1.8617 -0.1598  0.7220
 4132TIP3    H233888   5.273   5.096   1.079  0.9768 -0.3116  1.8427
 4133TIP3   OH233889   6.182   0.657  12.797  0.1796 -0.2198  0.3713
 4133TIP3    H133890   6.133   0.668  12.716  0.1738  0.5531  0.4729
 4133TIP3    H233891   6.129   0.701  12.864 -0.2734 -1.6265  0.9848
 4134TIP3   OH233892   2.248   4.309   3.064 -0.0014  0.3728  0.5742
 4134TIP3    H133893   2.198   4.391   3.070  1.5571  1.4059  0.0424
 4134TIP3    H233894   2.204   4.250   3.125 -1.8398  1.2251  0.1522
 4135TIP3   OH233895   6.546   5.557   3.412 -0.1741 -0.5650  0.4288
 4135TIP3    H133896   6.523   5.524   3.326  0.7221  1.3432 -0.5880
 4135TIP3    H233897   6.627   5.511   3.435  0.1636 -0.3047 -0.2313
 4136TIP3   OH233898   3.362   2.162  12.095  0.0024 -0.9502  0.1089
 4136TIP3    H133899   3.356   2.168  11.999 -1.5124  0.9382  0.2415
 4136TIP3    H233900   3.348   2.252  12.125 -0.1366 -1.6017  2.1353
 4137TIP3   OH233901   1.155   5.007   2.955 -0.3050 -0.9760  0.1081
 4137TIP3    H133902   1.127   4.942   2.890 -1.3843  3.3209 -4.2731
 4137TIP3    H233903   1.249   5.017   2.940 -0.5338 -0.0653 -0.8245
 4138TIP3   OH233904   5.520   3.534  14.629  0.0593 -1.0111 -0.6690
 4138TIP3    H133905   5.483   3.593  14.564  1.4975  0.2834 -0.3883
 4138TIP3    H233906   5.594   3.492  14.584  0.5605 -0.7174 -0.1390
 4139TIP3   OH233907   6.381   6.044  12.883 -0.3517  0.8492 -0.5199
 4139TIP3    H133908   6.407   6.055  12.791  2.2928 -0.8788 -0.0669
 4139TIP3    H233909   6.463   6.040  12.932 -1.6979  2.0006  2.0132
 4140TIP3   OH233910   3.196   1.702   1.171  0.8443 -0.1744  0.0573
 4140TIP3    H133911   3.232   1.681   1.257  0.6819 -1.2510 -0.1151
 4140TIP3    H233912   3.156   1.789   1.182  1.0078 -0.2052  1.0064
 4141TIP3   OH233913   0.534   0.404  11.624 -0.2464 -0.0009  0.0412
 4141TIP3    H133914   0.568   0.451  11.548 -1.3258 -1.3603 -1.3430
 4141TIP3    H233915   0.595   0.425  11.694  0.8111  1.2782 -1.1963
 4142TIP3   OH233916   6.764   0.350   5.564 -0.2605 -0.0064  0.2681
 4142TIP3    H133917   6.761   0.444   5.579 -0.5322 -0.1300  1.0691
 4142TIP3    H233918   6.672   0.324   5.560 -0.1879 -0.2598  0.2203
 4143TIP3   OH233919   0.202   0.909  15.123 -0.3327 -0.4383 -0.2548
 4143TIP3    H133920   0.214   0.969  15.197  2.1991 -1.9541  0.6755
 4143TIP3    H233921   0.124   0.943  15.078  0.1931  2.7395  0.9414
 4144TIP3   OH233922   1.083   2.946   0.755 -0.6074  0.1219 -0.1152
 4144TIP3    H133923   1.081   2.852   0.775  1.2855 -0.0987 -0.7728
 4144TIP3    H233924   1.018   2.956   0.685 -0.1640 -0.8688 -0.6901
 4145TIP3   OH233925   3.932   2.432   4.958 -0.0840  0.0833  0.1030
 4145TIP3    H133926   3.853   2.461   5.006 -0.1754 -0.2686  0.1718
 4145TIP3    H233927   3.933   2.337   4.971 -1.4347 -0.4002 -2.5540
 4146TIP3   OH233928   4.959   5.551  11.056 -0.5492 -0.1341  0.1002
 4146TIP3    H133929   4.919   5.479  11.103  1.6162 -2.2419 -1.0343
 4146TIP3    H233930   4.986   5.513  10.972  1.1030  1.8508 -0.3587
 4147TIP3   OH233931   2.518   0.276   3.960 -0.4208 -0.3935 -1.0489
 4147TIP3    H133932   2.612   0.262   3.972 -0.3524  0.5207 -0.3808
 4147TIP3    H233933   2.491   0.208   3.898 -0.1982 -3.7005  2.0926
 4148TIP3   OH233934   2.883   2.810  11.274 -0.2186 -0.1887  0.5453
 4148TIP3    H133935   2.812   2.747  11.284 -0.4833  0.1911  1.0587
 4148TIP3    H233936   2.843   2.896  11.288 -0.0711  0.1941 -1.1448
 4149TIP3   OH233937   2.693   2.929   4.588 -0.1817  0.9201 -0.0688
 4149TIP3    H133938   2.659   2.901   4.503  0.4702  1.1801 -0.4209
 4149TIP3    H233939   2.786   2.906   4.586 -0.3247  0.2146  0.8843
 4150TIP3   OH233940   4.583   1.634  15.438  0.0227 -0.0754 -0.4473
 4150TIP3    H133941   4.620   1.714  15.400 -0.1816 -0.0597 -0.6116
 4150TIP3    H233942   4.635   1.563  15.400 -2.2595 -0.3540 -3.4010
 4151TIP3   OH233943   5.417   2.674  16.585  0.2651  0.2320  0.0237
 4151TIP3    H133944   5.462   2.752  16.556  0.1348  0.0719 -0.6126
 4151TIP3    H233945   5.450   2.604  16.529 -0.7601  0.1120 -0.4511
 4152TIP3   OH233946   5.771   5.377   4.782 -0.1231  0.1590  0.5665
 4152TIP3    H133947   5.798   5.406   4.869 -0.3416  1.5033  0.2150
 4152TIP3    H233948   5.736   5.456   4.741  1.1574 -0.1588 -1.2125
 4153TIP3   OH233949   2.210   6.342  11.224  0.2061  0.2600  0.9274
 4153TIP3    H133950   2.221   6.324  11.130  1.8873  3.4213  0.3742
 4153TIP3    H233951   2.158   6.423  11.226  0.0241  0.1213  2.7619
 4154TIP3   OH233952   3.424   6.691   4.761 -0.1788 -0.3255 -0.3763
 4154TIP3    H133953   3.387   6.779   4.757  0.8560  0.2253  1.2533
 4154TIP3    H233954   3.379   6.649   4.834  2.4857  0.5148  1.9767
 4155TIP3   OH233955   3.607   5.589   4.855  0.0217  0.0224 -0.5308
 4155TIP3    H133956   3.554   5.544   4.788 -0.0756  0.5256 -0.7977
 4155TIP3    H233957   3.556   5.580   4.935  1.1463 -2.5143  0.0167
 4156TIP3   OH233958   6.005   1.748   0.976  0.3587  0.3584 -0.0949
 4156TIP3    H133959   6.070   1.813   1.002  0.5593  0.1477 -0.0617
 4156TIP3    H233960   6.054   1.685   0.923 -0.1572  1.0930 -1.5108
 4157TIP3   OH233961   5.821   2.953   2.670 -0.7327  0.2742 -0.0223
 4157TIP3    H133962   5.898   2.946   2.613  0.8169 -2.1807  2.1077
 4157TIP3    H233963   5.762   2.885   2.639 -0.9366  0.4898 -0.1092
 4158TIP3   OH233964   5.236   3.938  15.307 -0.9675  0.0679  0.3055
 4158TIP3    H133965   5.197   3.950  15.220  0.7453 -0.5700 -0.5811
 4158TIP3    H233966   5.168   3.970  15.367 -1.3859  2.5325 -1.3180
 4159TIP3   OH233967   3.974   0.636   2.289  0.1263  0.0688  0.1488
 4159TIP3    H133968   3.917   0.559   2.291 -0.7552  0.6817 -0.3008
 4159TIP3    H233969   4.053   0.609   2.335 -0.1341 -1.1226 -0.0663
 4160TIP3   OH233970   0.378   5.747  13.845  0.1939 -0.2416 -0.0947
 4160TIP3    H133971   0.442   5.792  13.789  0.6819 -1.2782 -0.3929
 4160TIP3    H233972   0.427   5.673  13.882 -0.8826 -1.1771 -0.4894
 4161TIP3   OH233973   2.177   3.542  15.756 -0.2306 -0.0843  0.2795
 4161TIP3    H133974   2.166   3.485  15.832 -0.9550 -0.2009  0.0986
 4161TIP3    H233975   2.126   3.620  15.778  0.7880  0.5302  0.5440
 4162TIP3   OH233976   3.307   3.845  14.503 -0.1622 -0.4547  0.0681
 4162TIP3    H133977   3.367   3.845  14.428  0.5670  0.2563  0.6295
 4162TIP3    H233978   3.278   3.754  14.512  0.4413 -0.7092 -0.5268
 4163TIP3   OH233979   3.075   3.242   2.304  0.4266 -0.3617  0.8343
 4163TIP3    H133980   3.025   3.292   2.369  1.5407  1.7316  0.1802
 4163TIP3    H233981   3.085   3.303   2.230  4.1862 -0.4553  1.0691
 4164TIP3   OH233982   6.386   0.238  11.523 -0.4483 -0.1579  0.0133
 4164TIP3    H133983   6.478   0.229  11.547 -0.1058  0.8679 -0.8132
 4164TIP3    H233984   6.387   0.253  11.428 -1.5945 -1.8408 -0.3040
 4165TIP3   OH233985   5.458   1.109  13.521  0.1075  0.0470 -0.0999
 4165TIP3    H133986   5.373   1.072  13.499  0.0050 -0.7881  1.5133
 4165TIP3    H233987   5.449   1.203  13.502 -0.8657 -0.1693 -0.7731
 4166TIP3   OH233988   2.610   4.317   0.741 -0.7898  0.1425 -0.8086
 4166TIP3    H133989   2.658   4.262   0.679 -1.2798 -0.1848 -0.8974
 4166TIP3    H233990   2.520   4.285   0.738 -0.5880 -0.7763  1.0276
 4167TIP3   OH233991   2.520   5.287   4.199  0.1275 -0.8439 -0.8642
 4167TIP3    H133992   2.550   5.265   4.111 -0.1744  1.0360 -1.4809
 4167TIP3    H233993   2.525   5.383   4.202  1.6422 -0.9113  1.6957
 4168TIP3   OH233994   3.338   0.339   4.774 -0.2482  0.4422  0.0813
 4168TIP3    H133995   3.260   0.325   4.826 -1.6176  2.4819 -1.2537
 4168TIP3    H233996   3.396   0.391   4.831 -1.0185  1.2090  0.1863
 4169TIP3   OH233997   4.101   0.850   4.775  0.6339 -0.0414  0.5753
 4169TIP3    H133998   4.157   0.793   4.722  0.8320  0.0054  0.7352
 4169TIP3    H233999   4.015   0.807   4.773  0.4817  0.2802 -0.2947
 4170TIP3   OH234000   2.432   1.645   0.247  0.1535 -0.2236 -0.0442
 4170TIP3    H134001   2.429   1.738   0.225  0.1187 -0.1938  0.0795
 4170TIP3    H234002   2.407   1.642   0.340 -2.2238 -0.5585 -0.6303
 4171TIP3   OH234003   2.079   4.155  16.258  0.0400 -0.2439  0.9674
 4171TIP3    H134004   1.999   4.207  16.256 -0.7520 -1.3381  2.2581
 4171TIP3    H234005   2.048   4.064  16.257  1.2587 -0.6814  1.5857
 4172TIP3   OH234006   4.950   0.011   2.986 -0.0047  0.0898  0.4014
 4172TIP3    H134007   5.020  -0.051   3.007  0.0351  0.0921  0.2769
 4172TIP3    H234008   4.891  -0.038   2.930  0.1746  0.2503  0.0686
 4173TIP3   OH234009   3.146   2.913  15.362  0.0974 -0.2922 -0.2915
 4173TIP3    H134010   3.094   2.992  15.353  0.0621 -0.2898 -0.0544
 4173TIP3    H234011   3.219   2.926  15.302  0.5954  0.3262  0.4339
 4174TIP3   OH234012   2.722   1.122   4.849 -0.4969  0.0741 -0.4802
 4174TIP3    H134013   2.669   1.120   4.928 -1.3099 -0.3903 -1.0180
 4174TIP3    H234014   2.659   1.109   4.778  0.4457 -1.4730 -1.0820
 4175TIP3   OH234015   0.605   3.100   5.345 -0.0597 -0.1116 -0.4453
 4175TIP3    H134016   0.666   3.126   5.276 -0.8122 -0.1488 -1.1392
 4175TIP3    H234017   0.656   3.042   5.402  1.2501  1.7304  0.3452
 4176TIP3   OH234018   5.769   1.580  12.266  0.7158 -0.0214  0.2579
 4176TIP3    H134019   5.805   1.493  12.283 -0.4711 -0.6635 -0.3340
 4176TIP3    H234020   5.725   1.572  12.182 -0.9057  0.6500  0.9827
 4177TIP3   OH234021   4.844   6.719  13.325  0.4736  0.0625 -0.1216
 4177TIP3    H134022   4.794   6.676  13.394  1.3804  0.9336  1.1405
 4177TIP3    H234023   4.807   6.807  13.320  1.5654  0.5743  0.5244
 4178TIP3   OH234024   2.851   2.899  13.577 -0.0628 -0.2031 -0.3841
 4178TIP3    H134025   2.869   2.842  13.502  0.5394 -0.7991  0.1985
 4178TIP3    H234026   2.875   2.846  13.654 -2.6243 -0.3935  0.3748
 4179TIP3   OH234027   3.430   6.268  16.397 -0.5965  0.1590  0.1200
 4179TIP3    H134028   3.437   6.258  16.302 -1.0549 -0.9119  0.1774
 4179TIP3    H234029   3.366   6.202  16.423 -0.6736  0.6199  1.1463
 4180TIP3   OH234030   1.552   1.822   4.683  0.0781  0.1427 -0.5594
 4180TIP3    H134031   1.604   1.838   4.762 -0.5344  0.7510 -0.2643
 4180TIP3    H234032   1.481   1.765   4.713 -0.2605  0.5256 -0.6230
 4181TIP3   OH234033   6.118   5.683   2.428  0.1284 -0.4291 -0.0701
 4181TIP3    H134034   6.102   5.685   2.334  0.0103  0.2944 -0.0457
 4181TIP3    H234035   6.097   5.772   2.457  1.9395 -0.0906  0.3411
 4182TIP3   OH234036   1.884   3.908  15.148  0.3027  0.0234  0.2288
 4182TIP3    H134037   1.865   3.983  15.203  2.5931 -0.2372  1.5197
 4182TIP3    H234038   1.914   3.946  15.065  3.6759  0.7797  1.6117
 4183TIP3   OH234039   4.065   1.083  15.904 -0.6036  0.4810  0.4188
 4183TIP3    H134040   4.161   1.084  15.895 -0.4910 -0.1020  1.3976
 4183TIP3    H234041   4.044   0.992  15.922 -1.6078  0.1623 -2.0176
 4184TIP3   OH234042   0.794   4.221   0.606  0.3132  0.5331 -0.3575
 4184TIP3    H134043   0.721   4.163   0.629  0.2497 -0.1706 -2.1850
 4184TIP3    H234044   0.781   4.299   0.661 -2.6135  1.0042 -1.5477
 4185TIP3   OH234045   2.704   2.049  14.219 -0.3744 -0.5821 -0.2037
 4185TIP3    H134046   2.688   1.987  14.290 -0.2822 -0.2539  0.1054
 4185TIP3    H234047   2.791   2.085  14.237  0.0383 -1.1526 -0.9787
 4186TIP3   OH234048   5.511   6.222   3.375  0.4498 -0.1765  0.3371
 4186TIP3    H134049   5.505   6.141   3.426 -1.7073 -0.7218 -0.6633
 4186TIP3    H234050   5.426   6.263   3.384  0.4656  0.4021 -1.6477
 4187TIP3   OH234051   1.867   2.074  13.453 -0.0962  0.0619  0.0137
 4187TIP3    H134052   1.803   2.139  13.424 -0.0134  0.8255  1.4509
 4187TIP3    H234053   1.823   2.026  13.523 -0.2905 -1.7207 -1.2632
 4188TIP3   OH234054   4.767   5.427  14.644 -0.3314 -0.3212 -0.2670
 4188TIP3    H134055   4.742   5.459  14.731  0.5760  1.9201 -0.7546
 4188TIP3    H234056   4.687   5.390  14.608 -1.5218  1.5152  0.3576
 4189TIP3   OH234057   3.544   4.338   5.366 -0.2966 -0.0974  0.1693
 4189TIP3    H134058   3.610   4.383   5.419  0.0590 -0.1027 -0.2576
 4189TIP3    H234059   3.460   4.369   5.400 -0.0583  0.5678  0.1605
 4190TIP3   OH234060   0.594   6.084  12.938  0.1054 -0.3204  0.0367
 4190TIP3    H134061   0.499   6.074  12.936 -0.1111  1.4797 -1.0245
 4190TIP3    H234062   0.628   5.998  12.915 -1.3224 -0.5093 -1.5085
 4191TIP3   OH234063   3.895   3.625  12.526  0.4413 -0.4242 -0.2839
 4191TIP3    H134064   3.902   3.692  12.458 -0.0537 -0.1774 -0.0983
 4191TIP3    H234065   3.951   3.554  12.496  0.4594 -0.1934 -0.8021
 4192TIP3   OH234066   2.419   5.892  14.839 -0.1203  0.4400  0.4508
 4192TIP3    H134067   2.443   5.933  14.922 -1.1505  1.0712  0.4571
 4192TIP3    H234068   2.500   5.853  14.807  0.7288  1.7878  0.8548
 4193TIP3   OH234069   0.742   6.180  14.824 -0.5517  0.5005  0.6451
 4193TIP3    H134070   0.755   6.086  14.831 -0.6630  0.5661  2.0367
 4193TIP3    H234071   0.791   6.206  14.745 -2.2924 -0.9982 -1.0123
 4194TIP3   OH234072   3.202   1.326  11.612 -0.3539 -0.0525 -0.6550
 4194TIP3    H134073   3.227   1.276  11.689 -0.0356  1.7942  0.4861
 4194TIP3    H234074   3.285   1.346  11.568 -0.3282  0.9045 -0.1809
 4195TIP3   OH234075   4.754   3.202   2.277  0.1587 -0.0480 -0.2198
 4195TIP3    H134076   4.848   3.207   2.257  0.3437  0.2043  0.6617
 4195TIP3    H234077   4.720   3.137   2.216  0.4907  1.3683 -2.0146
 4196TIP3   OH234078   0.286   5.161  11.947 -1.0972  0.1492  0.0954
 4196TIP3    H134079   0.275   5.069  11.970 -0.1182 -0.1517 -0.5488
 4196TIP3    H234080   0.250   5.168  11.859  1.0969 -0.2343 -0.9085
 4197TIP3   OH234081   0.096   1.421   0.932 -0.4173 -0.5032  0.3873
 4197TIP3    H134082   0.119   1.397   0.842  2.7347 -1.7754  1.3786
 4197TIP3    H234083   0.131   1.509   0.943 -1.8153  0.1152  0.0966
 4198TIP3   OH234084   6.686   1.866  17.149  0.1766 -0.3008 -0.0657
 4198TIP3    H134085   6.670   1.776  17.176  1.2274 -0.3045  0.6057
 4198TIP3    H234086   6.656   1.919  17.223  0.4992 -0.1592 -0.0330
 4199TIP3   OH234087   3.426   5.075   4.199 -0.3068  0.1860 -0.3848
 4199TIP3    H134088   3.435   4.980   4.196 -0.8071  0.1707 -2.0031
 4199TIP3    H234089   3.511   5.108   4.171 -0.7185  0.1731 -1.7183
 4200TIP3   OH234090   2.700   6.109   1.111 -0.1689 -0.3293  0.1139
 4200TIP3    H134091   2.783   6.154   1.101 -0.7895  0.6865 -0.6431
 4200TIP3    H234092   2.664   6.105   1.022 -1.1647 -0.2654  0.5034
 4201TIP3   OH234093   5.475   4.951  11.064  0.1075  0.1672 -0.1006
 4201TIP3    H134094   5.429   5.012  11.123 -2.0715 -1.7809  0.3556
 4201TIP3    H234095   5.503   4.880  11.121  0.1252 -0.5935 -1.0435
 4202TIP3   OH234096   2.515   1.977  16.154 -0.1571 -0.0742  0.1610
 4202TIP3    H134097   2.522   2.046  16.088 -1.5720  0.8810  0.9486
 4202TIP3    H234098   2.478   2.021  16.231 -1.5284 -1.7811  0.5485
 4203TIP3   OH234099   2.433   2.209   1.960 -0.4082 -0.4051 -0.1964
 4203TIP3    H134100   2.358   2.256   1.923 -0.6509 -1.1052 -0.6173
 4203TIP3    H234101   2.429   2.226   2.054  1.7175  3.6044 -0.6233
 4204TIP3   OH234102   6.776   3.979   5.723 -0.3886  0.3140 -0.1756
 4204TIP3    H134103   6.795   3.931   5.643 -0.1685  0.0604  0.0250
 4204TIP3    H234104   6.797   4.070   5.702  1.2182  0.0375  0.0745
 4205TIP3   OH234105   3.938   1.364   2.671 -0.5511 -0.6335 -0.4571
 4205TIP3    H134106   4.024   1.343   2.705 -2.5353 -3.4606  3.5011
 4205TIP3    H234107   3.931   1.313   2.590  1.5588  0.1120 -1.1879
 4206TIP3   OH234108   1.737   0.760   5.814 -0.6087  0.6171 -0.0932
 4206TIP3    H134109   1.645   0.778   5.834 -1.5967 -1.2088 -2.4425
 4206TIP3    H234110   1.758   0.821   5.743 -0.9169 -0.7642 -1.4190
 4207TIP3   OH234111   6.543   2.753   0.564 -0.1111  0.0759 -0.6382
 4207TIP3    H134112   6.497   2.672   0.546 -1.6236  0.4471  1.2225
 4207TIP3    H234113   6.615   2.728   0.623 -1.5738  0.2128  1.3190
 4208TIP3   OH234114   6.345   4.312   5.628  0.3579  0.1767  0.2074
 4208TIP3    H134115   6.371   4.378   5.563 -1.1234  0.6017 -0.0005
 4208TIP3    H234116   6.413   4.246   5.624  1.5744  1.3979 -0.0227
 4209TIP3   OH234117   4.719   0.580   0.562  0.2362 -0.1061  0.4536
 4209TIP3    H134118   4.750   0.498   0.524 -0.6921 -0.1973 -0.1420
 4209TIP3    H234119   4.774   0.593   0.639  0.9833 -0.8256  0.0545
 4210TIP3   OH234120   5.798   5.982   0.258 -0.0499 -0.3567 -0.1238
 4210TIP3    H134121   5.865   6.027   0.309 -0.1268  2.6346 -2.4100
 4210TIP3    H234122   5.717   6.031   0.277 -0.7206 -1.2178 -0.6901
 4211TIP3   OH234123   0.340   5.466   3.287 -0.5281 -0.1653  0.4074
 4211TIP3    H134124   0.391   5.429   3.215 -1.2535 -0.7872  0.1920
 4211TIP3    H234125   0.267   5.510   3.244  0.2610  1.4624  0.6713
 4212TIP3   OH234126   0.543   3.285   0.795  0.7166 -0.6197 -0.1953
 4212TIP3    H134127   0.595   3.257   0.872  0.1161 -0.2775  0.3424
 4212TIP3    H234128   0.527   3.204   0.747  0.6692 -0.9155  0.3091
 4213TIP3   OH234129   2.175   5.177   5.200  0.2815 -0.0203 -0.1451
 4213TIP3    H134130   2.186   5.132   5.284 -0.8449 -1.7356 -0.8583
 4213TIP3    H234131   2.082   5.198   5.196  0.6244  1.6192 -0.2556
 4214TIP3   OH234132   1.263   4.997   3.841 -0.2237 -0.1465  0.1273
 4214TIP3    H134133   1.273   4.907   3.871  1.7435 -0.2353 -0.6699
 4214TIP3    H234134   1.312   5.049   3.905 -0.9523  0.3143  0.3187
 4215TIP3   OH234135   4.812   1.049  16.967  0.1459  0.3980 -0.0004
 4215TIP3    H134136   4.767   1.081  16.889  0.1176 -1.9046 -0.9908
 4215TIP3    H234137   4.744   1.008  17.020  0.6621 -1.0569 -0.4156
 4216TIP3   OH234138   3.667   1.045  12.237 -0.3940 -0.1682  0.2294
 4216TIP3    H134139   3.636   1.071  12.150  0.1788  2.2968  0.6739
 4216TIP3    H234140   3.694   1.128  12.278  1.2070 -1.4908  2.0169
 4217TIP3   OH234141   2.804   4.570   2.663 -0.1570 -0.4230  0.1034
 4217TIP3    H134142   2.897   4.555   2.643 -0.0945 -0.4559  0.4074
 4217TIP3    H234143   2.757   4.527   2.592  0.0181 -2.2353  1.0312
 4218TIP3   OH234144   5.157   2.960  14.137 -0.5308 -0.0916 -0.5866
 4218TIP3    H134145   5.240   3.006  14.144  1.1256 -2.6525 -1.8568
 4218TIP3    H234146   5.157   2.898  14.210 -0.9210 -0.6936 -1.0838
 4219TIP3   OH234147   3.473   5.580  17.176 -0.3958  0.2154  0.0456
 4219TIP3    H134148   3.531   5.578  17.100 -2.0193 -0.6076 -1.2327
 4219TIP3    H234149   3.388   5.607  17.141 -0.7784  1.6165  1.9000
 4220TIP3   OH234150   5.211   2.129   5.846  0.0736  0.3770 -0.3334
 4220TIP3    H134151   5.119   2.131   5.874  0.8567 -0.1546  2.6372
 4220TIP3    H234152   5.217   2.051   5.790 -1.3507  0.6703 -0.9419
 4221TIP3   OH234153   4.229   4.828   4.609 -0.4496 -0.5023 -0.1940
 4221TIP3    H134154   4.275   4.879   4.675  1.0053  0.9110 -2.1870
 4221TIP3    H234155   4.186   4.893   4.553 -2.7332 -1.6943  0.0294
 4222TIP3   OH234156   1.854   4.130  15.313  0.2421  0.3007 -0.2371
 4222TIP3    H134157   1.895   4.216  15.327  1.2155 -0.3281  0.8916
 4222TIP3    H234158   1.761   4.149  15.307  0.5240  1.5607 -1.0649
 4223TIP3   OH234159   6.127   0.028   3.859 -0.4673 -0.2681 -0.4546
 4223TIP3    H134160   6.186   0.072   3.921 -1.6304  0.5575  0.1293
 4223TIP3    H234161   6.184  -0.022   3.802  0.6080 -2.3693  2.2585
 4224TIP3   OH234162   0.769   2.728   3.593 -0.1020  0.0841  0.3400
 4224TIP3    H134163   0.804   2.753   3.678 -2.0952  2.0529  0.6832
 4224TIP3    H234164   0.695   2.671   3.613 -0.4621  0.4020 -0.0604
 4225TIP3   OH234165   1.833   3.137  12.130  0.1673 -0.7721  0.3450
 4225TIP3    H134166   1.836   3.065  12.192 -1.3580  0.0737  1.4516
 4225TIP3    H234167   1.742   3.142  12.102  0.1359  1.0202  0.6636
 4226TIP3   OH234168   4.798   2.168   1.331  0.0181 -0.0867 -0.4684
 4226TIP3    H134169   4.716   2.216   1.343  0.1703  0.1593 -0.4085
 4226TIP3    H234170   4.866   2.233   1.347  0.2262 -0.1215 -1.1886
 4227TIP3   OH234171   1.576   1.479  14.868 -0.4546  0.3589  0.1870
 4227TIP3    H134172   1.593   1.487  14.962  0.4981 -1.0232  0.1606
 4227TIP3    H234173   1.491   1.435  14.863 -1.1470  1.6270  0.3680
 4228TIP3   OH234174   0.163   2.725   3.494  0.1759  0.8592 -0.0405
 4228TIP3    H134175   0.206   2.662   3.553 -0.9508  0.4456  0.3569
 4228TIP3    H234176   0.129   2.671   3.423  0.5333  1.2226 -0.4962
 4229TIP3   OH234177   1.019   4.144  13.492  0.1558 -0.5590 -0.9090
 4229TIP3    H134178   1.108   4.163  13.524  0.3147 -1.3633 -0.8562
 4229TIP3    H234179   1.011   4.196  13.412  0.7593 -0.6447 -1.0345
 4230TIP3   OH234180   5.815   1.305  13.281  0.0983  0.6372 -0.0276
 4230TIP3    H134181   5.885   1.285  13.219  0.5804 -0.2568  0.7897
 4230TIP3    H234182   5.840   1.260  13.361 -2.6352 -1.8864 -0.4046
 4231TIP3   OH234183   2.012   3.325   0.035 -0.0498  0.4066  0.0089
 4231TIP3    H134184   1.926   3.359   0.060  0.3814  1.2360  0.4402
 4231TIP3    H234185   2.017   3.338  -0.060 -0.7413 -0.4793 -0.1608
 4232TIP3   OH234186   6.684   2.945   2.777 -0.3638 -0.2366 -0.0638
 4232TIP3    H134187   6.769   2.983   2.754 -1.4764  2.9291  0.4714
 4232TIP3    H234188   6.705   2.873   2.835  1.9696  1.2227  1.0623
 4233TIP3   OH234189   2.668   1.512  11.738 -0.6373  0.3129 -0.2064
 4233TIP3    H134190   2.664   1.532  11.644 -2.2630  0.0461 -0.2203
 4233TIP3    H234191   2.599   1.567  11.777  0.5612  1.0470  0.9650
 4234TIP3   OH234192   2.299   5.412  16.169 -0.5121  0.0588 -0.0212
 4234TIP3    H134193   2.292   5.448  16.080 -0.3364  0.3140  0.0642
 4234TIP3    H234194   2.382   5.364  16.169 -0.7573 -0.3665 -0.1431
 4235TIP3   OH234195   5.973   1.321  10.453  0.1729  0.0239  0.7517
 4235TIP3    H134196   6.051   1.287  10.408  0.5676  3.8501 -1.8992
 4235TIP3    H234197   6.006   1.392  10.507 -1.3612  1.7255 -0.4334
 4236TIP3   OH234198   6.454   5.948  14.536 -0.3877  0.1897 -0.0983
 4236TIP3    H134199   6.380   5.944  14.596 -0.2588  0.5416  0.0851
 4236TIP3    H234200   6.520   5.889  14.574 -0.1311  0.7583  0.3461
 4237TIP3   OH234201   2.811   1.839   1.380 -0.1303  0.0146  0.5422
 4237TIP3    H134202   2.772   1.759   1.415 -0.3223 -0.3521 -0.4942
 4237TIP3    H234203   2.850   1.812   1.297 -0.5994  1.1036 -0.0373
 4238TIP3   OH234204   0.594   1.169  13.560  0.5458 -0.2151  0.6596
 4238TIP3    H134205   0.546   1.161  13.477  3.1548 -1.7461 -0.8858
 4238TIP3    H234206   0.532   1.139  13.627 -1.1695 -0.4163 -0.9309
 4239TIP3   OH234207   0.383   4.068   4.732  0.8314 -0.0791  0.3315
 4239TIP3    H134208   0.459   4.118   4.702  1.8294 -2.0084 -0.5235
 4239TIP3    H234209   0.331   4.053   4.654  1.5175 -1.9073  0.1623
 4240TIP3   OH234210   1.148   4.543  11.744  0.0448 -0.5494  0.1037
 4240TIP3    H134211   1.228   4.526  11.794 -0.2488 -0.3620  0.6497
 4240TIP3    H234212   1.098   4.603  11.799 -1.1072 -1.7655  0.4179
 4241TIP3   OH234213   4.273   6.233  15.775  0.7958  0.1527 -0.1724
 4241TIP3    H134214   4.286   6.324  15.750  2.7064 -0.1747 -0.5404
 4241TIP3    H234215   4.295   6.230  15.868 -0.5290  0.2805  0.1621
 4242TIP3   OH234216   3.293   2.439  12.129 -0.3984  0.0927 -0.3961
 4242TIP3    H134217   3.325   2.530  12.124 -0.6967  0.2899  0.8682
 4242TIP3    H234218   3.209   2.440  12.085  0.3231  0.0504 -1.8385
 4243TIP3   OH234219   2.374   6.458  12.038  0.0558 -0.6614 -0.3524
 4243TIP3    H134220   2.360   6.381  12.093 -0.5483 -0.8294 -0.7394
 4243TIP3    H234221   2.286   6.488  12.015  0.2957 -0.4848 -1.0740
 4244TIP3   OH234222   1.167   2.242  14.379  0.1108 -0.1574  0.0091
 4244TIP3    H134223   1.238   2.201  14.428  0.0236 -0.1397  0.1525
 4244TIP3    H234224   1.210   2.307  14.323  0.3955 -1.3297 -1.1832
 4245TIP3   OH234225   4.139   1.764  14.598 -0.2066 -0.2645 -0.0593
 4245TIP3    H134226   4.058   1.806  14.627 -0.3462 -0.6300  0.0900
 4245TIP3    H234227   4.111   1.681  14.561  0.0879 -0.3240 -0.1490
 4246TIP3   OH234228   0.649   4.876   2.928  0.1862 -0.8318  0.3917
 4246TIP3    H134229   0.693   4.791   2.920  0.1277 -0.9927  1.5226
 4246TIP3    H234230   0.657   4.916   2.842  1.2382 -1.4974  0.1583
 4247TIP3   OH234231   4.554   6.412   3.898 -0.1930 -0.2078  0.1653
 4247TIP3    H134232   4.534   6.394   3.805  1.0066 -1.0241  0.0534
 4247TIP3    H234233   4.495   6.484   3.921 -0.7238 -0.1922 -1.1488
 4248TIP3   OH234234   1.602   3.788   2.356 -0.1361 -0.1269 -0.3289
 4248TIP3    H134235   1.671   3.803   2.290 -2.2009  0.7572 -2.4377
 4248TIP3    H234236   1.551   3.714   2.321  0.8886 -2.2385  2.2826
 4249TIP3   OH234237   1.942   4.398  15.346 -0.1008  0.1347 -0.3711
 4249TIP3    H134238   1.953   4.475  15.400  0.9034  0.3412 -0.8586
 4249TIP3    H234239   2.012   4.402  15.281  1.4953 -2.4106  1.0316
 4250TIP3   OH234240   6.082   2.615   5.835 -0.4587 -0.4123  0.1516
 4250TIP3    H134241   6.095   2.666   5.915 -0.9568 -1.1584  0.7151
 4250TIP3    H234242   6.078   2.524   5.864  0.3975 -0.7907 -0.8461
 4251TIP3   OH234243   5.364   4.849   4.815 -0.2075 -0.3116 -0.3463
 4251TIP3    H134244   5.274   4.841   4.848  0.0331  0.2093  0.4570
 4251TIP3    H234245   5.376   4.771   4.761 -0.0311 -2.1614  2.1825
 4252TIP3   OH234246   6.556   6.081  11.500  0.2503  0.5054 -0.1507
 4252TIP3    H134247   6.462   6.099  11.505  0.3825  0.9867  0.8774
 4252TIP3    H234248   6.589   6.103  11.587  0.7926 -2.7441  0.5989
 4253TIP3   OH234249   6.613   1.072  15.392  0.2384 -0.4871  0.3525
 4253TIP3    H134250   6.688   1.133  15.394 -0.1231  0.1695 -2.4380
 4253TIP3    H234251   6.647   0.994  15.349 -0.2557 -0.8558  0.6223
 4254TIP3   OH234252   1.156   0.636   1.307  0.0985  0.5656 -0.0287
 4254TIP3    H134253   1.195   0.651   1.394 -2.0532  0.4590  1.0143
 4254TIP3    H234254   1.120   0.547   1.313 -0.3537  0.6850 -0.9133
 4255TIP3   OH234255   4.684   3.935   3.129 -0.1113  0.1470 -0.3680
 4255TIP3    H134256   4.609   3.876   3.134 -0.9433  1.0486 -1.3975
 4255TIP3    H234257   4.645   4.023   3.132  1.0773  0.6652  1.0818
 4256TIP3   OH234258   4.980   0.240  10.890  0.0587 -0.2214  0.0477
 4256TIP3    H134259   5.048   0.306  10.878 -1.1240  0.9151 -0.6757
 4256TIP3    H234260   5.017   0.160  10.851  0.6376  0.5962 -1.1427
 4257TIP3   OH234261   2.613   4.131  12.174 -0.1161 -0.7257 -0.9482
 4257TIP3    H134262   2.663   4.086  12.242  0.0921  0.7317 -0.1143
 4257TIP3    H234263   2.592   4.216  12.211  0.4993  0.3413 -2.8860
 4258TIP3   OH234264   5.081   3.853   5.785  0.3561  0.4117  0.2411
 4258TIP3    H134265   5.048   3.863   5.875  1.7442 -0.4800  0.8937
 4258TIP3    H234266   5.176   3.860   5.794  0.4345  2.5981 -1.5253
 4259TIP3   OH234267   3.982   2.556  16.488 -0.1387 -0.1588 -0.3023
 4259TIP3    H134268   3.973   2.628  16.426 -2.0339  0.5797  0.7273
 4259TIP3    H234269   3.946   2.481  16.443 -0.4264  0.1095 -0.5228
 4260TIP3   OH234270   3.060   2.034  12.878 -0.1147 -0.2542 -0.3783
 4260TIP3    H134271   3.049   2.124  12.847 -0.5892 -0.7594 -1.7568
 4260TIP3    H234272   2.978   2.015  12.924  0.0436  0.0556  0.0388
 4261TIP3   OH234273   4.707   6.480   4.553  0.1246  0.1405  0.0272
 4261TIP3    H134274   4.762   6.444   4.623  1.5634  1.0379 -0.6153
 4261TIP3    H234275   4.649   6.542   4.598  0.7600  0.4131  0.4803
 4262TIP3   OH234276   0.438   4.422   0.528  0.0350 -0.1051 -0.7400
 4262TIP3    H134277   0.379   4.488   0.492 -1.5931 -0.6963  0.7005
 4262TIP3    H234278   0.435   4.350   0.465 -1.2440 -0.3327 -0.4606
 4263TIP3   OH234279   3.049   4.218  12.628  0.4156  0.2327 -0.1226
 4263TIP3    H134280   3.136   4.243  12.656  0.5968 -0.4856 -0.0186
 4263TIP3    H234281   2.990   4.268  12.685  0.7733 -0.7532  1.1688
 4264TIP3   OH234282   6.397   4.469   5.989 -0.1218  0.1248  0.5918
 4264TIP3    H134283   6.401   4.504   6.078 -0.1055 -1.3681  1.2040
 4264TIP3    H234284   6.319   4.413   5.989 -0.6676  0.8344 -0.6249
 4265TIP3   OH234285   3.117   2.013  16.120  0.2933 -0.2494  0.1733
 4265TIP3    H134286   3.093   2.035  16.030  0.3222  0.6944  0.3870
 4265TIP3    H234287   3.212   2.022  16.123  0.2034  0.7706  0.5506
 4266TIP3   OH234288   4.975   5.558  12.276 -0.5297 -0.2374  0.1751
 4266TIP3    H134289   4.986   5.564  12.371  3.3429  0.2684 -0.1188
 4266TIP3    H234290   4.911   5.487  12.263 -0.7983 -0.6532  3.1237
 4267TIP3   OH234291   2.865   6.767  15.191  0.1303 -0.3621  0.0634
 4267TIP3    H134292   2.810   6.699  15.153 -0.4632 -0.1751  0.5928
 4267TIP3    H234293   2.880   6.739  15.281  2.3558 -1.3184 -0.5062
 4268TIP3   OH234294   5.922   6.061   1.994  0.1666 -0.8195 -0.4724
 4268TIP3    H134295   5.975   5.992   1.955 -0.1303 -2.1678  1.3436
 4268TIP3    H234296   5.949   6.063   2.086 -0.0515  1.3112 -0.4016
 4269TIP3   OH234297   0.566   3.713   5.166  0.1634 -0.4198 -0.6999
 4269TIP3    H134298   0.622   3.744   5.236 -0.9967 -0.1667  0.1570
 4269TIP3    H234299   0.505   3.785   5.150 -0.3026 -0.9050 -1.1775
 4270TIP3   OH234300   2.061   4.008  15.657 -0.7605 -0.3430  0.3435
 4270TIP3    H134301   2.082   4.006  15.564  1.4177 -1.3114  0.8065
 4270TIP3    H234302   2.026   3.921  15.676  1.8334 -1.3418  0.9954
 4271TIP3   OH234303   3.787   6.291   2.422  0.3018  0.2197  0.5858
 4271TIP3    H134304   3.716   6.247   2.469 -0.7590 -0.1361 -1.2574
 4271TIP3    H234305   3.751   6.375   2.396  0.2766 -0.2357 -0.9591
 4272TIP3   OH234306   4.860   3.492  14.581  0.3598 -0.5217 -0.2711
 4272TIP3    H134307   4.906   3.535  14.653 -2.0262  0.6417  0.6451
 4272TIP3    H234308   4.877   3.549  14.505  0.3753 -0.0805  0.0601
 4273TIP3   OH234309   1.627   1.350   2.167 -0.3562 -0.3051 -0.4191
 4273TIP3    H134310   1.625   1.255   2.179 -1.7235 -0.1670  0.7012
 4273TIP3    H234311   1.657   1.363   2.077 -1.1137 -1.8317 -0.9175
 4274TIP3   OH234312   0.250   4.561   2.885 -0.7398  0.4587  0.4322
 4274TIP3    H134313   0.304   4.619   2.937 -0.9588 -0.2011  1.4315
 4274TIP3    H234314   0.225   4.491   2.945 -1.6869  0.1049 -0.3389
 4275TIP3   OH234315   0.689   5.030   2.694  0.2380  0.1824 -0.3112
 4275TIP3    H134316   0.667   5.121   2.713 -1.2028 -0.5599  1.9056
 4275TIP3    H234317   0.645   5.011   2.611  1.7449  1.8574 -1.5576
 4276TIP3   OH234318   3.477   6.137   4.598  0.7629 -0.2318 -0.8224
 4276TIP3    H134319   3.567   6.161   4.622  0.0557  0.6423  1.1873
 4276TIP3    H234320   3.447   6.083   4.670 -0.7242  0.5142 -0.8482
 4277TIP3   OH234321   1.809   6.267  13.429  0.5656  0.8197 -0.0300
 4277TIP3    H134322   1.726   6.231  13.463  0.8210 -1.4070 -1.5532
 4277TIP3    H234323   1.876   6.212  13.468  1.0289 -0.0209 -1.9149
 4278TIP3   OH234324   5.664   2.762   0.150 -0.3811 -0.7379  0.2188
 4278TIP3    H134325   5.608   2.766   0.227  0.2349  2.3687  0.6336
 4278TIP3    H234326   5.741   2.713   0.179 -0.4141 -0.1043  1.4536
 4279TIP3   OH234327   0.294   0.533   5.546  0.3034  0.3710 -0.3012
 4279TIP3    H134328   0.369   0.579   5.583  0.0032  0.7882 -0.2146
 4279TIP3    H234329   0.314   0.440   5.559  0.1921  0.5030  0.9248
 4280TIP3   OH234330   5.607   5.934  12.588  0.3547  0.0126  0.2845
 4280TIP3    H134331   5.648   6.019  12.569  1.3456 -0.4317  0.3342
 4280TIP3    H234332   5.681   5.877  12.610 -0.2840 -0.8966  0.1162
 4281TIP3   OH234333   6.367   0.248  14.787 -0.1207  0.1261 -0.3152
 4281TIP3    H134334   6.435   0.204  14.839 -1.7717 -0.4165  1.4984
 4281TIP3    H234335   6.325   0.178  14.738 -0.6523  0.1319  0.1176
 4282TIP3   OH234336   6.609   5.949   1.424 -0.3258 -0.3401 -0.6339
 4282TIP3    H134337   6.697   5.986   1.415 -0.8381  0.9655 -0.5705
 4282TIP3    H234338   6.550   6.024   1.412 -1.4453 -1.2371 -0.9682
 4283TIP3   OH234339   0.500   0.199  13.995 -0.3211  0.4254  0.2235
 4283TIP3    H134340   0.535   0.207  14.083  1.8171 -0.7456 -0.4617
 4283TIP3    H234341   0.481   0.106  13.985  0.5588  0.3562 -0.9299
 4284TIP3   OH234342   3.663   3.533  12.217  0.0494 -0.3127  0.1940
 4284TIP3    H134343   3.571   3.521  12.241 -0.3407  0.3712 -0.8597
 4284TIP3    H234344   3.673   3.628  12.209  0.8913 -0.3744  0.4662
 4285TIP3   OH234345   4.535   6.590  12.587 -0.2858 -0.3610 -0.2061
 4285TIP3    H134346   4.440   6.577  12.588 -0.4402  0.6118 -0.8011
 4285TIP3    H234347   4.571   6.503  12.605 -1.2933 -0.5175  1.2230
 4286TIP3   OH234348   0.239   0.093   6.506 -0.1664 -0.6127 -0.0211
 4286TIP3    H134349   0.290   0.033   6.452  0.2072  1.3090 -1.9672
 4286TIP3    H234350   0.297   0.116   6.579  0.6325 -0.7276 -0.6075
 4287TIP3   OH234351   4.394   2.595   4.285 -0.6237  0.2999 -0.0880
 4287TIP3    H134352   4.475   2.628   4.324 -0.4191  1.0267 -1.0824
 4287TIP3    H234353   4.324   2.642   4.331 -0.3987  0.8796 -0.3226
 4288TIP3   OH234354   5.633   6.801  14.528 -0.7069 -0.0969  0.6266
 4288TIP3    H134355   5.624   6.719  14.576  1.1232 -1.0116 -0.4753
 4288TIP3    H234356   5.575   6.792  14.453  2.2799 -2.2295 -1.6974
 4289TIP3   OH234357   2.486   6.085   0.222 -0.1133 -0.2699  0.1036
 4289TIP3    H134358   2.502   6.143   0.296 -1.8913 -0.5839  0.7836
 4289TIP3    H234359   2.480   5.998   0.261 -1.1281 -0.4274 -0.3585
 4290TIP3   OH234360   2.680   5.235  14.026  0.2916 -0.2349  0.0527
 4290TIP3    H134361   2.599   5.244  13.975  0.2295  0.8085  0.3223
 4290TIP3    H234362   2.667   5.293  14.101  1.1824 -0.2676  0.2341
 4291TIP3   OH234363   1.061   4.920   4.080 -0.2516 -0.1184 -0.6348
 4291TIP3    H134364   1.098   4.877   4.157  1.3797 -0.1549 -1.3911
 4291TIP3    H234365   1.094   5.010   4.085 -2.4821  0.7248  0.1810
 4292TIP3   OH234366   4.790   6.522   3.983  0.2785 -0.4496  0.5598
 4292TIP3    H134367   4.878   6.490   3.962  0.5713 -0.7120  2.0438
 4292TIP3    H234368   4.733   6.480   3.920  1.4051  1.2311 -1.7242
 4293TIP3   OH234369   4.698   2.408   4.757  0.4426  0.0290  0.1933
 4293TIP3    H134370   4.614   2.437   4.792 -1.1004 -0.5814 -2.7636
 4293TIP3    H234371   4.753   2.486   4.761 -1.0187  1.1100 -0.0294
 4294TIP3   OH234372   2.084   3.204  13.733  0.3093 -0.4943  0.0992
 4294TIP3    H134373   2.102   3.270  13.666 -0.2241 -0.3205  0.1257
 4294TIP3    H234374   2.159   3.211  13.793  1.3816 -1.4428 -1.0621
 4295TIP3   OH234375   1.467   3.682   5.665  0.3834 -0.8492  0.4888
 4295TIP3    H134376   1.537   3.618   5.681  2.2901  0.9292 -0.3657
 4295TIP3    H234377   1.471   3.699   5.571 -2.5617 -2.1088  0.0273
 4296TIP3   OH234378   6.623   5.123  14.622  0.1919 -0.1638  0.2309
 4296TIP3    H134379   6.666   5.181  14.559 -0.5513 -0.1273 -0.2568
 4296TIP3    H234380   6.530   5.144  14.614  0.0803 -0.2251  1.2818
 4297TIP3   OH234381   3.302   2.544   0.087 -0.2776  1.0714 -0.1733
 4297TIP3    H134382   3.248   2.481   0.133  0.8962  0.4493  0.3917
 4297TIP3    H234383   3.328   2.499   0.006  0.8793  0.6531  0.4103
 4298TIP3   OH234384   6.109   0.687  15.060 -0.1256  0.0051 -0.1240
 4298TIP3    H134385   6.119   0.595  15.081 -1.7261  0.0181  0.8942
 4298TIP3    H234386   6.015   0.700  15.052 -0.0103  1.7373  0.7228
 4299TIP3   OH234387   0.349   1.581  15.357 -0.4122 -0.1008 -0.5197
 4299TIP3    H134388   0.322   1.507  15.303  0.7651 -0.2222 -0.9636
 4299TIP3    H234389   0.423   1.620  15.311 -1.1521  1.5234 -0.4285
 4300TIP3   OH234390   1.032   5.753  15.836 -0.5292 -0.0680  0.1728
 4300TIP3    H134391   1.096   5.822  15.853 -1.5246  1.3008 -1.3964
 4300TIP3    H234392   1.008   5.764  15.744 -4.0000  0.3443  1.0098
 4301TIP3   OH234393   0.920   0.542   1.008 -0.0069  0.0836 -0.0410
 4301TIP3    H134394   1.010   0.568   0.993  0.4798 -1.3651  0.1487
 4301TIP3    H234395   0.883   0.532   0.920  0.4841 -0.7809 -0.1605
 4302TIP3   OH234396   3.779   1.149   0.924 -0.0431 -0.3698 -0.2538
 4302TIP3    H134397   3.759   1.103   0.842 -0.8174 -0.1166 -0.2127
 4302TIP3    H234398   3.772   1.242   0.901  1.1136 -0.2599 -0.2341
 4303TIP3   OH234399   4.281   0.261  16.676  0.2060  0.1162 -0.2423
 4303TIP3    H134400   4.198   0.299  16.704  0.4983  0.4762  0.1519
 4303TIP3    H234401   4.326   0.239  16.757 -0.1635 -1.5648 -0.4626
 4304TIP3   OH234402   3.710   2.400  13.651  0.3394 -0.5351  0.2881
 4304TIP3    H134403   3.661   2.446  13.719  0.9132  0.0233  0.3405
 4304TIP3    H234404   3.645   2.346  13.606 -0.5475  0.9903 -0.3386
 4305TIP3   OH234405   4.962   3.119   4.814 -0.1813 -0.0217 -0.0277
 4305TIP3    H134406   4.953   3.182   4.743  1.4030  1.3202  0.8842
 4305TIP3    H234407   5.026   3.056   4.783  1.3722  1.1881  0.5234
 4306TIP3   OH234408   0.991   0.449   4.667  0.2722  0.1219 -0.1387
 4306TIP3    H134409   0.982   0.543   4.659  0.4321  0.3172  1.5445
 4306TIP3    H234410   0.916   0.413   4.621 -0.7071  1.1502  0.5990
 4307TIP3   OH234411   6.000   3.265  13.233 -0.4162  0.6030  0.4240
 4307TIP3    H134412   5.965   3.271  13.321 -2.2113 -2.2403  0.0251
 4307TIP3    H234413   6.086   3.225  13.244 -1.1343 -0.8760  0.8416
 4308TIP3   OH234414   0.258   2.931   0.313 -0.1010 -0.0066  0.2681
 4308TIP3    H134415   0.220   3.018   0.300  0.2794  0.0719 -0.3788
 4308TIP3    H234416   0.326   2.924   0.245  2.1741  0.4915  2.3403
 4309TIP3   OH234417   0.702   6.809  14.970  0.0393  0.1251  0.4085
 4309TIP3    H134418   0.664   6.848  15.049  1.0171  2.3841 -0.1394
 4309TIP3    H234419   0.777   6.759  15.002 -0.1632  0.1783  0.9907
 4310TIP3   OH234420   1.058   5.143  12.322  0.3652 -0.5896 -0.0229
 4310TIP3    H134421   1.012   5.187  12.393 -1.0705 -0.2163 -1.1497
 4310TIP3    H234422   0.989   5.110  12.264  1.4811 -1.3118 -0.9981
 4311TIP3   OH234423   1.238   3.620   5.959 -0.2027  0.1163 -0.1024
 4311TIP3    H134424   1.329   3.610   5.986 -0.1396  3.0876  1.1294
 4311TIP3    H234425   1.187   3.588   6.035 -0.2193 -0.8391 -0.4976
 4312TIP3   OH234426   5.019   4.686  12.446 -0.1504 -0.1591 -0.0952
 4312TIP3    H134427   4.944   4.730  12.488  0.4870  1.7173 -0.8060
 4312TIP3    H234428   4.979   4.622  12.388 -1.1552 -0.2793  0.6903
 4313TIP3   OH234429   0.381   3.808   4.876  0.1486 -0.1736  0.0602
 4313TIP3    H134430   0.385   3.891   4.828  0.0347  0.2753  0.8056
 4313TIP3    H234431   0.363   3.834   4.967  1.6024 -0.9044  0.6020
 4314TIP3   OH234432   5.924   3.390   6.041 -0.3670  0.1557 -0.2762
 4314TIP3    H134433   5.912   3.416   5.950  2.4161 -1.1731 -1.1214
 4314TIP3    H234434   5.862   3.319   6.053 -1.0694  0.6277 -0.9814
 4315TIP3   OH234435   5.856   1.673  15.654  0.1118 -0.3411  0.8802
 4315TIP3    H134436   5.857   1.671  15.750  2.0972 -2.4317  0.8981
 4315TIP3    H234437   5.856   1.581  15.628 -0.9358  0.1692 -1.1834
 4316TIP3   OH234438   0.163   3.736   3.056 -0.2655 -0.1036 -0.0585
 4316TIP3    H134439   0.129   3.825   3.071 -2.2103 -0.4307 -2.0395
 4316TIP3    H234440   0.085   3.683   3.042  0.9180 -1.9481  0.0219
 4317TIP3   OH234441   6.758   2.680  15.511 -0.0389  0.4882 -0.9781
 4317TIP3    H134442   6.844   2.707  15.479  1.0942 -0.3234  1.1585
 4317TIP3    H234443   6.741   2.596  15.467  1.2009 -0.3110 -0.0175
 4318TIP3   OH234444   0.993   2.093   4.185  0.6436  0.0556 -0.5339
 4318TIP3    H134445   0.992   2.044   4.103  0.5372 -0.5588 -0.1740
 4318TIP3    H234446   1.075   2.068   4.227  0.1624 -0.5336  0.0732
 4319TIP3   OH234447   5.082   6.405   4.990 -0.1475  0.4994  0.1889
 4319TIP3    H134448   5.160   6.438   4.945 -0.8285  1.6373 -0.1796
 4319TIP3    H234449   5.009   6.437   4.938 -0.8994 -3.3933 -1.5160
 4320TIP3   OH234450   3.848   4.822   3.985  0.4610 -0.8011 -0.2621
 4320TIP3    H134451   3.797   4.836   4.065 -0.9181  0.0878 -1.2528
 4320TIP3    H234452   3.938   4.844   4.010  0.2645 -1.5833  1.3038
 4321TIP3   OH234453   6.516   6.709   4.660  0.1593 -0.5285 -0.5589
 4321TIP3    H134454   6.551   6.633   4.614 -0.5103 -1.5906  0.6186
 4321TIP3    H234455   6.447   6.743   4.603 -0.1161 -1.3420 -0.7101
 4322TIP3   OH234456   1.523   0.797   5.989 -0.3973  0.4456  0.3379
 4322TIP3    H134457   1.475   0.736   5.933  1.8897  1.5260 -3.1560
 4322TIP3    H234458   1.464   0.871   6.000 -0.9054  0.2429 -0.8177
 4323TIP3   OH234459   2.275   6.094  14.593 -0.3079  0.1290  0.1484
 4323TIP3    H134460   2.343   6.087  14.527  0.9458  0.3113  1.3743
 4323TIP3    H234461   2.263   6.005  14.626 -2.1904 -0.2936 -1.4694
 4324TIP3   OH234462   2.077   1.252   2.594  0.3420 -0.0638  0.3588
 4324TIP3    H134463   2.085   1.341   2.627  1.2079 -0.0868  0.2104
 4324TIP3    H234464   2.065   1.262   2.499 -0.1961 -0.0875  0.4171
 4325TIP3   OH234465   3.398   1.333  13.918 -0.4379  0.5992 -0.0726
 4325TIP3    H134466   3.471   1.344  13.979  1.0990 -0.6056 -1.5941
 4325TIP3    H234467   3.399   1.240  13.895 -0.5875  1.0940 -2.3160
 4326TIP3   OH234468   1.309   2.077  14.133 -0.3521 -0.4825 -0.4679
 4326TIP3    H134469   1.319   2.002  14.192  0.8805 -0.0429 -0.0863
 4326TIP3    H234470   1.215   2.087  14.122 -0.6533 -0.1754  1.9638
 4327TIP3   OH234471   4.475   4.246   0.800 -0.5714 -0.3740  0.4702
 4327TIP3    H134472   4.566   4.223   0.784 -0.0552  0.4324  1.9748
 4327TIP3    H234473   4.435   4.252   0.714  0.9495 -0.1828 -0.2479
 4328TIP3   OH234474   2.934   3.423   4.991  0.4567 -0.4539  0.4304
 4328TIP3    H134475   2.891   3.499   5.031  0.6749  0.4723 -1.0596
 4328TIP3    H234476   2.902   3.349   5.043  0.1815  0.6195  1.8716
 4329TIP3   OH234477   3.958   0.392   3.315  0.0907  0.2225 -0.2052
 4329TIP3    H134478   3.956   0.444   3.236 -0.2164  2.2145  1.0525
 4329TIP3    H234479   4.026   0.326   3.300  0.7717  1.2352 -1.6801
 4330TIP3   OH234480   3.923   6.753   5.091  0.3699  0.2141  0.8013
 4330TIP3    H134481   3.977   6.691   5.042  0.9349  0.4080  1.1679
 4330TIP3    H234482   3.839   6.709   5.102 -0.1501  0.5856 -1.2705
 4331TIP3   OH234483   4.440   4.900  14.669  0.2132  0.9778 -0.1591
 4331TIP3    H134484   4.477   4.817  14.699 -1.4762 -0.5020 -1.8905
 4331TIP3    H234485   4.430   4.952  14.749  1.2319 -0.5115  1.0027
 4332TIP3   OH234486   2.655   6.033   4.248  0.2820 -0.4361  0.3397
 4332TIP3    H134487   2.638   6.128   4.247  1.8049 -0.1385  0.6398
 4332TIP3    H234488   2.576   5.995   4.287  1.0384  1.0424  3.6446
 4333TIP3   OH234489   0.019   0.417  15.569 -0.1282  0.0489  0.2660
 4333TIP3    H134490   0.007   0.500  15.524 -0.7861  0.0727  0.4748
 4333TIP3    H234491  -0.035   0.424  15.648  1.0426  0.0377  1.1069
 4334TIP3   OH234492   0.646   5.654   3.474 -0.3063  0.0561 -0.1206
 4334TIP3    H134493   0.680   5.599   3.404 -0.9534  0.7707 -1.0194
 4334TIP3    H234494   0.640   5.596   3.550 -0.3791 -0.9392 -0.8734
 4335TIP3   OH234495   5.160   3.629   1.989  0.2681  0.0749 -0.6225
 4335TIP3    H134496   5.091   3.570   1.957 -1.3647  1.0853  0.8649
 4335TIP3    H234497   5.184   3.594   2.075  0.0032  0.9956 -0.1687
 4336TIP3   OH234498   3.251   4.410  16.834 -0.4976 -0.0538  0.1764
 4336TIP3    H134499   3.188   4.361  16.887 -0.2634 -0.7713 -0.2048
 4336TIP3    H234500   3.268   4.354  16.758  0.6888  0.0839  0.3285
 4337TIP3   OH234501   0.293   3.796   4.499 -0.5075 -0.4536 -0.8085
 4337TIP3    H134502   0.380   3.827   4.527 -0.7786 -0.4532  0.0805
 4337TIP3    H234503   0.236   3.872   4.507 -1.1857 -1.1168  1.4385
 4338TIP3   OH234504   3.008   6.701   2.296 -0.1571  0.4394 -0.4751
 4338TIP3    H134505   3.082   6.646   2.272 -0.0160  0.3140  0.2309
 4338TIP3    H234506   2.939   6.676   2.236  0.8213  1.6483 -2.2087
 4339TIP3   OH234507   2.541   4.085   2.742  0.1966 -0.5995  0.1284
 4339TIP3    H134508   2.593   4.156   2.706 -0.6574 -0.0351 -0.0085
 4339TIP3    H234509   2.603   4.034   2.795  1.2977 -1.0224 -1.5113
 4340TIP3   OH234510   6.656   3.125   0.885  0.1875 -0.0647  0.2184
 4340TIP3    H134511   6.647   3.061   0.956 -1.2790 -0.0354  0.1035
 4340TIP3    H234512   6.746   3.156   0.891  0.6768 -1.5207  0.8074
 4341TIP3   OH234513   3.975   0.447  13.238  0.1072 -0.2314  0.0076
 4341TIP3    H134514   3.942   0.503  13.308 -1.7347  0.8597 -1.6255
 4341TIP3    H234515   4.024   0.507  13.182  0.5417 -0.8470 -0.2833
 4342TIP3   OH234516   1.495   4.073   4.845  0.1079 -0.1375  0.5579
 4342TIP3    H134517   1.456   3.987   4.830 -0.7776  0.1946  0.9017
 4342TIP3    H234518   1.572   4.074   4.788 -0.4213 -0.7842 -0.1967
 4343TIP3   OH234519   0.498   1.332   0.003  0.2271 -0.2686  0.5142
 4343TIP3    H134520   0.543   1.408  -0.035 -0.2704 -0.8604 -1.3373
 4343TIP3    H234521   0.434   1.370   0.064 -1.0803  0.9456 -1.4954
 4344TIP3   OH234522   4.524   3.851   0.612  0.0360  0.1979  0.0231
 4344TIP3    H134523   4.593   3.801   0.656  0.0995  0.4205  0.1790
 4344TIP3    H234524   4.467   3.785   0.573 -1.1978 -0.1083  2.1695
 4345TIP3   OH234525   2.714   6.209  15.746  0.1562 -0.4606 -0.0252
 4345TIP3    H134526   2.712   6.162  15.830 -0.4428  0.8249  0.7169
 4345TIP3    H234527   2.768   6.287  15.763 -0.3198  0.0341 -0.7013
 4346TIP3   OH234528   4.940   2.614  17.070  0.1556  0.7098  0.4935
 4346TIP3    H134529   4.910   2.703  17.049  0.7221  0.3780 -2.0052
 4346TIP3    H234530   5.035   2.620  17.074  0.1717  0.3041  0.8395
 4347TIP3   OH234531   0.294   3.567   2.644 -0.0930 -0.2462  0.5696
 4347TIP3    H134532   0.296   3.652   2.688 -2.2823 -0.6128  1.5129
 4347TIP3    H234533   0.247   3.583   2.562 -0.2497 -0.4728  0.6129
 4348TIP3   OH234534   6.581   1.149   2.101  0.0760  0.3817 -0.3930
 4348TIP3    H134535   6.518   1.184   2.164  1.1811  0.8368  0.4724
 4348TIP3    H234536   6.576   1.054   2.112  1.1263  0.4814  1.2768
 4349TIP3   OH234537   6.004   4.556   6.214  0.0248 -0.0804  0.0474
 4349TIP3    H134538   5.973   4.612   6.286 -1.5531 -1.4166  0.4543
 4349TIP3    H234539   6.099   4.554   6.226  0.0090  1.4755  0.7729
 4350TIP3   OH234540   6.353   2.816   5.271 -0.0402 -0.0809  0.0622
 4350TIP3    H134541   6.385   2.903   5.244 -0.2496 -0.1226 -0.3275
 4350TIP3    H234542   6.277   2.835   5.326  1.4732  0.0800  2.2269
 4351TIP3   OH234543   0.727   0.939  10.537  0.6096 -0.5528 -0.1621
 4351TIP3    H134544   0.728   1.033  10.521 -0.7274 -0.5931 -0.6118
 4351TIP3    H234545   0.740   0.931  10.632  2.5772 -0.0353 -0.3427
 4352TIP3   OH234546   2.593   3.014   2.877 -0.2714  0.0936  1.1690
 4352TIP3    H134547   2.676   2.980   2.911  0.3167 -1.7583 -1.7357
 4352TIP3    H234548   2.536   2.937   2.873 -0.2498  0.0987 -1.8818
 4353TIP3   OH234549   5.443   3.066   3.711 -0.2370  0.3585  0.2933
 4353TIP3    H134550   5.453   2.986   3.659  0.5922 -0.1709  1.2101
 4353TIP3    H234551   5.531   3.083   3.745 -0.6071  1.0962  0.9177
 4354TIP3   OH234552   0.195   5.336  15.919  0.4055 -0.3107 -0.1882
 4354TIP3    H134553   0.239   5.418  15.943 -0.4766  0.2111 -0.3413
 4354TIP3    H234554   0.261   5.269  15.937  1.2623  0.4466 -0.3642
 4355TIP3   OH234555   3.146   2.072  15.006 -0.3223  0.5252  0.6069
 4355TIP3    H134556   3.218   2.042  14.950 -0.5658 -0.2192  0.6707
 4355TIP3    H234557   3.076   2.008  14.990 -1.0256  1.3317  0.4248
 4356TIP3   OH234558   1.026   2.065   6.056  0.2701  0.0471  0.6055
 4356TIP3    H134559   1.089   1.993   6.062 -0.8907 -0.8863  2.1935
 4356TIP3    H234560   1.041   2.101   5.968  2.2466 -0.8246  0.5134
 4357TIP3   OH234561   5.612   2.355   1.638  0.0966  0.3201  0.2193
 4357TIP3    H134562   5.557   2.429   1.664  0.1009  0.6781 -0.7680
 4357TIP3    H234563   5.549   2.285   1.618  0.0903  0.0698  1.0774
 4358TIP3   OH234564   4.773   0.754  15.700  0.3729  0.0460  0.2486
 4358TIP3    H134565   4.707   0.685  15.704  0.5271 -0.0617  2.9802
 4358TIP3    H234566   4.728   0.828  15.660 -0.7580 -0.6442  0.2063
 4359TIP3   OH234567   2.318   4.951   3.542  0.6320  0.4737 -0.4853
 4359TIP3    H134568   2.289   4.873   3.494 -0.9018  0.2261  0.7419
 4359TIP3    H234569   2.362   5.005   3.477  2.8778 -1.9428 -1.1264
 4360TIP3   OH234570   3.391   0.213   5.271  0.4206 -0.4152 -0.3960
 4360TIP3    H134571   3.401   0.303   5.302  0.6743 -0.1142 -1.3210
 4360TIP3    H234572   3.478   0.188   5.241  0.1522 -0.6334 -1.0107
 4361TIP3   OH234573   4.534   6.552   0.767 -0.3872 -0.2803 -0.2785
 4361TIP3    H134574   4.586   6.602   0.704 -0.2628 -0.7450 -0.5467
 4361TIP3    H234575   4.537   6.462   0.734 -0.7785 -0.4275  0.0905
 4362TIP3   OH234576   4.632   3.101  13.777  0.2707 -0.6061  0.1809
 4362TIP3    H134577   4.613   3.063  13.691 -1.4931  0.0154  0.2370
 4362TIP3    H234578   4.718   3.142  13.768 -0.5742  0.8662 -1.8197
 4363TIP3   OH234579   5.007   1.928   2.799  0.4833 -0.0377 -0.1393
 4363TIP3    H134580   4.993   1.845   2.845 -1.2374  0.5205  0.4215
 4363TIP3    H234581   5.044   1.902   2.714 -1.3187 -1.5267 -0.5488
 4364TIP3   OH234582   1.149   3.240  14.521  0.0302  0.1606 -0.0549
 4364TIP3    H134583   1.162   3.324  14.566 -0.2846  0.4668 -0.5316
 4364TIP3    H234584   1.096   3.261  14.445  1.1187 -0.2487 -0.9520
 4365TIP3   OH234585   1.178   3.130   6.431  0.1228  0.7924 -0.0040
 4365TIP3    H134586   1.178   3.226   6.427  0.7168  0.9559  2.5310
 4365TIP3    H234587   1.266   3.107   6.459 -0.6691 -0.3252  1.6808
 4366TIP3   OH234588   4.836   3.519  11.433  0.1194  0.3946 -0.8275
 4366TIP3    H134589   4.843   3.575  11.356 -1.4525 -0.1602 -1.4123
 4366TIP3    H234590   4.792   3.440  11.402  2.3934 -1.2707 -0.0528
 4367TIP3   OH234591   3.212   0.869  12.708  0.4921  0.0439  0.6440
 4367TIP3    H134592   3.263   0.903  12.781  0.8897 -2.6129  1.6954
 4367TIP3    H234593   3.269   0.804  12.667 -0.6198 -0.1954 -0.6041
 4368TIP3   OH234594   3.680   0.061  16.133 -0.1634 -0.4404 -0.6318
 4368TIP3    H134595   3.628   0.140  16.148  1.4042  0.7136 -1.0753
 4368TIP3    H234596   3.714   0.071  16.044 -0.2027 -1.7777 -0.8112
 4369TIP3   OH234597   1.458   5.389  15.449 -0.5065 -0.3530  0.7702
 4369TIP3    H134598   1.510   5.387  15.369  0.4821  0.0630  1.3900
 4369TIP3    H234599   1.370   5.414  15.419  0.0980  0.8854 -0.0531
 4370TIP3   OH234600   2.292   5.754   1.344 -0.3058 -0.3581  0.0861
 4370TIP3    H134601   2.362   5.781   1.285 -0.8741  1.3538  0.1407
 4370TIP3    H234602   2.292   5.819   1.413 -2.0869 -0.1775 -0.0352
 4371TIP3   OH234603   3.948   3.740   4.077 -0.1440 -0.5784  0.4833
 4371TIP3    H134604   3.999   3.716   3.999 -0.7327 -0.2601 -0.0117
 4371TIP3    H234605   3.939   3.659   4.126 -0.6400 -1.0078 -0.2966
 4372TIP3   OH234606   2.876   3.187  12.404 -0.6843  0.5844 -0.3549
 4372TIP3    H134607   2.916   3.227  12.482  2.1144  0.9461 -1.8336
 4372TIP3    H234608   2.886   3.093  12.418  0.0514  0.6542 -0.3740
 4373TIP3   OH234609   0.057   5.843  12.214 -0.1481 -0.2095 -0.5599
 4373TIP3    H134610   0.084   5.900  12.287 -0.0709  0.5648 -1.1832
 4373TIP3    H234611  -0.038   5.845  12.215 -0.2120 -1.6830  0.6550
 4374TIP3   OH234612   2.197   3.420   3.798 -0.4535  0.0120  0.9726
 4374TIP3    H134613   2.287   3.447   3.782 -0.3923  0.2016  1.5866
 4374TIP3    H234614   2.165   3.482   3.864 -2.0701  1.9861 -1.4584
 4375TIP3   OH234615   6.435   0.146  16.169 -0.3240 -0.4210 -0.0300
 4375TIP3    H134616   6.390   0.071  16.129 -1.3429  0.2537 -0.2076
 4375TIP3    H234617   6.455   0.117  16.258  0.0568 -1.1916 -0.3536
 4376TIP3   OH234618   3.424   2.904  15.260 -0.5756  0.4898 -0.4045
 4376TIP3    H134619   3.428   2.878  15.169 -0.5516  1.1657 -0.6010
 4376TIP3    H234620   3.493   2.969  15.271 -0.2562  0.0605  0.2158
 4377TIP3   OH234621   3.102   5.795   5.552 -0.4830 -0.1212 -0.7012
 4377TIP3    H134622   3.142   5.709   5.535 -0.3114 -0.0418 -0.7005
 4377TIP3    H234623   3.040   5.807   5.480 -1.9853 -1.1381  0.3608
 4378TIP3   OH234624   3.910   3.857   3.485 -0.0132  0.0611 -0.0161
 4378TIP3    H134625   3.885   3.845   3.576  2.7793  0.5373  0.9207
 4378TIP3    H234626   3.901   3.770   3.446 -0.7962 -0.2486  0.8213
 4379TIP3   OH234627   6.159   5.172  12.512  0.0503  0.3187 -0.3553
 4379TIP3    H134628   6.252   5.155  12.498  0.0320  1.0728 -1.5338
 4379TIP3    H234629   6.147   5.263  12.485 -1.0679  0.1745 -0.4079
 4380TIP3   OH234630   2.573   0.934  11.360  0.0811  0.1647 -0.0234
 4380TIP3    H134631   2.513   0.873  11.403  1.2018 -1.3235 -0.4948
 4380TIP3    H234632   2.639   0.879  11.319  0.9419  1.6915 -0.8035
 4381TIP3   OH234633   4.182   2.502   3.407  0.1004 -0.1862  0.3241
 4381TIP3    H134634   4.145   2.551   3.481  0.0315 -0.5824  0.5511
 4381TIP3    H234635   4.131   2.422   3.403 -0.2376  0.0555 -0.4800
 4382TIP3   OH234636   3.019   3.568   6.322  0.5321 -0.1402 -0.6360
 4382TIP3    H134637   2.946   3.629   6.329  1.0745  0.4038  0.5535
 4382TIP3    H234638   2.999   3.499   6.386  0.9531 -0.0913 -0.4463
 4383TIP3   OH234639   1.974   1.460   4.678  0.1680  0.0037  0.3737
 4383TIP3    H134640   2.044   1.519   4.705  0.5283 -0.7977  1.2492
 4383TIP3    H234641   2.015   1.399   4.617  0.0118  0.1054  0.1664
 4384TIP3   OH234642   3.449   1.072   4.976  0.1916 -0.0389 -0.1138
 4384TIP3    H134643   3.370   1.062   4.922 -0.6152  0.8211  0.8399
 4384TIP3    H234644   3.510   1.008   4.942 -1.3965 -1.6655 -0.0717
 4385TIP3   OH234645   0.209   2.674   1.605 -0.3656 -0.2175 -0.4870
 4385TIP3    H134646   0.262   2.654   1.682 -1.5886 -0.5820  0.2995
 4385TIP3    H234647   0.228   2.602   1.544 -0.2902 -0.5889 -0.0348
 4386TIP3   OH234648   2.446   3.033  11.782 -0.1496  0.7364 -0.1233
 4386TIP3    H134649   2.516   2.971  11.802 -0.9905 -0.3464 -0.4003
 4386TIP3    H234650   2.470   3.069  11.696 -0.2597 -0.1435 -0.5402
 4387TIP3   OH234651   4.903   6.011   4.256 -0.1155 -0.9042 -0.2284
 4387TIP3    H134652   4.947   6.017   4.172 -0.6997  1.2663 -0.4498
 4387TIP3    H234653   4.900   6.102   4.288 -3.3129 -1.0948  0.3126
 4388TIP3   OH234654   3.487   3.587  11.781  0.5438 -0.1310  0.4910
 4388TIP3    H134655   3.401   3.626  11.768  1.3951  1.4806 -0.7775
 4388TIP3    H234656   3.470   3.494  11.793 -1.4608  0.3508  1.8777
 4389TIP3   OH234657   4.996   6.443  14.684  0.2321 -0.7357  0.2636
 4389TIP3    H134658   5.068   6.384  14.660 -1.2681 -2.0834 -1.1013
 4389TIP3    H234659   4.950   6.398  14.755  0.7320  0.1765  1.2077
 4390TIP3   OH234660   4.741   6.443  12.945 -0.4620  0.3938  0.1649
 4390TIP3    H134661   4.783   6.363  12.975  0.0239  0.9631  1.0609
 4390TIP3    H234662   4.717   6.489  13.026  1.5325  2.3198 -0.2256
 4391TIP3   OH234663   1.589   5.767  13.667 -0.1971 -0.1036 -0.5418
 4391TIP3    H134664   1.600   5.844  13.723 -1.7350 -1.0825  1.2204
 4391TIP3    H234665   1.678   5.744  13.640  0.2644  2.5885 -1.6355
 4392TIP3   OH234666   6.685   3.276   1.545 -0.7831  0.5912  0.5196
 4392TIP3    H134667   6.607   3.220   1.540 -0.4540  0.1496  0.2792
 4392TIP3    H234668   6.722   3.273   1.456  0.0814 -0.0415  0.8837
 4393TIP3   OH234669   5.620   2.088  14.948 -0.1982  0.0708 -0.1632
 4393TIP3    H134670   5.526   2.069  14.957  0.0617 -0.6739  1.4728
 4393TIP3    H234671   5.626   2.182  14.962 -0.5959 -0.0714  1.1214
 4394TIP3   OH234672   3.378   5.881  13.524  0.3314 -0.0407 -0.0477
 4394TIP3    H134673   3.304   5.875  13.464 -0.9761  0.1569  1.4883
 4394TIP3    H234674   3.382   5.974  13.549  0.4859 -0.2183  0.6166
 4395TIP3   OH234675   1.720   0.758   1.326 -0.0810 -0.2404 -0.6997
 4395TIP3    H134676   1.720   0.667   1.297  0.9020 -0.4185 -0.1812
 4395TIP3    H234677   1.656   0.760   1.397 -1.5908 -0.0666 -2.0220
 4396TIP3   OH234678   0.334   6.609   0.739  0.3962 -0.2587  0.1277
 4396TIP3    H134679   0.426   6.597   0.714  0.3268  0.2157 -0.3919
 4396TIP3    H234680   0.289   6.629   0.656 -0.2066 -0.6535  0.3501
 4397TIP3   OH234681   0.354   5.348  16.293  0.0367  0.5744  0.1959
 4397TIP3    H134682   0.373   5.401  16.216  1.3646 -1.5250 -1.0352
 4397TIP3    H234683   0.435   5.351  16.345  1.0502 -1.9172 -1.0348
 4398TIP3   OH234684   1.155   3.812   3.289  0.3924 -0.1840  0.0565
 4398TIP3    H134685   1.106   3.880   3.335  1.6579  1.0184 -0.3137
 4398TIP3    H234686   1.099   3.789   3.215 -0.8598 -0.8777  1.1609
 4399TIP3   OH234687   5.061   6.627  13.612 -0.3936 -0.2352  1.2278
 4399TIP3    H134688   5.090   6.614  13.521 -0.0195 -0.0078  1.3078
 4399TIP3    H234689   4.998   6.557  13.628 -0.4127 -0.3172  0.8127
 4400TIP3   OH234690   0.067   3.668   3.343 -0.5836  0.1594  0.1496
 4400TIP3    H134691   0.050   3.720   3.264  0.6359 -0.0279 -0.2468
 4400TIP3    H234692   0.151   3.700   3.376 -0.9507  0.0509  1.2370
 4401TIP3   OH234693   1.406   2.652  12.842 -0.4605  0.1555 -0.1646
 4401TIP3    H134694   1.495   2.665  12.873 -1.0699  1.4891  1.1456
 4401TIP3    H234695   1.374   2.577  12.892 -0.0242 -0.4729 -0.8051
 4402TIP3   OH234696   3.542   5.056  14.240 -0.3115  0.4043 -0.2298
 4402TIP3    H134697   3.518   5.012  14.322 -0.4983  0.1765 -0.4045
 4402TIP3    H234698   3.458   5.083  14.202 -0.1688  1.4308  0.1549
 4403TIP3   OH234699   3.868   2.144  12.599  0.2265 -0.2641 -0.3200
 4403TIP3    H134700   3.833   2.055  12.607 -2.4630  0.7874  0.5982
 4403TIP3    H234701   3.916   2.159  12.680 -0.2609 -0.4960  0.0127
 4404TIP3   OH234702   5.528   1.057  11.409 -0.1245 -0.6546 -0.0112
 4404TIP3    H134703   5.597   1.065  11.475 -0.2586  1.2392 -0.0323
 4404TIP3    H234704   5.544   1.131  11.350 -1.5424 -0.8136 -0.6324
 4405TIP3   OH234705   6.230   3.683  10.540  0.1369 -0.2071 -0.0139
 4405TIP3    H134706   6.205   3.773  10.560  1.8633  0.3669 -0.2202
 4405TIP3    H234707   6.276   3.689  10.456 -0.5824 -1.4472 -0.5234
 4406TIP3   OH234708   5.529   1.427   3.171 -0.6067 -0.2320 -0.2793
 4406TIP3    H134709   5.467   1.498   3.190  0.4319  0.6745 -0.2067
 4406TIP3    H234710   5.537   1.379   3.254 -1.5831 -0.6858 -0.4217
 4407TIP3   OH234711   1.079   6.389   5.720 -0.2870 -0.5528 -0.0545
 4407TIP3    H134712   1.151   6.414   5.663 -0.6625 -1.3131 -0.8782
 4407TIP3    H234713   1.024   6.332   5.666 -0.0877 -2.1861  1.3844
 4408TIP3   OH234714   6.021   2.769   3.371 -0.3512  0.0803 -0.4946
 4408TIP3    H134715   5.933   2.802   3.390 -0.4177  0.8968 -2.0496
 4408TIP3    H234716   6.066   2.843   3.331  1.1767 -0.2215  0.5594
 4409TIP3   OH234717   4.849   0.382  12.487  0.3156  0.0383  0.3582
 4409TIP3    H134718   4.943   0.395  12.472  0.3384  0.5987  0.9522
 4409TIP3    H234719   4.810   0.467  12.464 -0.0284 -0.1373  0.2894
 4410TIP3   OH234720   4.018   4.375  11.181  0.3921  0.2419 -0.4688
 4410TIP3    H134721   4.084   4.319  11.139 -0.5222 -0.5739 -0.8399
 4410TIP3    H234722   4.009   4.339  11.269  0.2914  0.2337 -0.4835
 4411TIP3   OH234723   1.354   1.057  15.837  0.4711 -0.4910  0.3355
 4411TIP3    H134724   1.371   1.089  15.748  2.1978 -0.8593  0.5128
 4411TIP3    H234725   1.270   1.011  15.830 -0.0937  0.6426 -0.7862
 4412TIP3   OH234726   6.264   2.710   4.745  0.1308 -0.2618 -0.7185
 4412TIP3    H134727   6.318   2.714   4.666  2.5468 -0.1661  0.8336
 4412TIP3    H234728   6.245   2.617   4.756 -0.1654 -0.2830 -1.3580
 4413TIP3   OH234729   4.151   0.826  12.551  0.5820  0.3540  0.2491
 4413TIP3    H134730   4.244   0.847  12.540  0.3326  0.4899 -2.2423
 4413TIP3    H234731   4.119   0.892  12.613  2.0613  0.4932  0.9159
 4414TIP3   OH234732   4.503   0.286   1.461 -0.6715  0.0807  0.1712
 4414TIP3    H134733   4.562   0.215   1.487 -0.2308  0.6517  0.7568
 4414TIP3    H234734   4.423   0.241   1.433 -0.2187 -0.6690  0.0510
 4415TIP3   OH234735   0.322   6.651   6.049  0.3580 -0.5540 -0.2121
 4415TIP3    H134736   0.254   6.586   6.069  0.3732 -0.8698 -1.1090
 4415TIP3    H234737   0.375   6.609   5.981  0.6737  0.2049 -0.4440
 4416TIP3   OH234738   0.520   6.322   1.056  0.6566 -0.7565  0.4357
 4416TIP3    H134739   0.612   6.341   1.041  0.4009  1.0778  0.9535
 4416TIP3    H234740   0.518   6.279   1.141  1.0287 -0.8430  0.4029
 4417TIP3   OH234741   5.150   5.137   3.539 -0.3484  0.2486  0.0330
 4417TIP3    H134742   5.129   5.092   3.620 -0.4761  0.4200  0.0944
 4417TIP3    H234743   5.220   5.084   3.500  0.2993  0.6296  0.6637
 4418TIP3   OH234744   5.536   3.607   0.596 -0.1372  0.2100  0.3290
 4418TIP3    H134745   5.524   3.548   0.671  0.1030 -1.0391 -0.5675
 4418TIP3    H234746   5.451   3.649   0.585 -0.1729  0.4254  1.3068
 4419TIP3   OH234747   0.908   4.466  14.356 -0.2603 -0.6176  0.7324
 4419TIP3    H134748   0.958   4.506  14.285 -0.1609 -2.4063 -0.2329
 4419TIP3    H234749   0.846   4.534  14.382  0.6649  0.5763 -0.0552
 4420TIP3   OH234750   3.060   5.494   0.082 -0.3592 -0.6098 -0.2958
 4420TIP3    H134751   3.032   5.542   0.161 -0.6200  1.2539 -1.4470
 4420TIP3    H234752   3.033   5.404   0.098  0.2806 -0.4706  2.0650
 4421TIP3   OH234753   1.228   1.304  16.172  0.1709  0.5942 -0.1841
 4421TIP3    H134754   1.144   1.296  16.216  0.0507 -0.6619 -0.5744
 4421TIP3    H234755   1.291   1.320  16.242 -0.1519 -0.3619  0.3530
 4422TIP3   OH234756   3.496   2.750   6.098  0.4276 -0.1871 -0.5097
 4422TIP3    H134757   3.568   2.771   6.157 -1.2257  1.2873  1.1162
 4422TIP3    H234758   3.480   2.656   6.111  2.1744 -0.6089 -1.1288
 4423TIP3   OH234759   4.667   6.696  16.597  0.0985  0.2964 -0.0483
 4423TIP3    H134760   4.701   6.784  16.608  0.7679  0.1303 -0.7258
 4423TIP3    H234761   4.745   6.641  16.584 -0.2947 -0.4222  0.5359
 4424TIP3   OH234762   2.058   0.841   5.239 -0.1564 -0.8937  0.0356
 4424TIP3    H134763   2.061   0.927   5.280 -0.4202 -1.5776  1.5633
 4424TIP3    H234764   2.149   0.811   5.241  0.1279 -0.2226 -1.5205
 4425TIP3   OH234765   1.584   2.468   4.158  0.0200  0.2250  0.2762
 4425TIP3    H134766   1.634   2.391   4.130 -0.2773  0.1160  0.0340
 4425TIP3    H234767   1.623   2.541   4.109 -0.1985  0.1052 -0.0836
 4426TIP3   OH234768   1.736   3.782   0.005 -0.1823  0.4143  0.2416
 4426TIP3    H134769   1.740   3.863   0.056 -2.6212  1.4563 -1.0450
 4426TIP3    H234770   1.679   3.725   0.057 -1.0202  0.7304 -0.3029
 4427TIP3   OH234771   4.477   6.224  13.869 -0.4905  0.1614  0.2721
 4427TIP3    H134772   4.455   6.202  13.959 -0.4899  0.7849  0.4345
 4427TIP3    H234773   4.426   6.163  13.816 -0.6376 -0.0826  0.6911
 4428TIP3   OH234774   1.727   0.977   2.999 -0.1135  0.1377  0.2469
 4428TIP3    H134775   1.767   1.045   2.945 -1.2468  0.4667 -0.1989
 4428TIP3    H234776   1.800   0.921   3.024  0.6266  0.7246 -0.5335
 4429TIP3   OH234777   1.946   3.631  15.456  0.2538 -0.3911 -0.1505
 4429TIP3    H134778   1.993   3.609  15.375 -0.6777  1.0231 -1.1336
 4429TIP3    H234779   1.864   3.583  15.449  0.2098 -0.3371 -0.0075
 4430TIP3   OH234780   2.501   0.336   4.827 -0.8594  0.5992 -0.3898
 4430TIP3    H134781   2.459   0.261   4.784 -0.5826 -0.5048  1.1610
 4430TIP3    H234782   2.429   0.382   4.870 -0.7457 -0.3998  0.9573
 4431TIP3   OH234783   4.770   2.235  14.247  0.3651  0.1198 -0.1659
 4431TIP3    H134784   4.717   2.214  14.324 -2.6438 -1.1405 -2.3663
 4431TIP3    H234785   4.807   2.150  14.219 -0.6251  0.0770 -1.4490
 4432TIP3   OH234786   1.052   4.587   3.452  0.5434  0.0442 -0.8783
 4432TIP3    H134787   0.958   4.572   3.460  0.6267 -0.9607 -1.6745
 4432TIP3    H234788   1.064   4.620   3.363  1.0927 -1.0954 -1.2360
 4433TIP3   OH234789   1.431   4.124  15.194 -0.3279  0.1173 -0.1900
 4433TIP3    H134790   1.479   4.066  15.135 -1.1578 -0.8233  0.0335
 4433TIP3    H234791   1.349   4.077  15.212 -0.3944  0.7070  1.1257
 4434TIP3   OH234792   5.979   4.973   4.960 -0.1717  0.0434 -0.6775
 4434TIP3    H134793   6.052   4.914   4.980  0.9950  1.6691  0.0590
 4434TIP3    H234794   5.909   4.914   4.931  0.9222 -1.7010  0.0023
 4435TIP3   OH234795   4.177   6.449  12.184  0.1241 -0.3583 -0.0834
 4435TIP3    H134796   4.123   6.403  12.249 -1.1044  0.0558 -0.7861
 4435TIP3    H234797   4.255   6.477  12.233 -0.8050  0.0036  1.2257
 4436TIP3   OH234798   3.588   2.933  14.753  0.2669  0.6702 -0.1939
 4436TIP3    H134799   3.607   2.899  14.666 -0.7363  0.3053 -0.2725
 4436TIP3    H234800   3.675   2.947  14.792  0.7196 -0.8151 -0.5986
 4437TIP3   OH234801   1.155   0.602  12.441 -0.1580  0.3312 -0.4182
 4437TIP3    H134802   1.127   0.543  12.510  3.4116 -1.0158  0.0852
 4437TIP3    H234803   1.245   0.626  12.464  0.4051  1.6173 -3.4307
 4438TIP3   OH234804   2.345   1.533  15.901 -0.2743  0.5754  0.0090
 4438TIP3    H134805   2.377   1.601  15.960 -2.5516  2.0146 -0.2744
 4438TIP3    H234806   2.352   1.452  15.951  1.4926  1.1496  0.7682
 4439TIP3   OH234807   1.223   5.527   3.001 -0.5475  0.0645  0.0655
 4439TIP3    H134808   1.255   5.615   3.022  1.5385 -1.0082  1.8723
 4439TIP3    H234809   1.190   5.493   3.085 -2.2381 -0.5629 -0.8074
 4440TIP3   OH234810   6.136   2.653  16.644  0.3352 -1.1572  0.5528
 4440TIP3    H134811   6.162   2.625  16.732  0.0537 -2.7754  0.1570
 4440TIP3    H234812   6.211   2.703  16.612  0.7497 -1.1858  1.4358
 4441TIP3   OH234813   0.622   4.484  11.375  0.2181 -0.1697  0.1957
 4441TIP3    H134814   0.607   4.566  11.422  0.4360 -0.5608  0.9700
 4441TIP3    H234815   0.618   4.417  11.442  1.2169 -0.6865 -0.2282
 4442TIP3   OH234816   0.429   3.265   2.952  0.4521  1.0242  0.2212
 4442TIP3    H134817   0.371   3.341   2.958  0.5634  1.0714  0.7790
 4442TIP3    H234818   0.512   3.297   2.987  1.1883  1.3130 -1.6484
 4443TIP3   OH234819   1.604   1.389  14.593 -0.0447 -0.3686  0.1796
 4443TIP3    H134820   1.610   1.424  14.682  1.0439 -0.1809  0.0423
 4443TIP3    H234821   1.512   1.363  14.584 -0.6297  1.3300  0.7205
 4444TIP3   OH234822   2.783   3.706   5.591 -0.4259 -0.1383 -0.3738
 4444TIP3    H134823   2.856   3.762   5.619 -0.5141  0.2925 -0.9977
 4444TIP3    H234824   2.711   3.731   5.648  0.6509 -2.6612  2.3749
 4445TIP3   OH234825   2.955   5.648   1.783 -0.1997 -0.3722 -0.4651
 4445TIP3    H134826   2.920   5.562   1.806 -0.4605 -0.2083 -0.2312
 4445TIP3    H234827   2.958   5.649   1.688 -0.6729 -0.4531 -0.4811
 4446TIP3   OH234828   2.335   6.392   4.789 -0.1831  0.1118  0.6852
 4446TIP3    H134829   2.283   6.329   4.839  0.6040  0.6615  2.2351
 4446TIP3    H234830   2.426   6.369   4.809  0.1572  0.5115 -0.3198
 4447TIP3   OH234831   3.108   5.554   3.643  0.0537 -0.5923 -0.5910
 4447TIP3    H134832   3.127   5.488   3.710  0.2680 -0.0586 -0.1261
 4447TIP3    H234833   3.018   5.535   3.616 -0.0705 -0.7455 -0.0813
 4448TIP3   OH234834   3.568   5.873   4.744  0.1080  0.4650 -0.1512
 4448TIP3    H134835   3.600   5.928   4.816 -1.5269 -0.3802  1.2977
 4448TIP3    H234836   3.575   5.784   4.776  0.4161 -0.0321 -1.5143
 4449TIP3   OH234837   3.382   5.153   4.606  0.6879  0.1159 -0.2625
 4449TIP3    H134838   3.389   5.240   4.645 -0.3481 -0.1940  0.6800
 4449TIP3    H234839   3.337   5.167   4.523  0.8968  0.5246 -0.3112
 4450TIP3   OH234840   3.505   3.058   1.183 -0.2683 -0.4551  0.6859
 4450TIP3    H134841   3.478   2.972   1.214 -1.1212  0.0632  1.4213
 4450TIP3    H234842   3.534   3.104   1.262 -1.0551  0.3697  0.5121
 4451TIP3   OH234843   2.601   1.448   5.983  0.3853 -0.0826  0.1665
 4451TIP3    H134844   2.517   1.429   6.026 -0.1784  1.7340 -0.0521
 4451TIP3    H234845   2.588   1.533   5.941  2.3165  0.2137  0.0683
 4452TIP3   OH234846   6.150   2.978   2.760 -0.2384  0.3406  0.1307
 4452TIP3    H134847   6.182   2.889   2.777 -0.9225  0.0908  0.1674
 4452TIP3    H234848   6.161   2.990   2.665  1.9926  1.0958  0.4276
 4453TIP3   OH234849   1.721   0.550  16.277 -0.1531 -0.0340  0.1917
 4453TIP3    H134850   1.689   0.638  16.256 -2.7745 -0.9925 -0.2567
 4453TIP3    H234851   1.708   0.542  16.371  1.6450  0.5744  0.5304
 4454TIP3   OH234852   0.938   4.731  11.515  0.5244 -0.2322  0.1336
 4454TIP3    H134853   0.928   4.805  11.455 -1.3258  1.0886  1.9392
 4454TIP3    H234854   0.859   4.733  11.569  1.6788 -1.9110  2.0315
 4455TIP3   OH234855   5.478   0.872  10.922 -0.0632 -0.0249 -0.1997
 4455TIP3    H134856   5.408   0.847  10.862  0.5172 -0.3873 -0.7295
 4455TIP3    H234857   5.556   0.830  10.888  0.5260  0.7964  0.0957
 4456TIP3   OH234858   2.409   2.062   4.844 -0.0666  0.1740  0.2429
 4456TIP3    H134859   2.321   2.098   4.857  0.1543  1.2224 -0.9852
 4456TIP3    H234860   2.465   2.138   4.829  0.5343 -0.6058 -1.7730
 4457TIP3   OH234861   3.285   0.143  14.950  0.7586 -0.2884 -0.3090
 4457TIP3    H134862   3.262   0.223  14.996 -1.0057 -1.4217  0.9229
 4457TIP3    H234863   3.233   0.146  14.869  1.8305  0.4629 -0.9947
 4458TIP3   OH234864   6.694   4.541   1.250  0.5107 -0.4866  0.1952
 4458TIP3    H134865   6.688   4.478   1.178  0.8938 -0.0194 -0.2486
 4458TIP3    H234866   6.784   4.533   1.282  0.2713 -0.8675  0.7877
 4459TIP3   OH234867   0.599   5.211   3.298  0.2579  0.1022 -0.0862
 4459TIP3    H134868   0.670   5.157   3.335 -1.4614 -0.9452  1.8941
 4459TIP3    H234869   0.543   5.232   3.373 -0.6227  2.3846 -1.2931
 4460TIP3   OH234870   2.809   0.188  12.969  0.0948  0.3440  0.2509
 4460TIP3    H134871   2.823   0.143  12.886 -3.5856 -0.3816 -0.1360
 4460TIP3    H234872   2.862   0.139  13.032  1.9264  0.0987 -1.3819
 4461TIP3   OH234873   3.270   2.502   4.345 -0.3279  0.2896  0.7582
 4461TIP3    H134874   3.285   2.594   4.365 -0.3134  0.4504  0.0311
 4461TIP3    H234875   3.357   2.464   4.338 -0.3156  0.4101  0.2178
 4462TIP3   OH234876   0.823   0.160  13.291  0.2431 -0.3815 -0.3256
 4462TIP3    H134877   0.864   0.073  13.300 -0.1208 -0.6044 -0.7562
 4462TIP3    H234878   0.745   0.155  13.345  1.1057  0.2716  1.0368
 4463TIP3   OH234879   1.380   2.592   1.112 -0.3576  0.5408  0.6689
 4463TIP3    H134880   1.348   2.553   1.193  2.2985 -0.1531  1.4858
 4463TIP3    H234881   1.366   2.686   1.122 -1.3591  0.3301  1.2956
 4464TIP3   OH234882   2.569   5.740   1.468 -0.9180 -0.5144 -0.6464
 4464TIP3    H134883   2.548   5.810   1.406  0.0691 -0.0559 -0.4809
 4464TIP3    H234884   2.654   5.765   1.505 -2.2357  0.1359  2.1829
 4465TIP3   OH234885   4.036   4.850   5.184 -0.0606  0.4079  0.4872
 4465TIP3    H134886   3.976   4.807   5.244  1.4836  0.1228  1.8943
 4465TIP3    H234887   4.107   4.882   5.239  1.2112  0.5381 -1.1288
 4466TIP3   OH234888   2.001   6.286  12.179 -0.3851  1.2649 -0.2528
 4466TIP3    H134889   1.954   6.349  12.125 -1.1264  1.5279  0.6827
 4466TIP3    H234890   2.038   6.337  12.251 -0.7721  0.6881  0.3736
 4467TIP3   OH234891   0.138   0.542  12.992  0.8355 -0.1170  0.3572
 4467TIP3    H134892   0.160   0.450  13.009  1.2885  0.4465  3.3434
 4467TIP3    H234893   0.042   0.543  12.989  0.6536 -0.3548  3.3150
 4468TIP3   OH234894   3.796   5.581   1.417  0.2177  0.2239  0.3998
 4468TIP3    H134895   3.770   5.492   1.440  1.9108 -0.4407 -0.0788
 4468TIP3    H234896   3.768   5.634   1.491 -0.4520 -0.7709  0.8813
 4469TIP3   OH234897   3.691   6.185   1.643 -0.4684 -0.2650 -0.3357
 4469TIP3    H134898   3.705   6.276   1.615  0.4864 -0.6368 -1.1570
 4469TIP3    H234899   3.710   6.186   1.736  2.5008 -0.1398 -0.8463
 4470TIP3   OH234900   6.035   4.014  12.948 -0.4907 -0.4801  0.3043
 4470TIP3    H134901   6.097   3.942  12.933 -2.4853 -1.6732 -3.6271
 4470TIP3    H234902   6.071   4.088  12.900 -0.3020  0.0138  1.1851
 4471TIP3   OH234903   2.258   5.292   3.591  0.3145 -0.5682  0.4267
 4471TIP3    H134904   2.322   5.243   3.540  3.0338  0.6672  2.3854
 4471TIP3    H234905   2.211   5.225   3.641 -1.3785 -1.6570 -2.4193
 4472TIP3   OH234906   4.461   3.200   5.852  0.1744  0.0478  0.5322
 4472TIP3    H134907   4.488   3.236   5.767 -0.8035  1.5488  0.8290
 4472TIP3    H234908   4.377   3.241   5.870 -0.6709 -1.8800  1.2622
 4473TIP3   OH234909   0.738   3.827  10.967 -0.4754 -0.3484  0.0257
 4473TIP3    H134910   0.734   3.867  10.881  0.3181  1.6625  0.8708
 4473TIP3    H234911   0.819   3.776  10.966 -0.9152 -1.0630 -0.6743
 4474TIP3   OH234912   5.735   0.301   1.085 -0.2168  0.2900 -0.2270
 4474TIP3    H134913   5.691   0.386   1.091  0.0318  0.3984  0.0795
 4474TIP3    H234914   5.813   0.310   1.140 -0.3475 -0.2367  0.0592
 4475TIP3   OH234915   3.954   0.622   2.694 -0.1810  0.5052 -0.2869
 4475TIP3    H134916   3.916   0.536   2.673 -2.6439  1.2985  0.5178
 4475TIP3    H234917   4.010   0.605   2.770 -0.4345 -0.4396 -0.2920
 4476TIP3   OH234918   1.545   3.462  16.301 -0.2836 -0.5935 -0.1522
 4476TIP3    H134919   1.509   3.550  16.288  1.2844  0.2186  0.6288
 4476TIP3    H234920   1.471   3.403  16.288 -1.1826  0.7743 -1.6186
 4477TIP3   OH234921   4.070   2.022   4.947 -0.0244 -0.2883  0.0654
 4477TIP3    H134922   3.990   2.074   4.951  0.7452  1.0235 -0.8905
 4477TIP3    H234923   4.043   1.940   4.906 -0.8727  0.1711 -0.3279
 4478TIP3   OH234924   0.775   4.308  13.357 -0.1393  0.0911 -0.1109
 4478TIP3    H134925   0.742   4.310  13.447 -0.0194 -2.3125  0.0751
 4478TIP3    H234926   0.726   4.237  13.315 -0.5855  1.5347 -2.1401
 4479TIP3   OH234927   1.332   2.853  13.055 -0.3180  0.1899 -0.7388
 4479TIP3    H134928   1.422   2.827  13.077  0.5405  2.4723 -1.3223
 4479TIP3    H234929   1.278   2.800  13.113  1.4811 -0.0365  0.8473
 4480TIP3   OH234930   2.711   6.001   2.691  0.3096 -0.0667 -0.5095
 4480TIP3    H134931   2.763   5.921   2.697 -0.9099 -0.9595 -1.3210
 4480TIP3    H234932   2.706   6.033   2.781  1.7380 -0.2778 -0.3376
 4481TIP3   OH234933   0.485   5.965  15.734 -0.3375 -0.2445 -0.0077
 4481TIP3    H134934   0.457   6.042  15.683  0.3030  1.4730  2.0758
 4481TIP3    H234935   0.525   5.907  15.669  1.2376  2.1990 -1.4140
 4482TIP3   OH234936   4.849   2.946   3.161  0.2034  0.0728  0.2202
 4482TIP3    H134937   4.773   2.943   3.218 -0.3620 -1.0836 -0.5604
 4482TIP3    H234938   4.859   3.038   3.139 -1.6005  0.1491 -0.4635
 4483TIP3   OH234939   5.559   3.502  14.304 -0.3171 -0.0788 -0.0266
 4483TIP3    H134940   5.602   3.515  14.219  0.9988  2.1839  0.9103
 4483TIP3    H234941   5.468   3.529  14.289  0.0450  0.8676 -0.5925
 4484TIP3   OH234942   6.366   5.393  13.870  0.1121 -0.5025  0.4648
 4484TIP3    H134943   6.282   5.436  13.887  1.3013  1.8891  0.6256
 4484TIP3    H234944   6.375   5.329  13.940 -1.6616 -0.9780  0.3033
 4485TIP3   OH234945   5.631   5.111  10.701 -0.4410  0.0918  0.2256
 4485TIP3    H134946   5.580   5.176  10.653  0.1831 -1.9765 -3.6432
 4485TIP3    H234947   5.721   5.126  10.674 -0.3441 -2.6189 -1.3186
 4486TIP3   OH234948   4.089   1.458  11.888 -0.4455  0.1392 -0.1338
 4486TIP3    H134949   4.141   1.504  11.954  0.4755 -0.5957 -0.3329
 4486TIP3    H234950   4.024   1.522  11.860 -2.4133 -0.1838  3.1599
 4487TIP3   OH234951   4.457   5.393   0.048  0.0521 -0.0427  0.2862
 4487TIP3    H134952   4.424   5.369  -0.039  0.9092  0.4861 -0.1940
 4487TIP3    H234953   4.387   5.445   0.087 -0.4234 -0.4588  0.0040
 4488TIP3   OH234954   2.217   1.360   1.703  0.4467  0.1307  0.2235
 4488TIP3    H134955   2.124   1.341   1.695  0.4186  0.1058  0.6210
 4488TIP3    H234956   2.230   1.384   1.794  0.8696 -0.0936  0.2275
 4489TIP3   OH234957   1.646   0.573   2.616 -0.1260  0.0860  0.1001
 4489TIP3    H134958   1.581   0.503   2.607 -0.3119 -0.2085  3.0029
 4489TIP3    H234959   1.597   0.654   2.601 -1.7116 -0.0129  3.8099
 4490TIP3   OH234960   3.830   1.390  14.643 -0.3837  0.5665  0.1563
 4490TIP3    H134961   3.779   1.433  14.574 -0.6564 -0.6260 -0.4100
 4490TIP3    H234962   3.861   1.462  14.698 -2.3609  1.3640  0.3225
 4491TIP3   OH234963   2.067   1.342   3.691 -0.5890 -0.2002 -0.1115
 4491TIP3    H134964   2.059   1.376   3.602 -3.0193  2.4300  0.9324
 4491TIP3    H234965   2.000   1.274   3.697 -0.8906  0.0915 -0.1286
 4492TIP3   OH234966   4.957   4.847  15.823 -0.2590 -0.4176 -0.3402
 4492TIP3    H134967   5.003   4.873  15.903 -0.0528 -1.0248 -0.2524
 4492TIP3    H234968   5.018   4.868  15.753 -0.1822 -0.4595 -0.2876
 4493TIP3   OH234969   1.400   4.995  12.637  0.4259  0.5155 -0.0408
 4493TIP3    H134970   1.318   5.034  12.669  0.5659  0.8199 -0.0497
 4493TIP3    H234971   1.425   4.934  12.706  2.1653  3.1012  1.8320
 4494TIP3   OH234972   0.851   1.502   3.279 -0.0906 -0.6999 -0.5138
 4494TIP3    H134973   0.790   1.563   3.321 -0.6877 -2.3408  1.1570
 4494TIP3    H234974   0.867   1.540   3.192 -0.7550  1.5680  0.2832
 4495TIP3   OH234975   3.527   6.332  13.068  0.6780 -0.6528 -0.5601
 4495TIP3    H134976   3.518   6.256  13.125 -0.2963 -0.9581 -1.0930
 4495TIP3    H234977   3.437   6.353  13.042  1.0309  0.0081 -1.2864
 4496TIP3   OH234978   3.190   0.391   4.115  0.1572  0.5563 -0.5540
 4496TIP3    H134979   3.275   0.435   4.115  0.3167  0.2510 -0.4330
 4496TIP3    H234980   3.186   0.347   4.030  0.1569  0.4961 -0.5224
 4497TIP3   OH234981   4.512   2.201   3.325  0.4775 -0.6454 -0.1027
 4497TIP3    H134982   4.566   2.174   3.251  0.3472 -0.0694 -0.4115
 4497TIP3    H234983   4.565   2.180   3.402  1.1248 -0.1472 -0.3984
 4498TIP3   OH234984   5.825   3.096   0.264 -0.1867 -0.0158  1.2355
 4498TIP3    H134985   5.907   3.146   0.262 -0.3499  0.2686 -1.3254
 4498TIP3    H234986   5.802   3.093   0.357  0.5275  3.5719  1.6974
 4499TIP3   OH234987   3.004   0.706  17.171  0.1469  0.1125 -0.9402
 4499TIP3    H134988   3.060   0.636  17.206 -0.1823  0.0889 -0.4605
 4499TIP3    H234989   2.989   0.680  17.080  1.3349  0.3764 -1.2353
 4500TIP3   OH234990   5.681   2.456  16.833  0.0520  0.3461 -0.3228
 4500TIP3    H134991   5.704   2.492  16.748  1.1084  1.1742  0.2881
 4500TIP3    H234992   5.660   2.364  16.816  0.1626  0.5216 -1.4721
 4501TIP3   OH234993   4.704   3.431   2.040  0.1840  0.2159  0.3051
 4501TIP3    H134994   4.635   3.374   2.006  1.2368 -2.1966  1.9400
 4501TIP3    H234995   4.703   3.417   2.134  4.4526 -2.0701  0.2853
 4502TIP3   OH234996   0.497   4.005  15.769  0.3637 -0.5005 -0.0901
 4502TIP3    H134997   0.427   3.950  15.805 -1.7021  0.6210 -2.1444
 4502TIP3    H234998   0.533   3.953  15.697  0.4483 -0.3628 -0.1457
 4503TIP3   OH234999   1.259   3.405   5.760 -0.4266  0.1961  0.1015
 4503TIP3    H135000   1.219   3.475   5.811  3.1057  2.8933 -0.4218
 4503TIP3    H235001   1.302   3.450   5.687  0.4212 -2.7666 -1.3810
 4504TIP3   OH235002   0.004   1.811  11.894 -0.5634  0.3643 -0.0166
 4504TIP3    H135003   0.011   1.727  11.941 -0.0245  1.0393  1.1627
 4504TIP3    H235004   0.063   1.801  11.820  3.8261  1.4381  2.9300
 4505TIP3   OH235005   2.349   2.676   4.764  0.0982  0.1260  0.2090
 4505TIP3    H135006   2.334   2.686   4.858 -2.7017  0.8097 -0.2212
 4505TIP3    H235007   2.325   2.585   4.746  1.6150 -0.3137  0.2610
 4506TIP3   OH235008   0.896   6.442  11.612 -0.0476  0.2101  0.8906
 4506TIP3    H135009   0.941   6.376  11.559 -0.7689  0.8317 -0.5591
 4506TIP3    H235010   0.956   6.517  11.613 -0.6722  0.7677 -0.4200
 4507TIP3   OH235011   4.585   0.411  13.246 -0.4122 -0.0115 -0.2689
 4507TIP3    H135012   4.494   0.398  13.220 -1.0175 -2.7126  2.7020
 4507TIP3    H235013   4.581   0.465  13.325 -0.0628 -3.8514  2.6619
 4508TIP3   OH235014   5.194   5.415  12.173  0.5952 -0.2882  0.3348
 4508TIP3    H135015   5.123   5.442  12.230 -1.6655  1.0437 -2.7972
 4508TIP3    H235016   5.240   5.496  12.151  2.0975 -0.9154  1.0466
 4509TIP3   OH235017   2.636   4.111  15.750 -0.3986  0.3884  0.5258
 4509TIP3    H135018   2.576   4.063  15.694  1.1763 -0.3421 -0.6014
 4509TIP3    H235019   2.696   4.045  15.783  1.7516  1.4745 -0.9610
 4510TIP3   OH235020   4.731   0.137  13.231  0.9031 -0.0670 -0.0123
 4510TIP3    H135021   4.670   0.211  13.235 -1.3944 -1.7976 -0.8528
 4510TIP3    H235022   4.755   0.130  13.139  1.8680  0.1634  0.2055
 4511TIP3   OH235023   2.964   3.300   3.915  0.2645  0.1138  0.2089
 4511TIP3    H135024   3.004   3.215   3.898 -3.3040 -1.9891  1.1801
 4511TIP3    H235025   2.976   3.314   4.009  2.3432  1.6620 -0.2192
 4512TIP3   OH235026   3.012   4.545  12.434 -0.5514  0.4626 -0.1982
 4512TIP3    H135027   2.973   4.483  12.373  0.5101  1.3419 -1.8493
 4512TIP3    H235028   2.939   4.580  12.484 -1.3097 -1.1393 -0.1231
 4513TIP3   OH235029   0.708   2.772   1.835  0.6030 -0.1708  0.7758
 4513TIP3    H135030   0.665   2.707   1.891  0.4630  0.5391  1.5214
 4513TIP3    H235031   0.788   2.729   1.806  0.2626 -0.8631  0.8281
 4514TIP3   OH235032   0.053   4.848  12.977  0.0057 -0.4819  0.1437
 4514TIP3    H135033  -0.009   4.781  12.948  0.8522 -1.1395 -0.1736
 4514TIP3    H235034   0.041   4.920  12.915  1.6807 -1.8124 -1.8384
 4515TIP3   OH235035   0.294   6.778  13.998 -0.1617 -0.5087  0.6644
 4515TIP3    H135036   0.275   6.695  13.954 -1.6596  0.1303  0.0143
 4515TIP3    H235037   0.322   6.753  14.086 -0.3920 -1.7169  0.4177
 4516TIP3   OH235038   2.817   0.339  14.528  0.7807  0.0818 -0.1278
 4516TIP3    H135039   2.855   0.308  14.446  2.2780  0.2520  0.4759
 4516TIP3    H235040   2.860   0.423  14.545  1.4307 -0.5298  1.4514
 4517TIP3   OH235041   4.987   1.506   4.407 -0.5113  0.4806  0.5063
 4517TIP3    H135042   4.994   1.507   4.503 -0.7393 -1.2653  0.5781
 4517TIP3    H235043   4.973   1.598   4.383 -1.4488  0.8308  2.2191
 4518TIP3   OH235044   0.817   2.518   3.233 -0.5688 -0.6682  0.8088
 4518TIP3    H135045   0.776   2.478   3.309  0.9079 -2.5786  0.6536
 4518TIP3    H235046   0.835   2.446   3.173 -2.9076  0.8836 -2.0566
 4519TIP3   OH235047   4.659   2.801  14.575 -0.2383  0.0075 -0.4113
 4519TIP3    H135048   4.586   2.741  14.560 -0.2410 -0.1148  0.0804
 4519TIP3    H235049   4.677   2.795  14.669  1.6786 -1.4252 -0.8115
 4520TIP3   OH235050   5.429   3.559   6.299 -0.8958  0.5174  0.2502
 4520TIP3    H135051   5.395   3.471   6.316  0.1166  0.1614  0.5242
 4520TIP3    H235052   5.446   3.561   6.205  1.6607 -0.5926  0.5911
 4521TIP3   OH235053   3.895   2.618   2.602 -0.0950 -0.6523  0.5874
 4521TIP3    H135054   3.941   2.650   2.525  1.3819  0.5495  1.9053
 4521TIP3    H235055   3.857   2.534   2.575 -1.6120  0.7708 -2.1069
 4522TIP3   OH235056   5.027   3.137   6.168  0.0621 -0.0581 -0.4059
 4522TIP3    H135057   4.948   3.116   6.119  0.5430  1.4002 -1.8800
 4522TIP3    H235058   5.089   3.171   6.103  0.2809  3.2055  1.2804
 4523TIP3   OH235059   0.215   5.108   2.385  0.2989  0.2825  0.1223
 4523TIP3    H135060   0.201   5.059   2.466  0.7009 -2.2740 -1.2538
 4523TIP3    H235061   0.135   5.095   2.335  0.0216  1.9109  0.1073
 4524TIP3   OH235062   4.649   1.757  16.359  0.2346 -0.0186 -0.7370
 4524TIP3    H135063   4.616   1.757  16.449 -0.9229  1.0429 -1.1171
 4524TIP3    H235064   4.685   1.670  16.346 -1.6346 -0.9620  0.0465
 4525TIP3   OH235065   3.729   4.402   6.112 -0.4583 -0.0908 -0.1608
 4525TIP3    H135066   3.636   4.387   6.129 -0.4927  1.4695  1.3404
 4525TIP3    H235067   3.769   4.410   6.199  1.0022 -0.2749 -0.7737
 4526TIP3   OH235068   5.477   2.988  11.088 -0.3181 -0.1285 -0.0633
 4526TIP3    H135069   5.499   3.043  11.013  2.7311 -2.3898 -1.0353
 4526TIP3    H235070   5.425   2.917  11.050  0.0469 -0.5484  0.2187
 4527TIP3   OH235071   6.193   1.216  11.256 -0.1253 -0.0968 -0.2521
 4527TIP3    H135072   6.182   1.293  11.200  0.7504 -0.9087 -1.6075
 4527TIP3    H235073   6.177   1.141  11.198 -0.8941 -0.9519  1.0131
 4528TIP3   OH235074   5.650   0.132  15.793  0.0864 -0.3725  0.5047
 4528TIP3    H135075   5.615   0.154  15.879 -0.0292  0.1410  0.3288
 4528TIP3    H235076   5.577   0.146  15.733  0.6157  0.8029  0.1201
 4529TIP3   OH235077   5.495   4.725   1.530  0.1228  0.7200  0.3662
 4529TIP3    H135078   5.499   4.820   1.527  1.3309  0.6634 -0.7724
 4529TIP3    H235079   5.580   4.696   1.495  0.1066 -0.7726  1.4531
 4530TIP3   OH235080   6.743   4.800   4.512  0.0489  0.1221  0.1973
 4530TIP3    H135081   6.798   4.875   4.491 -0.2389  0.0338 -0.9440
 4530TIP3    H235082   6.785   4.759   4.588  1.6774 -0.0678 -0.7650
 4531TIP3   OH235083   1.192   0.235  12.469 -0.1967  0.0080  0.4212
 4531TIP3    H135084   1.177   0.185  12.549 -1.2273 -2.0112 -0.9502
 4531TIP3    H235085   1.134   0.195  12.404 -0.1278  2.2049 -1.1178
 4532TIP3   OH235086   0.138   5.006  15.174 -0.1957 -0.3124  0.2470
 4532TIP3    H135087   0.205   5.067  15.144 -0.2511  0.1537  1.0463
 4532TIP3    H235088   0.177   4.920  15.162 -0.2132 -0.1458 -1.1348
 4533TIP3   OH235089   4.589   2.592  11.934  0.1992  0.3731  0.1468
 4533TIP3    H135090   4.594   2.678  11.891  0.8369  0.3589  0.1714
 4533TIP3    H235091   4.502   2.588  11.972 -0.1857  0.6139 -0.6914
 4534TIP3   OH235092   5.381   5.367  14.406 -0.6498  0.3359  0.1481
 4534TIP3    H135093   5.350   5.318  14.483 -0.4092 -0.6631 -0.3688
 4534TIP3    H235094   5.461   5.409  14.436 -1.3285  1.1548  0.8591
 4535TIP3   OH235095   3.224   1.081   2.138 -0.3487 -0.5464 -0.2891
 4535TIP3    H135096   3.251   1.172   2.153 -1.6676 -0.3381  0.9588
 4535TIP3    H235097   3.214   1.075   2.043 -0.9372  0.8227 -0.3353
 4536TIP3   OH235098   0.633   5.353   4.372 -0.2298 -0.5201  0.0155
 4536TIP3    H135099   0.715   5.308   4.354  0.0217  0.3877 -1.2077
 4536TIP3    H235100   0.616   5.405   4.294 -2.4308 -1.3430 -0.1115
 4537TIP3   OH235101   5.542   2.418   2.693  0.7079  0.2816 -0.2019
 4537TIP3    H135102   5.498   2.423   2.778  1.8177  1.8929  0.3183
 4537TIP3    H235103   5.480   2.461   2.633 -0.0759 -0.8543 -0.2283
 4538TIP3   OH235104   3.387   6.664   3.777 -0.5575  0.4427  0.2264
 4538TIP3    H135105   3.325   6.734   3.757 -1.1585 -0.1618 -0.0727
 4538TIP3    H235106   3.334   6.584   3.777  0.0725  0.0077  0.7902
 4539TIP3   OH235107   0.925   4.772   6.341 -0.2084 -0.5160  0.2262
 4539TIP3    H135108   0.945   4.797   6.431 -0.4352 -1.3955  0.5254
 4539TIP3    H235109   0.964   4.842   6.288  0.9956 -0.6294  0.9394
 4540TIP3   OH235110   3.539   3.058   4.343 -0.4864 -0.2628 -0.5634
 4540TIP3    H135111   3.571   2.968   4.355 -1.8139 -0.7279 -0.3461
 4540TIP3    H235112   3.606   3.113   4.384  1.1341 -1.0192 -2.0620
 4541TIP3   OH235113   3.227   2.914  12.777  0.2937 -0.0857  0.2697
 4541TIP3    H135114   3.184   2.999  12.767  0.4605  0.1889  1.7565
 4541TIP3    H235115   3.193   2.862  12.704 -1.4406  0.5884  0.5523
 4542TIP3   OH235116   6.612   0.716  15.824  0.1411 -0.6032  0.0314
 4542TIP3    H135117   6.609   0.805  15.790 -1.8153 -0.8569 -0.5887
 4542TIP3    H235118   6.644   0.725  15.914 -0.2514  0.7596  0.0490
 4543TIP3   OH235119   0.676   5.620   2.810  0.8112  0.4890  0.0959
 4543TIP3    H135120   0.593   5.574   2.825  1.1562  0.4415  2.1904
 4543TIP3    H235121   0.654   5.689   2.747 -1.4312  1.9448  2.2746
 4544TIP3   OH235122   5.034   5.960   1.675  0.0150 -0.1875  0.0206
 4544TIP3    H135123   4.963   5.973   1.613 -0.6346  0.2887  0.8525
 4544TIP3    H235124   5.079   6.044   1.678  0.5130 -0.4336 -0.3667
 4545TIP3   OH235125   4.326   5.543  12.591  0.0738  0.1563 -0.4737
 4545TIP3    H135126   4.268   5.612  12.557  1.9991  2.5202  0.7369
 4545TIP3    H235127   4.385   5.524  12.519  0.9764  1.4850 -0.1077
 4546TIP3   OH235128   5.468   5.171  15.208 -0.0603 -0.1380 -0.8381
 4546TIP3    H135129   5.480   5.236  15.277 -0.0885 -2.5010  1.5560
 4546TIP3    H235130   5.377   5.141  15.219  0.3689 -1.5532 -0.9139
 4547TIP3   OH235131   2.905   2.781   0.191 -0.1781 -0.2810  0.0502
 4547TIP3    H135132   2.915   2.725   0.268  1.8022  0.9090  0.7390
 4547TIP3    H235133   2.980   2.759   0.135  0.5485  1.5032  0.2622
 4548TIP3   OH235134   1.469   1.986  15.143 -0.3122 -0.0193 -0.4083
 4548TIP3    H135135   1.516   1.970  15.225  2.3218 -0.2290 -1.8508
 4548TIP3    H235136   1.435   2.076  15.152  0.6450  0.2666  0.6039
 4549TIP3   OH235137   4.375   3.173  11.511  0.2893  0.3194 -0.2288
 4549TIP3    H135138   4.302   3.162  11.572  0.7931 -0.6837  0.2121
 4549TIP3    H235139   4.405   3.262  11.526 -0.3309  0.4725  0.1582
 4550TIP3   OH235140   4.610   6.214  15.249 -0.1420  0.4355 -0.1046
 4550TIP3    H135141   4.538   6.268  15.283  0.7407  1.3136  0.4294
 4550TIP3    H235142   4.674   6.213  15.320  0.6486  0.1829 -0.8101
 4551TIP3   OH235143   6.233   0.755  11.978 -0.5860 -0.1150  0.1033
 4551TIP3    H135144   6.283   0.685  11.936  0.5682  1.0904 -0.6140
 4551TIP3    H235145   6.190   0.713  12.053  0.0345 -1.5815 -0.3395
 4552TIP3   OH235146   5.281   1.871  13.384 -0.1226 -0.6488 -0.1073
 4552TIP3    H135147   5.352   1.918  13.341 -0.4312  0.5617  0.6730
 4552TIP3    H235148   5.230   1.834  13.312  0.3312 -0.0994 -0.7213
 4553TIP3   OH235149   5.901   4.172   1.550  0.0147 -0.5989 -0.5766
 4553TIP3    H135150   5.876   4.254   1.591 -0.4620 -1.9013  1.9367
 4553TIP3    H235151   5.957   4.197   1.477  0.0212  1.9192  0.2099
 4554TIP3   OH235152   4.272   2.570   0.063 -0.2584  0.2480  0.3082
 4554TIP3    H135153   4.205   2.508   0.035 -0.5886  0.5654  0.3857
 4554TIP3    H235154   4.324   2.521   0.127  0.2945 -0.3661 -0.6010
 4555TIP3   OH235155   4.715   6.277  14.168 -0.1506  0.0284  0.3576
 4555TIP3    H135156   4.771   6.228  14.108  0.1252  0.5248  0.2028
 4555TIP3    H235157   4.627   6.247  14.148 -0.0860  0.3849 -0.4806
 4556TIP3   OH235158   2.676   5.423  15.961  0.1432  0.2413  0.3148
 4556TIP3    H135159   2.638   5.504  15.995 -1.6403 -0.4458  0.0783
 4556TIP3    H235160   2.653   5.356  16.026 -0.5496 -0.4947 -0.6541
 4557TIP3   OH235161   5.347   6.356  15.183  0.1762  0.3420  0.0274
 4557TIP3    H135162   5.262   6.312  15.186 -0.6500  1.9051  0.3805
 4557TIP3    H235163   5.408   6.292  15.219 -0.5046 -1.4812 -1.8053
 4558TIP3   OH235164   2.529   4.488   1.367  0.1598  0.0024  0.1967
 4558TIP3    H135165   2.511   4.400   1.335 -1.6742  0.8810 -1.3790
 4558TIP3    H235166   2.512   4.482   1.461 -0.1605 -1.2559  0.0834
 4559TIP3   OH235167   1.839   6.293  11.386 -0.1797  0.0830 -0.0836
 4559TIP3    H135168   1.846   6.312  11.480  0.8807 -0.7546  0.0139
 4559TIP3    H235169   1.834   6.380  11.345  2.4138  0.6029  0.5269
 4560TIP3   OH235170   5.896   6.763   4.445  0.8645  0.2447  0.0033
 4560TIP3    H135171   5.822   6.791   4.500 -0.0945  0.1453 -1.2025
 4560TIP3    H235172   5.958   6.835   4.451  1.9454 -0.7717  3.1726
 4561TIP3   OH235173   3.702   0.610  16.155  0.4194  0.0632  0.2140
 4561TIP3    H135174   3.685   0.670  16.228  0.5129 -0.8942  1.0380
 4561TIP3    H235175   3.794   0.625  16.132  0.3001  0.5974  0.0679
 4562TIP3   OH235176   0.833   0.041  16.454  0.2983  0.5258  0.3396
 4562TIP3    H135177   0.813   0.041  16.361 -3.3979  0.9087  1.0072
 4562TIP3    H235178   0.884   0.122  16.467  0.9548  0.4133 -1.3089
 4563TIP3   OH235179   1.109   2.700   2.395  0.2532 -0.3737  0.2914
 4563TIP3    H135180   1.143   2.610   2.397  0.6269 -0.2810 -1.1236
 4563TIP3    H235181   1.180   2.752   2.359 -0.5928  0.1839 -0.6319
 4564TIP3   OH235182   2.436   0.190   2.879 -0.4958 -0.1169 -0.1537
 4564TIP3    H135183   2.389   0.107   2.885 -0.7097 -0.0918 -1.2743
 4564TIP3    H235184   2.514   0.177   2.934 -0.8088 -0.8482  0.1398
 4565TIP3   OH235185   6.373   2.911  17.220 -0.1457 -0.5954  0.2429
 4565TIP3    H135186   6.463   2.930  17.246  0.2202 -0.9696 -0.6783
 4565TIP3    H235187   6.361   2.962  17.139 -0.5846 -0.9392  0.0894
 4566TIP3   OH235188   5.635   4.131  11.906  0.3508  0.3853  0.5600
 4566TIP3    H135189   5.540   4.118  11.907  0.6100 -2.1070  0.1437
 4566TIP3    H235190   5.654   4.178  11.987 -1.1490  0.0855  1.1083
 4567TIP3   OH235191   2.362   0.627  12.480  0.4267 -0.2856 -0.3902
 4567TIP3    H135192   2.389   0.617  12.572  0.3840 -1.1535 -0.4655
 4567TIP3    H235193   2.439   0.663  12.437  0.1456  1.0596  0.1525
 4568TIP3   OH235194   1.203   4.359   1.905 -0.5316  0.1601  0.7167
 4568TIP3    H135195   1.263   4.415   1.956 -0.2458  1.5560 -1.0271
 4568TIP3    H235196   1.197   4.278   1.955  1.8081  0.4612  1.6182
 4569TIP3   OH235197   3.421   5.104   6.446  0.7692 -0.1138  0.4477
 4569TIP3    H135198   3.466   5.035   6.494  0.0242 -1.1197 -0.2527
 4569TIP3    H235199   3.331   5.102   6.480  0.2835 -0.7007 -0.8063
 4570TIP3   OH235200   2.045   1.941   1.252  0.0461  0.1860  0.1015
 4570TIP3    H135201   2.135   1.924   1.282 -0.3266 -2.0177  0.1546
 4570TIP3    H235202   2.053   1.944   1.156  0.3722  1.4997  0.1519
 4571TIP3   OH235203   3.344   6.227   1.284  0.4263  0.4620  0.5224
 4571TIP3    H135204   3.391   6.221   1.367  1.7653 -0.9824 -0.2759
 4571TIP3    H235205   3.373   6.151   1.234 -1.0609  0.7720 -0.9234
 4572TIP3   OH235206   4.796   0.269  14.404  0.4891 -0.4147 -0.0389
 4572TIP3    H135207   4.725   0.320  14.443  0.5106 -0.9422  0.7000
 4572TIP3    H235208   4.860   0.334  14.377 -0.7558  0.1855 -1.7954
 4573TIP3   OH235209   2.962   6.626   3.061  0.2162 -0.0579 -0.0411
 4573TIP3    H135210   2.878   6.658   3.030 -0.0005 -1.5217 -1.0733
 4573TIP3    H235211   2.944   6.539   3.096  1.2872 -0.3980 -0.2754
 4574TIP3   OH235212   6.152   1.202   2.897 -0.6018 -0.3857  0.2768
 4574TIP3    H135213   6.147   1.286   2.944 -3.8829 -0.1843 -0.2060
 4574TIP3    H235214   6.217   1.217   2.828 -1.3183  1.8917  0.0179
 4575TIP3   OH235215   4.289   3.656   5.835  0.0948 -0.4327  0.2306
 4575TIP3    H135216   4.384   3.658   5.826  0.1158 -0.6013  0.3876
 4575TIP3    H235217   4.267   3.736   5.882 -0.1157  0.9307 -2.0728
 4576TIP3   OH235218   5.011   0.987  13.945 -0.4169  0.2891 -0.2274
 4576TIP3    H135219   5.083   1.048  13.961 -1.5962  1.5157  0.7016
 4576TIP3    H235220   4.981   0.962  14.032 -1.2786  0.0261 -0.5851
 4577TIP3   OH235221   0.993   4.182  11.823 -0.2572 -0.4413 -0.1192
 4577TIP3    H135222   0.970   4.133  11.744 -0.0205 -0.5839 -0.1017
 4577TIP3    H235223   1.026   4.266  11.791  0.8588 -0.9043 -0.2290
 4578TIP3   OH235224   3.464   2.709   4.824 -0.0001 -0.1524 -0.7502
 4578TIP3    H135225   3.528   2.754   4.879  0.6857 -2.1649  0.2183
 4578TIP3    H235226   3.391   2.690   4.883  0.4944 -1.8229 -0.6073
 4579TIP3   OH235227   4.368   4.431  15.106  0.0345  0.0942  0.1036
 4579TIP3    H135228   4.440   4.455  15.165 -0.2337  0.2327  0.3762
 4579TIP3    H235229   4.300   4.397  15.164  0.0599 -0.4818 -0.2020
 4580TIP3   OH235230   6.747   2.024   0.730  0.2739  0.1535 -0.0066
 4580TIP3    H135231   6.737   2.055   0.820  0.8935 -0.2733  0.2133
 4580TIP3    H235232   6.826   1.971   0.731 -0.8500 -1.6359 -0.3242
 4581TIP3   OH235233   2.861   5.068   2.246 -0.2796 -0.2272  0.2593
 4581TIP3    H135234   2.903   5.066   2.160  0.4851  0.4808  0.5964
 4581TIP3    H235235   2.905   5.140   2.292 -0.7349 -0.5406  1.2076
 4582TIP3   OH235236   4.330   4.976   2.464  0.4346 -0.1466 -0.1869
 4582TIP3    H135237   4.364   5.065   2.469 -2.3380  1.0728 -0.9697
 4582TIP3    H235238   4.268   4.978   2.391  0.0156 -2.6265  0.0100
 4583TIP3   OH235239   0.899   5.210   2.102  0.5374 -0.1993  0.1143
 4583TIP3    H135240   0.922   5.127   2.061  0.0674 -0.3290  0.1058
 4583TIP3    H235241   0.981   5.259   2.106  0.5779 -0.1669 -1.0062
 4584TIP3   OH235242   3.497   0.699  13.432  0.2256  0.4310  0.1829
 4584TIP3    H135243   3.576   0.648  13.417  0.2849  1.0213 -1.7526
 4584TIP3    H235244   3.428   0.634  13.447  1.0634 -0.0843  2.0906
 4585TIP3   OH235245   0.982   6.238  15.085  0.2085  0.4235  0.1664
 4585TIP3    H135246   1.025   6.320  15.106  2.8907 -0.7423 -0.3406
 4585TIP3    H235247   0.933   6.256  15.004  1.9488  1.1861 -0.7531
 4586TIP3   OH235248   1.074   1.483   1.200 -0.0519  0.0703 -0.4217
 4586TIP3    H135249   0.989   1.504   1.161 -0.3471  0.8163  0.5725
 4586TIP3    H235250   1.129   1.559   1.180  0.1653 -0.0951 -0.4536
 4587TIP3   OH235251   1.827   4.635   1.554  0.0305 -0.0415 -0.1272
 4587TIP3    H135252   1.808   4.615   1.645  0.6161 -2.1883 -0.4128
 4587TIP3    H235253   1.760   4.587   1.505  1.4525 -1.3747 -0.8720
 4588TIP3   OH235254   2.294   2.543   5.443 -0.1637 -0.0302 -0.5100
 4588TIP3    H135255   2.273   2.450   5.430 -2.4505  0.2468  0.7329
 4588TIP3    H235256   2.209   2.586   5.453  0.5841  2.8187 -4.2927
 4589TIP3   OH235257   1.784   6.766  15.653  0.3005 -0.0936 -0.3609
 4589TIP3    H135258   1.755   6.826  15.584 -0.2114  1.3072  1.0169
 4589TIP3    H235259   1.799   6.683  15.607  0.5153  0.9196 -2.2387
 4590TIP3   OH235260   4.061   1.488  15.724  0.0131 -0.2689 -0.2483
 4590TIP3    H135261   4.112   1.418  15.684  0.5182  0.0957 -0.2457
 4590TIP3    H235262   4.097   1.497  15.812 -0.0299  0.0135 -0.2591
 4591TIP3   OH235263   5.332   2.005  14.910 -0.0625  0.1899  0.7521
 4591TIP3    H135264   5.264   1.971  14.969  0.3344  1.8465  2.2366
 4591TIP3    H235265   5.283   2.043  14.837 -0.5452 -2.4019 -0.3932
 4592TIP3   OH235266   2.649   6.799  16.121  0.6322 -0.0431  0.8970
 4592TIP3    H135267   2.555   6.794  16.139  0.5042  1.9116  1.0655
 4592TIP3    H235268   2.664   6.892  16.103  2.3109 -0.5373 -0.4612
 4593TIP3   OH235269   0.050   4.106  16.248 -0.3135  0.1633 -0.3673
 4593TIP3    H135270   0.096   4.167  16.190 -1.1729  1.5559  0.3609
 4593TIP3    H235271   0.117   4.045  16.277  0.4133  0.2727 -1.7327
 4594TIP3   OH235272   5.659   6.693   4.902  0.3048  0.2121  0.0392
 4594TIP3    H135273   5.645   6.781   4.937 -1.0865 -0.2448  0.6865
 4594TIP3    H235274   5.751   6.694   4.872 -0.1935  2.4906 -1.7879
 4595TIP3   OH235275   3.622   6.489   2.300 -0.4537 -0.5930  0.2406
 4595TIP3    H135276   3.541   6.540   2.293  0.1793  0.2855 -1.6585
 4595TIP3    H235277   3.687   6.542   2.252  1.2201 -1.3348  1.5845
 4596TIP3   OH235278   5.851   0.684  15.230  0.5495 -0.5577 -0.4254
 4596TIP3    H135279   5.901   0.695  15.311 -0.5800  1.0092  0.1137
 4596TIP3    H235280   5.867   0.593  15.203  2.1546 -0.6474  0.7183
 4597TIP3   OH235281   2.510   5.921  16.681  0.1868  0.2270 -0.0963
 4597TIP3    H135282   2.466   5.869  16.614  0.2248  0.5792 -0.3936
 4597TIP3    H235283   2.438   5.964  16.729  0.2084  0.9276 -0.6821
 4598TIP3   OH235284   0.368   2.019  16.410 -0.2627  0.2998 -0.0846
 4598TIP3    H135285   0.310   1.948  16.382 -0.5358  0.2289  0.6403
 4598TIP3    H235286   0.365   2.083  16.338 -0.3352 -0.2276 -0.5570
 4599TIP3   OH235287   3.021   1.696  13.289  0.1146 -0.0811  0.3644
 4599TIP3    H135288   3.043   1.782  13.324  0.1209 -0.5717  1.6373
 4599TIP3    H235289   2.945   1.669  13.341  0.5384 -1.1286  0.4484
 4600TIP3   OH235290   4.165   1.752   1.467 -0.5190 -0.1426 -0.1864
 4600TIP3    H135291   4.140   1.664   1.495  1.6802 -1.2358 -1.3133
 4600TIP3    H235292   4.184   1.742   1.373 -0.9272  1.7183 -0.5009
 4601TIP3   OH235293   1.782   2.257  11.345 -0.1270 -0.0464  0.5217
 4601TIP3    H135294   1.832   2.177  11.327 -0.1380  0.3916 -1.7362
 4601TIP3    H235295   1.841   2.328  11.320 -1.2670  0.5166 -0.7446
 4602TIP3   OH235296   1.566   6.083   5.424 -0.1373 -0.4582 -0.3003
 4602TIP3    H135297   1.471   6.070   5.429 -0.0030 -2.1363 -1.2602
 4602TIP3    H235298   1.588   6.129   5.505 -1.5422 -1.7295  0.8779
 4603TIP3   OH235299   6.382   5.553  13.355  0.2776 -0.2034 -0.2754
 4603TIP3    H135300   6.405   5.557  13.448 -0.0000 -0.0945 -0.2106
 4603TIP3    H235301   6.455   5.596  13.311  0.1318  0.2663 -0.0603
 4604TIP3   OH235302   1.506   2.598  11.161 -0.2116  0.2852  0.0817
 4604TIP3    H135303   1.566   2.528  11.138 -0.9749 -0.1617 -0.6227
 4604TIP3    H235304   1.525   2.668  11.099 -1.6206 -0.5576 -1.4057
 4605TIP3   OH235305   2.330   6.016   0.960  0.3715  0.7334  0.1365
 4605TIP3    H135306   2.354   6.014   0.868  1.3534  0.6920  0.3809
 4605TIP3    H235307   2.370   6.097   0.993  3.0188 -0.9383  1.2845
 4606TIP3   OH235308   1.159   0.407   2.140  0.0448  0.0331 -0.6424
 4606TIP3    H135309   1.132   0.492   2.105 -0.4162  0.8585  1.5566
 4606TIP3    H235310   1.084   0.350   2.123 -1.5549  1.2498  1.7286
 4607TIP3   OH235311   3.362   2.225   4.449 -0.4126 -0.1056 -0.0579
 4607TIP3    H135312   3.283   2.268   4.416  0.6788  1.2939 -0.9818
 4607TIP3    H235313   3.392   2.280   4.520  0.2850 -0.0570 -0.3825
 4608TIP3   OH235314   3.725   0.178   1.223 -0.1917  0.3430 -0.5664
 4608TIP3    H135315   3.674   0.118   1.277 -0.0407  0.6581 -0.0687
 4608TIP3    H235316   3.692   0.163   1.134 -0.2653 -0.3609 -0.4303
 4609TIP3   OH235317   1.194   3.035   1.716  0.1357  0.1671  0.0454
 4609TIP3    H135318   1.167   3.094   1.646  0.1587  0.2344  0.0928
 4609TIP3    H235319   1.252   3.088   1.771  2.0861 -0.5419 -1.2111
 4610TIP3   OH235320   5.483   0.811  16.294 -0.1244 -0.4148  0.2001
 4610TIP3    H135321   5.448   0.815  16.205  2.4680 -1.4187 -0.9721
 4610TIP3    H235322   5.524   0.897  16.307  0.4325 -0.6394 -0.0281
 4611TIP3   OH235323   4.871   5.128  16.740  0.0157  0.0623 -0.0182
 4611TIP3    H135324   4.785   5.087  16.749  0.1972 -0.5578 -0.9915
 4611TIP3    H235325   4.925   5.061  16.699  1.3348 -0.0322  1.7438
 4612TIP3   OH235326   1.104   2.386  12.420  0.3018  0.0134  0.0760
 4612TIP3    H135327   1.036   2.408  12.484 -0.8439  0.3953 -1.2187
 4612TIP3    H235328   1.118   2.467  12.371  1.1614 -0.2709 -0.1621
 4613TIP3   OH235329   6.791   2.391   1.989 -0.1218 -0.0065 -0.8111
 4613TIP3    H135330   6.782   2.484   1.970  0.8883  0.0983 -0.8529
 4613TIP3    H235331   6.744   2.379   2.071  0.1779  0.6566 -0.5313
 4614TIP3   OH235332   1.239   6.347  12.245 -0.2448  0.0203  0.0084
 4614TIP3    H135333   1.145   6.333  12.238 -0.3084 -0.2632  1.2182
 4614TIP3    H235334   1.277   6.260  12.234 -0.3946 -0.6107  3.2954
 4615TIP3   OH235335   5.512   6.503  16.235  0.7406 -0.3814  0.5792
 4615TIP3    H135336   5.515   6.581  16.180  1.3186 -0.6783  0.1839
 4615TIP3    H235337   5.588   6.510  16.293  0.8366 -0.6859  0.4928
 4616TIP3   OH235338   3.783   5.350  17.263 -0.1419  0.0507  0.2353
 4616TIP3    H135339   3.780   5.291  17.188 -1.6040  0.6926 -0.2423
 4616TIP3    H235340   3.754   5.296  17.337 -1.7132  0.1797 -0.2417
 4617TIP3   OH235341   2.683   6.045  14.221  0.2044  0.1119  0.0794
 4617TIP3    H135342   2.708   6.088  14.302  0.6000 -0.7364  0.4175
 4617TIP3    H235343   2.621   5.977  14.247  0.2202 -0.0728 -0.3465
 4618TIP3   OH235344   4.997   1.714  13.878  0.1022  0.5048  0.1285
 4618TIP3    H135345   5.047   1.685  13.801  0.9423  2.5251 -0.1345
 4618TIP3    H235346   4.954   1.634  13.909  0.4160 -0.5339 -1.9295
 4619TIP3   OH235347   5.426   5.168   1.048 -0.2869  0.3406 -0.0184
 4619TIP3    H135348   5.462   5.245   1.004  0.4250 -0.5028 -0.9486
 4619TIP3    H235349   5.499   5.133   1.098 -0.8860  0.8460  1.2569
 4620TIP3   OH235350   4.982   5.843  12.345  0.0028  0.1014 -0.2472
 4620TIP3    H135351   4.897   5.881  12.368 -0.5382 -0.5122 -1.1732
 4620TIP3    H235352   4.997   5.774  12.410 -0.8529 -0.6882 -0.8664
 4621TIP3   OH235353   1.523   6.804  12.699 -0.1699  0.2369 -0.8621
 4621TIP3    H135354   1.523   6.725  12.753 -0.5931  2.1987  2.2891
 4621TIP3    H235355   1.548   6.874  12.760  1.2688  2.4367 -3.7359
 4622TIP3   OH235356   1.168   3.903   1.613 -0.0154  0.1679  0.3210
 4622TIP3    H135357   1.258   3.936   1.621 -0.1494  0.5546  0.2303
 4622TIP3    H235358   1.167   3.825   1.669  0.7389 -0.5906 -0.6705
 4623TIP3   OH235359   6.079   4.124  16.970 -0.5178  0.7279  0.2019
 4623TIP3    H135360   6.076   4.153  17.061 -1.5378 -3.1847  1.6083
 4623TIP3    H235361   5.995   4.080  16.956 -0.1167  0.6431 -2.4375
 4624TIP3   OH235362   4.032   2.564  13.791  0.1388 -0.1171  0.5104
 4624TIP3    H135363   4.014   2.536  13.701 -0.7751 -0.4232  0.7723
 4624TIP3    H235364   4.115   2.522  13.813 -0.1857 -0.9562  0.1773
 4625TIP3   OH235365   0.832   6.499  17.156  0.0919 -0.1389 -0.0467
 4625TIP3    H135366   0.775   6.561  17.110  0.0981 -0.0082  0.1212
 4625TIP3    H235367   0.772   6.434  17.191  0.2809 -1.8505 -2.6273
 4626TIP3   OH235368   6.594   6.382   5.985 -0.3336 -0.0468 -0.4601
 4626TIP3    H135369   6.619   6.352   6.072 -0.4961 -0.7872 -0.6626
 4626TIP3    H235370   6.634   6.318   5.925  0.4225  0.8733 -0.9724
 4627TIP3   OH235371   6.282   4.694  15.262  0.0141  0.0037  0.4542
 4627TIP3    H135372   6.261   4.762  15.198  0.5011 -0.4079 -0.1509
 4627TIP3    H235373   6.198   4.674  15.304 -0.3324  0.1991 -0.1313
 4628TIP3   OH235374   3.017   5.824   5.818  0.3497 -0.4193  1.0538
 4628TIP3    H135375   2.948   5.772   5.777  0.8296 -0.6731  0.5468
 4628TIP3    H235376   3.063   5.865   5.744  0.1030  0.5684  1.4351
 4629TIP3   OH235377   3.678   4.290  12.626 -0.1049 -0.1733  0.0448
 4629TIP3    H135378   3.736   4.214  12.628 -4.3793 -3.8943  1.9136
 4629TIP3    H235379   3.659   4.303  12.532  0.5395 -1.6469 -0.3171
 4630TIP3   OH235380   2.464   3.124   4.094  0.1190  0.0675  0.0806
 4630TIP3    H135381   2.506   3.209   4.098  3.3081 -1.1938 -2.1336
 4630TIP3    H235382   2.379   3.137   4.135  0.4514  4.2660 -0.1280
 4631TIP3   OH235383   5.482   5.845   6.074 -0.6408  0.5712  0.6325
 4631TIP3    H135384   5.518   5.769   6.120 -0.9324 -0.2136 -0.3993
 4631TIP3    H235385   5.542   5.858   6.000 -0.6259  1.3220  0.7701
 4632TIP3   OH235386   5.228   0.747  17.295  0.2596  0.1845 -0.1924
 4632TIP3    H135387   5.321   0.725  17.293  0.4700  1.0587 -0.5799
 4632TIP3    H235388   5.184   0.669  17.261  0.9279  0.1275 -0.9667
 4633TIP3   OH235389   2.787   4.163  17.127 -0.1314  0.2296 -0.0463
 4633TIP3    H135390   2.774   4.096  17.060  0.8719 -0.1849  0.1486
 4633TIP3    H235391   2.815   4.114  17.204 -2.0802  0.6109  0.9649
 4634TIP3   OH235392   3.588   0.224   2.324 -0.1002 -0.2869  0.5107
 4634TIP3    H135393   3.533   0.273   2.386  2.4443  1.2122  1.7182
 4634TIP3    H235394   3.548   0.242   2.238 -0.5982  2.0903  1.1578
 4635TIP3   OH235395   6.472   6.250   1.445  0.0087  0.3253  0.8184
 4635TIP3    H135396   6.442   6.333   1.408  1.7031  0.6577  0.0895
 4635TIP3    H235397   6.392   6.202   1.466 -0.9936  1.7114  0.2610
 4636TIP3   OH235398   2.955   6.681   5.753  0.5406  0.3806  0.0536
 4636TIP3    H135399   3.050   6.672   5.748  0.5148  0.5622 -1.0898
 4636TIP3    H235400   2.922   6.596   5.725  0.3677  0.8925 -1.3693
 4637TIP3   OH235401   3.469   3.322   5.925 -0.0059 -0.2561 -0.4031
 4637TIP3    H135402   3.441   3.232   5.912  0.2302 -0.2121 -1.2719
 4637TIP3    H235403   3.562   3.322   5.902 -0.1908  0.3681 -1.2122
 4638TIP3   OH235404   2.293   5.607   2.923 -0.2637 -0.3689  0.3189
 4638TIP3    H135405   2.233   5.533   2.920  2.0556 -2.3886 -0.0991
 4638TIP3    H235406   2.276   5.655   2.842 -2.0628 -0.1997  0.7713
 4639TIP3   OH235407   0.201   0.991   5.247  0.0179  0.0228  0.0885
 4639TIP3    H135408   0.249   0.966   5.326 -0.5293  0.7604  0.6715
 4639TIP3    H235409   0.218   1.085   5.238  2.1002 -0.4802 -2.0987
 4640TIP3   OH235410   5.083   1.330   5.198  0.0656 -0.3641  0.2395
 4640TIP3    H135411   4.997   1.372   5.208 -0.2400 -1.1233  0.8262
 4640TIP3    H235412   5.123   1.377   5.125 -0.7314  0.1939  0.1444
 4641TIP3   OH235413   0.856   0.096  11.201 -0.1446  0.6892 -0.5831
 4641TIP3    H135414   0.878   0.010  11.165  1.1645 -0.3541  2.3827
 4641TIP3    H235415   0.935   0.148  11.189  0.1293  0.4870  0.2805
 4642TIP3   OH235416   2.394   1.388  15.494 -0.1812 -0.2972 -0.2986
 4642TIP3    H135417   2.469   1.334  15.519  0.2077 -0.3568 -1.5205
 4642TIP3    H235418   2.331   1.327  15.457 -0.1377 -0.0473 -0.7984
 4643TIP3   OH235419   3.479   3.979   0.789  0.5103  0.2229 -0.3965
 4643TIP3    H135420   3.506   3.898   0.746  0.0400 -0.3660  0.3860
 4643TIP3    H235421   3.406   4.011   0.736  0.3511 -0.1618 -0.4186
 4644TIP3   OH235422   1.536   0.046   6.702  0.0812  0.6932 -0.1057
 4644TIP3    H135423   1.613   0.068   6.755 -0.4614  0.9427  0.5917
 4644TIP3    H235424   1.493   0.130   6.687  1.0293  0.8621 -2.2613
 4645TIP3   OH235425   3.336   1.439  13.183  0.2794  0.0857  0.2253
 4645TIP3    H135426   3.352   1.524  13.223  0.5228 -0.5070  1.4114
 4645TIP3    H235427   3.372   1.376  13.244 -1.2744 -0.9744  0.1190
 4646TIP3   OH235428   1.560   2.703  13.725 -0.6129 -0.4062 -0.1784
 4646TIP3    H135429   1.468   2.686  13.708 -1.1049  2.2278 -0.7044
 4646TIP3    H235430   1.563   2.795  13.752  1.8145 -0.5036  0.1617
 4647TIP3   OH235431   4.034   5.034   4.446  0.1500 -0.4071  0.3174
 4647TIP3    H135432   4.095   5.071   4.383  0.6396 -0.3689  0.8094
 4647TIP3    H235433   4.022   5.103   4.512 -0.4474 -0.4023  0.2114
 4648TIP3   OH235434   1.564   6.039   0.319  0.2604 -0.2749  0.3365
 4648TIP3    H135435   1.499   5.987   0.365 -0.6180  2.0653  1.9388
 4648TIP3    H235436   1.517   6.118   0.293  1.9703  0.5691 -0.3384
 4649TIP3   OH235437   1.434   0.723   0.985  0.5377 -0.6996 -0.2577
 4649TIP3    H135438   1.349   0.715   1.028 -0.1250  1.4085 -1.0694
 4649TIP3    H235439   1.495   0.677   1.043 -0.3946  1.5312  2.7201
 4650TIP3   OH235440   4.612   0.812   0.162 -0.1407 -0.4622  0.7952
 4650TIP3    H135441   4.569   0.836   0.244  0.3055  2.5346  0.2655
 4650TIP3    H235442   4.546   0.829   0.095  0.6490  0.7407  0.2819
 4651TIP3   OH235443   5.337   4.364  17.106  0.0420 -0.3379  0.8270
 4651TIP3    H135444   5.390   4.438  17.077  0.4621 -0.2996  1.6583
 4651TIP3    H235445   5.393   4.287  17.095  0.0519 -0.3757  1.1110
 4652TIP3   OH235446   4.375   0.102  12.835 -0.3231  0.0854 -0.4985
 4652TIP3    H135447   4.435   0.078  12.906 -0.7418  0.2406 -0.0837
 4652TIP3    H235448   4.431   0.142  12.769 -0.1423  1.7552  0.5844
 4653TIP3   OH235449   5.905   0.457   5.323 -0.4986 -0.2535 -0.1146
 4653TIP3    H135450   5.921   0.487   5.413 -0.8741 -0.0070 -0.1241
 4653TIP3    H235451   5.924   0.533   5.269 -2.2159  0.2514 -0.0773
 4654TIP3   OH235452   6.400   6.396   1.942 -0.8316 -0.0447 -0.4155
 4654TIP3    H135453   6.411   6.438   2.028  0.6068 -1.0676 -0.0711
 4654TIP3    H235454   6.374   6.467   1.884 -0.5360  0.9236  0.6032
 4655TIP3   OH235455   0.174   3.369  14.511 -0.4700 -0.2381  0.8554
 4655TIP3    H135456   0.241   3.317  14.465 -1.1091 -0.4393  0.1351
 4655TIP3    H235457   0.124   3.304  14.560 -0.8700 -0.2335  0.4584
 4656TIP3   OH235458   3.316   5.731   2.775 -0.4202 -0.1173  0.0397
 4656TIP3    H135459   3.258   5.658   2.796  1.4796 -1.3011  1.3700
 4656TIP3    H235460   3.402   5.692   2.764  0.4044  1.7613 -0.6361
 4657TIP3   OH235461   0.662   5.241   4.052 -0.0206  0.0087 -0.2360
 4657TIP3    H135462   0.641   5.318   4.104  1.1331 -0.1987  0.5586
 4657TIP3    H235463   0.606   5.172   4.087  0.5027 -0.0443  0.5194
 4658TIP3   OH235464   6.596   3.834   4.719 -0.4726  0.0015 -0.1408
 4658TIP3    H135465   6.618   3.804   4.807 -1.9363 -0.9050 -0.0471
 4658TIP3    H235466   6.608   3.929   4.722  1.7263 -0.2462  0.3268
 4659TIP3   OH235467   4.345   2.563  13.427  0.6729 -0.3343  0.0296
 4659TIP3    H135468   4.362   2.548  13.334 -0.3214  1.6242 -0.5119
 4659TIP3    H235469   4.354   2.476  13.467  0.0617 -1.4126 -2.0500
 4660TIP3   OH235470   0.817   5.395  13.591 -0.3096 -0.0766  0.5440
 4660TIP3    H135471   0.742   5.452  13.610  1.4647  1.5834  3.4223
 4660TIP3    H235472   0.790   5.309  13.624 -0.8321  0.6190  2.0568
 4661TIP3   OH235473   5.926   2.353   2.149  0.4576 -0.2356 -0.1916
 4661TIP3    H135474   5.903   2.442   2.179  1.3321  0.4350 -1.4170
 4661TIP3    H235475   5.961   2.366   2.061  1.2487 -1.7257 -0.1297
 4662TIP3   OH235476   1.350   4.846  14.491  0.2740 -0.6074  0.1844
 4662TIP3    H135477   1.414   4.829  14.422 -0.0211  0.6482 -0.4382
 4662TIP3    H235478   1.398   4.836  14.573  1.4207  0.7841 -0.2793
 4663TIP3   OH235479   0.669   3.376   4.802  0.2600  0.0049  0.1179
 4663TIP3    H135480   0.647   3.284   4.790  0.0012  0.3738 -3.1441
 4663TIP3    H235481   0.765   3.378   4.804  0.2581 -0.3648  0.9118
 4664TIP3   OH235482   4.121   3.075  14.234  0.5054  0.5100 -0.3397
 4664TIP3    H135483   4.056   3.102  14.300 -0.1215 -0.6847 -0.4366
 4664TIP3    H235484   4.178   3.015  14.281 -0.4108 -0.9681 -1.0378
 4665TIP3   OH235485   3.923   6.710   1.392  0.0272 -0.4400 -0.3124
 4665TIP3    H135486   3.907   6.634   1.447 -0.3443  0.7338  1.2566
 4665TIP3    H235487   3.940   6.781   1.453  2.4648  0.3218 -1.7647
 4666TIP3   OH235488   0.753   0.411   4.337  0.0367  0.2708  0.2163
 4666TIP3    H135489   0.724   0.474   4.404  0.1506 -0.4421  0.9492
 4666TIP3    H235490   0.812   0.461   4.281  0.1282  0.8249  0.7925
 4667TIP3   OH235491   1.620   1.007   2.192  0.2631  0.5937  0.4038
 4667TIP3    H135492   1.610   0.918   2.157 -1.8608  1.4697 -1.4370
 4667TIP3    H235493   1.702   1.038   2.155  0.9608 -0.5332  0.9523
 4668TIP3   OH235494   6.355   5.799   4.560 -0.2144  0.1639 -0.2005
 4668TIP3    H135495   6.397   5.872   4.605 -0.6500  0.7137 -0.6735
 4668TIP3    H235496   6.315   5.747   4.630  1.5553 -0.5972  0.3031
 4669TIP3   OH235497   6.652   0.865   5.808 -0.0306  0.2140  0.4379
 4669TIP3    H135498   6.689   0.945   5.771 -0.7719 -0.6892 -2.4812
 4669TIP3    H235499   6.564   0.860   5.772  0.0247 -1.9629  0.4952
 4670TIP3   OH235500   3.355   2.376   1.661  0.0653 -0.4322 -0.0539
 4670TIP3    H135501   3.451   2.379   1.654  0.1791 -1.3198  1.0398
 4670TIP3    H235502   3.338   2.320   1.736 -1.3671 -2.4686 -1.7859
 4671TIP3   OH235503   1.550   3.362   0.338  0.2037 -0.0539  0.0585
 4671TIP3    H135504   1.641   3.390   0.328 -0.1435  0.6977 -1.2188
 4671TIP3    H235505   1.514   3.420   0.406  0.6692 -0.3355  0.5452
 4672TIP3   OH235506   1.447   4.512   2.754  0.0923 -0.3427 -0.1575
 4672TIP3    H135507   1.447   4.435   2.696 -0.4608 -1.4128  1.1958
 4672TIP3    H235508   1.406   4.581   2.701  0.8895 -0.8636 -1.5213
 4673TIP3   OH235509   1.744   1.070  10.579 -0.3183  0.0901 -0.4184
 4673TIP3    H135510   1.765   0.981  10.552  0.2530 -0.4201  1.5409
 4673TIP3    H235511   1.656   1.085  10.545 -1.3267 -2.0597  1.0425
 4674TIP3   OH235512   5.404   3.120  14.247 -0.0331 -0.2642  0.1888
 4674TIP3    H135513   5.321   3.167  14.249 -0.6859 -1.3247 -0.8206
 4674TIP3    H235514   5.465   3.177  14.294 -1.4138  0.3443  1.3047
 4675TIP3   OH235515   5.506   1.584   3.761  0.0118 -0.4668  0.5980
 4675TIP3    H135516   5.467   1.507   3.803 -2.4969  0.7502  0.6952
 4675TIP3    H235517   5.487   1.573   3.668  2.0855 -1.2370  0.2156
 4676TIP3   OH235518   3.062   4.851   3.739  0.1587 -0.2886 -0.1831
 4676TIP3    H135519   3.156   4.852   3.722  0.1713  0.3697 -0.0878
 4676TIP3    H235520   3.023   4.824   3.657  0.3756  0.3813 -0.5126
 4677TIP3   OH235521   4.491   6.343   4.773  0.1302  0.3254  0.0979
 4677TIP3    H135522   4.537   6.394   4.839 -1.3064  0.8655  0.7051
 4677TIP3    H235523   4.561   6.305   4.719  1.3514 -0.4529  2.1323
 4678TIP3   OH235524   3.054   6.207   1.729 -0.1985  0.2152  0.4580
 4678TIP3    H135525   3.018   6.118   1.731  1.3128 -0.4578 -0.4989
 4678TIP3    H235526   3.035   6.238   1.641 -0.0159  0.5489  0.5368
 4679TIP3   OH235527   2.157   5.494   2.059 -0.0377  0.9783 -0.3724
 4679TIP3    H135528   2.142   5.437   1.983 -0.8765 -0.0021  0.4982
 4679TIP3    H235529   2.079   5.550   2.062 -1.6527 -1.1527  1.5779
 4680TIP3   OH235530   3.611   4.839  13.266 -0.0140  0.2076  0.8918
 4680TIP3    H135531   3.610   4.934  13.277  0.5761  0.1804  1.2525
 4680TIP3    H235532   3.629   4.826  13.173 -0.2231  0.4483  0.8160
 4681TIP3   OH235533   5.647   3.022   0.081  1.0990 -1.0857 -0.1287
 4681TIP3    H135534   5.640   2.939   0.129 -2.4677  0.8253  3.3021
 4681TIP3    H235535   5.714   3.071   0.128 -0.9753  0.0206  1.8910
 4682TIP3   OH235536   2.792   2.615  16.115 -0.5519  0.8823 -0.1222
 4682TIP3    H135537   2.810   2.682  16.050  1.6844 -1.1940 -1.8638
 4682TIP3    H235538   2.878   2.591  16.150 -1.4526  0.1401  1.7496
 4683TIP3   OH235539   2.066   4.934  14.747  0.1506  0.4519  0.0368
 4683TIP3    H135540   2.061   4.840  14.759 -0.8221  0.4539 -0.3117
 4683TIP3    H235541   2.146   4.960  14.794  0.9039 -0.6477 -0.5941
 4684TIP3   OH235542   0.432   2.393   6.146  0.1634  0.5055 -0.2564
 4684TIP3    H135543   0.498   2.420   6.082  0.1551  0.3489 -0.3312
 4684TIP3    H235544   0.475   2.401   6.231  0.3603  0.1505 -0.3257
 4685TIP3   OH235545   1.010   6.168  16.826 -0.3499  0.1987  0.0353
 4685TIP3    H135546   1.085   6.227  16.838  0.4786 -0.6346 -0.9047
 4685TIP3    H235547   0.946   6.199  16.890  0.3914  1.5720  0.1653
 4686TIP3   OH235548   0.910   4.357  17.223 -0.7243  0.9858 -0.3295
 4686TIP3    H135549   0.925   4.263  17.230  0.7888  1.2613  0.4428
 4686TIP3    H235550   0.915   4.375  17.129  0.1152  0.4667 -0.3911
 4687TIP3   OH235551   1.989   4.441  13.563 -0.1459 -0.2194  0.0807
 4687TIP3    H135552   2.045   4.363  13.562 -0.6468 -0.5886  0.6449
 4687TIP3    H235553   1.950   4.442  13.651 -3.8938 -2.0133 -1.3464
 4688TIP3   OH235554   1.784   2.977   4.059  0.5395  0.2139 -0.4042
 4688TIP3    H135555   1.869   3.004   4.023  0.6396 -0.6829 -0.8602
 4688TIP3    H235556   1.801   2.893   4.100  0.0041  0.3453  0.0957
 4689TIP3   OH235557   3.150   3.679  14.804 -0.6911 -0.1440  0.3185
 4689TIP3    H135558   3.111   3.718  14.726  0.6767 -1.0656 -0.8707
 4689TIP3    H235559   3.241   3.661  14.780 -0.7401 -2.2820  1.4438
 4690TIP3   OH235560   4.262   4.645   5.086  0.2535  0.1508 -0.3854
 4690TIP3    H135561   4.195   4.603   5.140  0.6019  1.3722  1.0612
 4690TIP3    H235562   4.230   4.636   4.996 -0.0861 -2.3985 -0.0669
 4691TIP3   OH235563   4.820   4.296   5.242 -0.7443 -0.4331 -0.6749
 4691TIP3    H135564   4.900   4.265   5.201 -0.9223 -2.9633  0.6544
 4691TIP3    H235565   4.849   4.343   5.320 -0.5207  1.7873 -2.0030
 4692TIP3   OH235566   4.714   1.964  12.155  0.1594  0.2168  0.6268
 4692TIP3    H135567   4.772   1.902  12.199  0.2758 -0.3584 -0.2892
 4692TIP3    H235568   4.767   1.999  12.083 -0.9402 -1.2467 -0.9938
 4693TIP3   OH235569   2.804   1.505  13.074 -0.0092  0.0560 -0.6838
 4693TIP3    H135570   2.716   1.493  13.109  0.4559  1.6350  1.1912
 4693TIP3    H235571   2.801   1.466  12.986 -1.1632 -4.4040  1.0958
 4694TIP3   OH235572   4.876   0.820   0.102  0.3522  0.2472 -0.0319
 4694TIP3    H135573   4.840   0.784   0.021  0.5959  1.1341 -0.5586
 4694TIP3    H235574   4.800   0.837   0.157  0.1708 -0.2206 -0.1350
 4695TIP3   OH235575   6.477   0.358  15.489 -0.1069 -0.1156 -0.3651
 4695TIP3    H135576   6.559   0.380  15.444  1.6206 -0.5270  2.3795
 4695TIP3    H235577   6.473   0.418  15.563 -0.2322 -2.5657  1.7557
 4696TIP3   OH235578   1.338   1.231   5.137 -0.0328  1.3963  0.1699
 4696TIP3    H135579   1.363   1.173   5.065 -2.0518  2.2405 -1.3068
 4696TIP3    H235580   1.420   1.249   5.183  0.9964 -0.7548 -0.7086
 4697TIP3   OH235581   4.116   5.968  12.120  0.7560 -0.0947 -0.2133
 4697TIP3    H135582   4.147   6.056  12.097  0.4238  0.2195  0.5206
 4697TIP3    H235583   4.176   5.909  12.073  1.2928  0.5154 -0.3164
 4698TIP3   OH235584   0.299   4.245   6.170 -1.2271 -0.2986  0.2263
 4698TIP3    H135585   0.352   4.167   6.184 -0.8491  0.1281  1.3323
 4698TIP3    H235586   0.232   4.241   6.239  0.4244  1.6779  2.1064
 4699TIP3   OH235587   5.066   0.604   4.603 -0.6298  0.5783 -0.7739
 4699TIP3    H135588   5.087   0.672   4.668 -0.6972  1.2741 -1.4630
 4699TIP3    H235589   5.085   0.645   4.519 -0.1361 -0.4644 -1.1849
 4700TIP3   OH235590   1.598   6.514   3.914 -0.4275  0.3198  0.0518
 4700TIP3    H135591   1.531   6.483   3.854 -0.3669 -0.1774  0.2328
 4700TIP3    H235592   1.550   6.537   3.994 -0.4647  0.6216 -0.0585
 4701TIP3   OH235593   5.015   4.254   5.053  0.1804  0.4253 -0.1392
 4701TIP3    H135594   5.105   4.232   5.029  0.3531  1.0645 -0.1069
 4701TIP3    H235595   4.992   4.325   4.993 -1.0287 -1.0949 -1.5597
 4702TIP3   OH235596   0.296   5.601  15.566  0.0701 -0.2867  0.0787
 4702TIP3    H135597   0.345   5.521  15.585 -1.1883 -1.0077  0.4116
 4702TIP3    H235598   0.204   5.573  15.564 -0.3541  1.0559 -0.3149
 4703TIP3   OH235599   4.650   6.282  11.074 -0.1799 -0.4659 -0.4962
 4703TIP3    H135600   4.708   6.254  11.146  1.0732 -1.0588 -1.6920
 4703TIP3    H235601   4.595   6.349  11.113 -1.4470 -2.6463  1.7879
 4704TIP3   OH235602   6.325   0.934   5.037  0.5250  0.0855 -0.2251
 4704TIP3    H135603   6.292   0.938   5.127 -1.9137 -0.9916 -0.9768
 4704TIP3    H235604   6.387   0.861   5.037  3.2026  2.1832  1.2454
 4705TIP3   OH235605   1.949   2.116   5.159 -0.3936  0.2736 -0.5086
 4705TIP3    H135606   1.952   2.072   5.074 -0.9785  0.6479 -0.7288
 4705TIP3    H235607   1.859   2.104   5.189 -0.8740  2.1648 -1.0406
 4706TIP3   OH235608   6.077   2.952   5.062 -0.1298 -0.2586 -0.1081
 4706TIP3    H135609   6.130   2.950   5.142 -0.0407 -2.1816 -0.1743
 4706TIP3    H235610   6.067   3.045   5.043 -0.3748  0.2834  2.2742
 4707TIP3   OH235611   4.249   3.137   3.912 -0.3294 -0.2401  0.5960
 4707TIP3    H135612   4.311   3.084   3.961 -0.4197 -0.5043  0.4225
 4707TIP3    H235613   4.293   3.222   3.902  0.3001 -0.6364 -0.1247
 4708TIP3   OH235614   0.507   1.481   2.259  0.7226  0.9459 -0.0338
 4708TIP3    H135615   0.578   1.440   2.310  0.2932  0.2528  0.0137
 4708TIP3    H235616   0.502   1.429   2.179 -1.7522 -0.9714  1.2570
 4709TIP3   OH235617   3.216   0.211   0.906 -0.1822  0.1560  0.4807
 4709TIP3    H135618   3.209   0.291   0.853  0.1818  1.7654  2.7170
 4709TIP3    H235619   3.129   0.172   0.904 -0.7960  1.4921  0.6506
 4710TIP3   OH235620   0.872   5.399   0.323  0.2382 -0.3865  0.0189
 4710TIP3    H135621   0.938   5.463   0.348  0.1074 -0.0155 -0.5651
 4710TIP3    H235622   0.791   5.449   0.316  0.5503 -0.0819 -2.7284
 4711TIP3   OH235623   4.099   4.281   3.466  0.1961  0.1508 -0.0662
 4711TIP3    H135624   4.043   4.217   3.423 -0.9241 -0.1516  1.7261
 4711TIP3    H235625   4.081   4.270   3.559 -0.7521  3.6109  0.3341
 4712TIP3   OH235626   2.557   1.872   3.096 -0.3622 -0.2160  0.2602
 4712TIP3    H135627   2.534   1.938   3.161 -2.0850 -0.8121  0.2854
 4712TIP3    H235628   2.527   1.789   3.133  0.1624 -0.7847 -0.5571
 4713TIP3   OH235629   4.454   3.436  12.226 -0.3041 -0.5107 -0.1750
 4713TIP3    H135630   4.480   3.510  12.172  2.8378  0.8480  2.8386
 4713TIP3    H235631   4.382   3.395  12.177 -0.3669  2.8244 -3.3176
 4714TIP3   OH235632   1.654   0.952  15.559  0.2740 -0.0319 -0.6345
 4714TIP3    H135633   1.741   0.918  15.538  0.6803  0.0384  0.8143
 4714TIP3    H235634   1.603   0.874  15.582  0.5397  0.1019  0.4460
 4715TIP3   OH235635   4.312   3.340  16.399  0.2171 -0.1707  0.4366
 4715TIP3    H135636   4.404   3.360  16.379  0.2059 -0.2207  0.3322
 4715TIP3    H235637   4.317   3.282  16.475  0.2970 -0.5684  0.1324
 4716TIP3   OH235638   2.585   4.742   0.525  0.0917  0.0528 -0.0722
 4716TIP3    H135639   2.559   4.680   0.457  0.9240  0.3755 -0.6957
 4716TIP3    H235640   2.513   4.804   0.530 -0.2587 -0.3415 -0.2062
 4717TIP3   OH235641   3.727   1.086   3.421 -0.1739 -0.6434 -0.3609
 4717TIP3    H135642   3.803   1.029   3.408 -0.0340 -0.5606  0.1039
 4717TIP3    H235643   3.661   1.050   3.362  0.8970  0.5616 -2.4045
 4718TIP3   OH235644   3.909   5.515  12.939 -0.6129 -0.2250  0.0433
 4718TIP3    H135645   3.861   5.447  12.891 -2.1362  0.4269  0.5849
 4718TIP3    H235646   3.961   5.559  12.872 -0.9032 -0.8358 -0.6005
 4719TIP3   OH235647   3.720   4.605  16.877  0.8077 -0.2091 -0.5822
 4719TIP3    H135648   3.762   4.528  16.839 -0.1057 -1.0033 -0.0312
 4719TIP3    H235649   3.694   4.658  16.802  0.7052 -0.8348 -0.9917
 4720TIP3   OH235650   0.876   1.204  13.591  0.3231 -0.0237  0.1734
 4720TIP3    H135651   0.907   1.294  13.584 -1.1389  0.4279 -1.0771
 4720TIP3    H235652   0.784   1.208  13.563 -0.9291 -1.2843  3.6084
 4721TIP3   OH235653   3.002   4.550   4.174 -0.2877  0.1561 -0.0513
 4721TIP3    H135654   2.996   4.608   4.098 -0.0574  0.0990 -0.1147
 4721TIP3    H235655   3.053   4.600   4.238  2.1413 -0.9138 -1.0220
 4722TIP3   OH235656   5.435   3.246  12.440 -0.2188 -0.1436  0.0962
 4722TIP3    H135657   5.379   3.323  12.454 -0.2809 -0.3098  0.8362
 4722TIP3    H235658   5.509   3.259  12.500 -0.9066 -1.3004  1.2671
 4723TIP3   OH235659   2.666   4.524   5.567 -0.7858 -0.5518  0.7234
 4723TIP3    H135660   2.579   4.557   5.589 -0.1032  1.4790  0.6558
 4723TIP3    H235661   2.650   4.446   5.514 -2.6259  0.7041 -0.7133
 4724TIP3   OH235662   6.407   5.677  11.513 -0.3770 -0.3361 -0.3379
 4724TIP3    H135663   6.371   5.590  11.532  0.5909 -0.4907  0.9604
 4724TIP3    H235664   6.411   5.720  11.598  0.5127  0.4453 -0.7575
 4725TIP3   OH235665   5.353   0.741   4.172 -0.4134  0.6123  0.1370
 4725TIP3    H135666   5.371   0.792   4.094 -0.6981  0.7505  0.1637
 4725TIP3    H235667   5.412   0.778   4.239  0.1370  0.2169 -0.1189
 4726TIP3   OH235668   3.843   6.136  12.235  0.5861  0.0466  0.5248
 4726TIP3    H135669   3.810   6.162  12.149 -0.3394 -0.9677  0.5518
 4726TIP3    H235670   3.831   6.041  12.237  0.9724  0.0154  1.6144
 4727TIP3   OH235671   5.100   1.640  13.639  0.1665  0.8271 -0.1818
 4727TIP3    H135672   5.192   1.625  13.663  0.0002 -0.2357 -0.1708
 4727TIP3    H235673   5.103   1.712  13.577  1.1221  0.1557 -0.9558
 4728TIP3   OH235674   6.042   0.590  14.679  0.1901 -0.0900  0.5815
 4728TIP3    H135675   6.009   0.656  14.739 -1.5057 -0.2703 -0.0844
 4728TIP3    H235676   6.097   0.533  14.733 -0.6057  0.2477  1.7773
 4729TIP3   OH235677   6.437   0.423   2.246 -0.0099  0.4180  0.0528
 4729TIP3    H135678   6.491   0.437   2.169  0.3841  0.8688  0.4082
 4729TIP3    H235679   6.424   0.510   2.283 -0.6884  0.2771  0.1712
 4730TIP3   OH235680   3.766   0.593  14.954  0.2272  0.5709  0.4436
 4730TIP3    H135681   3.842   0.570  15.008 -0.4521 -0.8945  0.8172
 4730TIP3    H235682   3.692   0.553  14.999 -0.4234 -0.2956 -1.3321
 4731TIP3   OH235683   0.605   0.013   4.383 -0.2350 -0.3845 -0.1958
 4731TIP3    H135684   0.605   0.067   4.304 -1.4594  0.7664  0.5461
 4731TIP3    H235685   0.513   0.005   4.407  0.0957 -0.8941  0.9959
 4732TIP3   OH235686   3.689   1.726   5.520  0.3765  0.0813 -0.0149
 4732TIP3    H135687   3.759   1.663   5.540  0.2318 -0.1342 -0.1807
 4732TIP3    H235688   3.735   1.801   5.483  0.5458  0.0465  0.1209
 4733TIP3   OH235689   2.635   6.212   5.262 -0.1915  0.2579 -0.0227
 4733TIP3    H135690   2.675   6.126   5.272 -1.0429 -0.1690 -0.3081
 4733TIP3    H235691   2.668   6.245   5.179  1.9140  1.1798  1.0843
 4734TIP3   OH235692   3.298   4.642  13.287  0.5642 -0.2847  0.2934
 4734TIP3    H135693   3.322   4.567  13.342  0.0226 -0.2480  0.5835
 4734TIP3    H235694   3.207   4.661  13.311  0.2246 -0.4504 -0.8247
 4735TIP3   OH235695   6.587   2.507  12.147  0.3496 -0.1032 -0.7159
 4735TIP3    H135696   6.553   2.426  12.109 -2.4593 -0.0173  1.3266
 4735TIP3    H235697   6.598   2.566  12.072 -3.3388 -0.4781 -1.7307
 4736TIP3   OH235698   2.325   4.542  13.952  0.5704 -0.6684  0.9239
 4736TIP3    H135699   2.269   4.591  14.012  1.1060  0.6931  0.3447
 4736TIP3    H235700   2.270   4.470  13.921 -0.9198  0.7025  0.2610
 4737TIP3   OH235701   4.700   4.890   2.697  0.5315  0.2434 -0.2335
 4737TIP3    H135702   4.624   4.945   2.717 -0.2327 -0.9526  0.2710
 4737TIP3    H235703   4.739   4.870   2.782  0.6327 -0.2329 -0.3910
 4738TIP3   OH235704   2.087   0.318   2.749 -0.3212  0.2088 -0.3893
 4738TIP3    H135705   2.039   0.389   2.706 -1.0622 -1.1462 -1.8792
 4738TIP3    H235706   2.020   0.269   2.796 -0.2502 -0.9849 -1.4856
 4739TIP3   OH235707   6.109   0.001   3.401  0.2429  0.2885  0.5942
 4739TIP3    H135708   6.089   0.060   3.328  0.6166  0.1154  0.3425
 4739TIP3    H235709   6.163   0.054   3.460 -0.8106  0.7048  1.1957
 4740TIP3   OH235710   5.163   0.408  10.785  0.2307  0.8163 -0.0827
 4740TIP3    H135711   5.252   0.430  10.808 -0.2830  0.9638  1.9232
 4740TIP3    H235712   5.134   0.478  10.727  1.7343  0.1721 -1.7141
 4741TIP3   OH235713   5.770   2.291   4.479  0.3778  0.4535 -0.0057
 4741TIP3    H135714   5.752   2.265   4.569  1.9911 -0.3281  0.1266
 4741TIP3    H235715   5.864   2.276   4.468  0.3883  1.4013 -1.5425
 4742TIP3   OH235716   2.587   2.120   2.861  0.0495  0.0178 -0.0713
 4742TIP3    H135717   2.681   2.140   2.863  0.1775 -0.5649 -0.1950
 4742TIP3    H235718   2.562   2.135   2.770  0.5233 -2.0406 -0.5865
 4743TIP3   OH235719   5.692   6.563   0.770 -0.2324 -0.1939  0.1776
 4743TIP3    H135720   5.730   6.634   0.718  0.1593 -0.1940  0.4503
 4743TIP3    H235721   5.608   6.598   0.800  0.2380  0.4170  0.8408
 4744TIP3   OH235722   0.895   2.744   3.352 -0.0694 -0.1440 -0.3515
 4744TIP3    H135723   0.870   2.731   3.444 -1.5641  0.1054 -0.6900
 4744TIP3    H235724   0.859   2.667   3.307  0.9847 -0.4544 -0.6871
 4745TIP3   OH235725   0.807   6.465   1.000 -0.8185 -0.0360 -0.2032
 4745TIP3    H135726   0.847   6.415   0.928 -0.5994  0.1863 -0.2368
 4745TIP3    H235727   0.734   6.511   0.959 -2.7816 -2.4156  0.3249
 4746TIP3   OH235728   4.286   2.976   2.336 -0.3125 -0.2641 -0.6462
 4746TIP3    H135729   4.365   3.030   2.334 -0.6414  0.2036 -1.4336
 4746TIP3    H235730   4.216   3.034   2.305 -0.9520 -0.7012 -0.0607
 4747TIP3   OH235731   2.951   5.597  14.505  0.0457 -0.0175  0.2067
 4747TIP3    H135732   2.935   5.658  14.576  1.6714  1.2028 -0.4069
 4747TIP3    H235733   3.026   5.634  14.458 -1.8243  0.0420 -3.0283
 4748TIP3   OH235734   6.469   5.586   5.163 -0.3106  0.4389 -0.2932
 4748TIP3    H135735   6.490   5.635   5.084  0.0096 -0.2698 -0.6578
 4748TIP3    H235736   6.432   5.503   5.131  1.0684 -0.4218  0.2470
 4749TIP3   OH235737   3.001   1.989  16.691  0.5940  0.1836 -0.1636
 4749TIP3    H135738   2.932   2.035  16.643  0.2577  0.0757  0.2037
 4749TIP3    H235739   2.996   2.024  16.779  1.0942  0.2589 -0.1655
 4750TIP3   OH235740   3.466   3.439  15.502 -0.2474 -0.1861  0.4540
 4750TIP3    H135741   3.389   3.434  15.558 -0.1053  1.1987  0.8148
 4750TIP3    H235742   3.432   3.454  15.414 -0.4999 -2.9377 -0.0073
 4751TIP3   OH235743   5.888   0.509  10.277 -0.7139  0.0996 -0.0710
 4751TIP3    H135744   5.921   0.591  10.241  0.3686 -0.0265  0.6063
 4751TIP3    H235745   5.965   0.453  10.286 -1.2394 -0.5429  0.6435
 4752TIP3   OH235746   0.824   3.034   0.173 -0.4675  1.0922  0.3803
 4752TIP3    H135747   0.733   3.058   0.163 -0.4605  0.6481 -0.8814
 4752TIP3    H235748   0.823   2.938   0.176 -0.3192  1.0700  3.4937
 4753TIP3   OH235749   3.001   3.974   2.261  0.6090  0.0867 -0.6999
 4753TIP3    H135750   3.043   4.021   2.332  0.2041  0.2514 -0.5646
 4753TIP3    H235751   2.955   3.902   2.304  0.6983 -0.0522 -0.8367
 4754TIP3   OH235752   3.989   1.155   2.449  0.2777 -0.4380  0.0079
 4754TIP3    H135753   4.080   1.156   2.478  0.7971 -0.5050 -1.5328
 4754TIP3    H235754   3.978   1.070   2.407 -0.9272 -1.0162  1.4100
 4755TIP3   OH235755   3.041   6.171  15.234 -0.1210 -0.1999 -0.6712
 4755TIP3    H135756   3.076   6.207  15.316 -0.7430  0.7667 -0.8152
 4755TIP3    H235757   2.946   6.178  15.243 -0.1872  0.2052 -1.6071
 4756TIP3   OH235758   4.732   2.521   3.598  0.3179  0.2873 -0.2904
 4756TIP3    H135759   4.694   2.485   3.679  1.1287  1.0500  0.4448
 4756TIP3    H235760   4.656   2.547   3.546 -0.2190  1.5981  1.0664
 4757TIP3   OH235761   6.628   6.468  16.018 -0.8519  0.4355  0.4007
 4757TIP3    H135762   6.659   6.452  15.929 -0.5208  1.7714  0.2564
 4757TIP3    H235763   6.538   6.434  16.018 -0.1203 -1.6608  0.2495
 4758TIP3   OH235764   6.428   5.989   5.281 -0.5172 -0.1564  0.2949
 4758TIP3    H135765   6.424   6.043   5.361 -0.1263  2.2520 -1.2211
 4758TIP3    H235766   6.375   5.912   5.302 -2.4985  1.5510  2.0630
 4759TIP3   OH235767   3.561   5.102  13.251 -0.3614  0.1211  0.3367
 4759TIP3    H135768   3.569   5.190  13.286 -0.9543  1.1223 -1.8546
 4759TIP3    H235769   3.468   5.080  13.259 -0.6506  0.6653 -1.1612
 4760TIP3   OH235770   5.269   2.880  14.552 -0.4666  0.5279  0.5192
 4760TIP3    H135771   5.226   2.936  14.488  0.4223  1.5297  0.7698
 4760TIP3    H235772   5.197   2.837  14.599 -1.2074 -2.1982 -2.7038
 4761TIP3   OH235773   0.588   6.680   6.091 -0.1140 -0.6213  0.3065
 4761TIP3    H135774   0.498   6.671   6.123 -0.2312 -1.0949 -0.1528
 4761TIP3    H235775   0.617   6.765   6.126 -1.0458 -0.0451 -0.2762
 4762TIP3   OH235776   4.714   5.801   0.986  0.1931 -0.6731 -0.3439
 4762TIP3    H135777   4.713   5.804   1.081  0.6609  1.2961 -0.3487
 4762TIP3    H235778   4.807   5.790   0.964  0.3446  0.8040 -0.5478
 4763TIP3   OH235779   2.301   3.678  16.789  0.3630 -0.6100 -0.2626
 4763TIP3    H135780   2.285   3.766  16.823 -1.2320 -0.9541 -0.0226
 4763TIP3    H235781   2.252   3.620  16.847  1.0681 -1.6238 -0.6478
 4764TIP3   OH235782   2.711   5.375  12.609 -0.9074 -0.0862  0.6936
 4764TIP3    H135783   2.661   5.293  12.606 -0.0811 -0.5878  0.5448
 4764TIP3    H235784   2.666   5.432  12.547 -0.0855 -1.2346 -1.0569
 4765TIP3   OH235785   3.588   5.700  15.521 -0.1956 -0.4784 -0.3610
 4765TIP3    H135786   3.586   5.613  15.560  1.1093 -0.5118 -0.3365
 4765TIP3    H235787   3.620   5.686  15.432  0.2616 -0.0066 -0.2784
 4766TIP3   OH235788   5.352   4.267   5.741 -0.2749  0.5846 -0.1522
 4766TIP3    H135789   5.417   4.205   5.710 -3.6286 -3.4242 -0.0656
 4766TIP3    H235790   5.302   4.290   5.663 -3.9161 -3.4250  0.6164
 4767TIP3   OH235791   2.768   4.039  12.926 -0.0507  0.3611  0.0227
 4767TIP3    H135792   2.794   3.952  12.897  1.6633  0.6487  0.6005
 4767TIP3    H235793   2.695   4.062  12.869 -0.3029 -1.2949 -0.3772
 4768TIP3   OH235794   5.544   3.795   5.051 -0.6357 -0.3583  0.3314
 4768TIP3    H135795   5.511   3.803   5.140 -0.7461  0.3637  0.2325
 4768TIP3    H235796   5.489   3.854   4.999  1.0467  1.2460  0.2382
 4769TIP3   OH235797   5.121   0.218   1.841 -0.1236  0.1572  0.7297
 4769TIP3    H135798   5.077   0.136   1.817  2.7698 -0.7761 -2.1322
 4769TIP3    H235799   5.197   0.190   1.892  0.5461  1.0908  0.2730
 4770TIP3   OH235800   4.945   1.848   3.849 -0.4143  0.0841 -0.3884
 4770TIP3    H135801   4.914   1.865   3.938 -0.8358 -1.6079 -0.1685
 4770TIP3    H235802   5.032   1.886   3.845 -0.2360 -0.1639  0.8965
 4771TIP3   OH235803   5.633   0.713  13.904 -0.0552  0.3019  0.0726
 4771TIP3    H135804   5.630   0.675  13.992  0.8281  1.7636  0.7530
 4771TIP3    H235805   5.693   0.656  13.855 -1.0480 -0.8934  0.1979
 4772TIP3   OH235806   6.641   4.490   3.718  0.3787 -0.2272  0.4622
 4772TIP3    H135807   6.693   4.426   3.765 -1.2974 -2.2553 -0.2796
 4772TIP3    H235808   6.596   4.540   3.786  0.9686 -0.4593  1.0298
 4773TIP3   OH235809   5.272   1.337  16.612  0.2552  0.6445 -0.3940
 4773TIP3    H135810   5.205   1.276  16.643 -0.9877  2.7483  1.3851
 4773TIP3    H235811   5.226   1.421  16.605  2.1890  1.6885 -1.4258
 4774TIP3   OH235812   4.008   2.951   1.136 -0.4445 -0.1712  0.0224
 4774TIP3    H135813   3.915   2.938   1.119 -0.6598  1.4328 -0.2645
 4774TIP3    H235814   4.037   3.008   1.064  0.1934  1.2632  1.3463
 4775TIP3   OH235815   4.697   3.442   0.435 -1.1932 -0.4243  0.0412
 4775TIP3    H135816   4.638   3.397   0.495 -0.4225 -2.9212 -0.9378
 4775TIP3    H235817   4.682   3.400   0.351  0.0602  0.7489 -0.8080
 4776TIP3   OH235818   1.031   0.884  11.841 -0.0709 -0.1473  0.0395
 4776TIP3    H135819   1.072   0.924  11.917 -0.8828 -0.3048  0.5730
 4776TIP3    H235820   1.005   0.797  11.870 -1.4936  0.2274 -0.0240
 4777TIP3   OH235821   1.041   3.315  13.111  0.0223  0.6177  0.6771
 4777TIP3    H135822   1.126   3.275  13.093  1.2402  3.5613 -0.7351
 4777TIP3    H235823   1.055   3.369  13.188 -0.1763  2.0771 -0.2692
 4778TIP3   OH235824   5.472   1.978   3.253 -0.5387  0.4988  0.0543
 4778TIP3    H135825   5.497   2.047   3.190 -2.5755 -0.3269 -1.7893
 4778TIP3    H235826   5.424   2.024   3.321  0.3508  1.2206  0.2096
 4779TIP3   OH235827   2.813   3.579   5.162  0.0397  0.1513  0.1411
 4779TIP3    H135828   2.746   3.592   5.228  0.5621  1.2949  0.4689
 4779TIP3    H235829   2.815   3.661   5.113  0.1799 -0.4070 -0.8111
 4780TIP3   OH235830   0.603   3.738  16.335  0.0906 -0.1180  0.0248
 4780TIP3    H135831   0.696   3.719  16.325 -0.0073  0.1468 -1.5392
 4780TIP3    H235832   0.601   3.820  16.384  0.7190  0.5033 -0.9626
 4781TIP3   OH235833   0.119   4.832   2.161 -0.2002 -0.5491  0.1266
 4781TIP3    H135834   0.052   4.784   2.210  1.8854 -2.1910  1.5428
 4781TIP3    H235835   0.120   4.792   2.074 -0.6300 -0.9121  0.2885
 4782TIP3   OH235836   4.004   3.770  10.560  0.2557 -0.5580  0.6992
 4782TIP3    H135837   3.981   3.859  10.533  1.0930 -0.6630 -0.4345
 4782TIP3    H235838   3.941   3.749  10.629 -1.5405 -0.0019 -0.6960
 4783TIP3   OH235839   1.548   3.121  15.307  0.1548  0.0950 -0.0193
 4783TIP3    H135840   1.551   3.035  15.349 -1.1872  0.2548  0.4657
 4783TIP3    H235841   1.499   3.107  15.226 -0.6190  0.5002  0.3646
 4784TIP3   OH235842   3.310   3.157  15.107  0.1272  0.1741  0.0629
 4784TIP3    H135843   3.338   3.114  15.188  0.4538 -1.3609 -0.8139
 4784TIP3    H235844   3.388   3.205  15.078 -0.4139  1.9155  1.3528
 4785TIP3   OH235845   1.918   3.261   5.294 -0.0348 -0.5370 -0.2793
 4785TIP3    H135846   1.984   3.241   5.360  0.0242 -0.5096 -0.3298
 4785TIP3    H235847   1.932   3.354   5.273 -0.1391 -0.5107 -0.2339
 4786TIP3   OH235848   4.756   3.610   1.655  0.3541 -0.0466 -0.2759
 4786TIP3    H135849   4.771   3.704   1.657  0.0262  0.0208 -0.7993
 4786TIP3    H235850   4.764   3.586   1.562  1.6977 -0.7468 -0.0204
 4787TIP3   OH235851   4.687   5.058   4.245  0.4743 -0.2821  0.2104
 4787TIP3    H135852   4.676   5.098   4.158 -1.7771 -0.7383  0.2087
 4787TIP3    H235853   4.729   4.974   4.228  3.5550  1.1815  0.0230
 4788TIP3   OH235854   1.787   0.501   5.235  0.1219 -0.1642 -0.5314
 4788TIP3    H135855   1.866   0.451   5.214  0.3638 -0.0515  0.0897
 4788TIP3    H235856   1.742   0.447   5.300  0.4747  0.4975  0.2779
 4789TIP3   OH235857   3.208   1.832  17.127  0.4097  0.8799 -0.3670
 4789TIP3    H135858   3.163   1.759  17.169  0.1162  1.4763  0.3694
 4789TIP3    H235859   3.261   1.871  17.196 -0.9240  2.5430 -0.2251
 4790TIP3   OH235860   2.860   2.325  14.838  0.3647  0.4729 -0.2361
 4790TIP3    H135861   2.816   2.382  14.775  0.1376  0.9880  0.3742
 4790TIP3    H235862   2.905   2.260  14.785 -1.0376  0.0008 -0.9018
 4791TIP3   OH235863   6.188   6.421   4.353  0.3102  0.2938 -0.3100
 4791TIP3    H135864   6.227   6.378   4.277  0.6679 -0.3361  0.2197
 4791TIP3    H235865   6.155   6.504   4.319  0.4446  0.0140 -1.1573
 4792TIP3   OH235866   0.102   4.811  16.518 -0.2957 -0.2904  0.2609
 4792TIP3    H135867   0.038   4.769  16.575 -0.3478  0.9440  1.1456
 4792TIP3    H235868   0.085   4.774  16.432 -1.1282 -1.1722  0.7830
 4793TIP3   OH235869   2.267   2.432   1.847 -0.2506  0.3244 -0.2515
 4793TIP3    H135870   2.222   2.441   1.762 -0.3585 -2.0024 -0.5145
 4793TIP3    H235871   2.356   2.464   1.830 -0.5016  0.6420 -1.0258
 4794TIP3   OH235872   3.511   0.479   0.075  0.3584  0.3443 -0.1066
 4794TIP3    H135873   3.461   0.442   0.002 -1.5260  1.9595  0.2807
 4794TIP3    H235874   3.569   0.408   0.102 -0.2141 -0.9136 -1.9723
 4795TIP3   OH235875   0.340   6.160   1.560 -0.1618 -0.2132  0.5317
 4795TIP3    H135876   0.280   6.194   1.494 -1.2737 -3.1433 -0.1696
 4795TIP3    H235877   0.338   6.225   1.630  1.4891  3.3159 -2.3873
 4796TIP3   OH235878   1.510   3.587   2.768 -0.5527 -0.8145 -0.0736
 4796TIP3    H135879   1.555   3.526   2.710  0.1405 -0.9976  0.6375
 4796TIP3    H235880   1.456   3.532   2.824 -0.7922 -0.6825 -0.1727
 4797TIP3   OH235881   5.195   4.922   1.335 -0.3419 -0.5441 -0.0019
 4797TIP3    H135882   5.205   4.834   1.299 -0.7549 -0.4368 -0.3814
 4797TIP3    H235883   5.203   4.980   1.259  0.3506 -0.2238  0.3017
 4798TIP3   OH235884   0.978   5.729   6.020  0.9739  0.0564 -0.0216
 4798TIP3    H135885   1.059   5.696   6.061  1.2962 -0.5348 -1.1092
 4798TIP3    H235886   0.989   5.710   5.927 -0.4614 -0.0982 -0.1752
 4799TIP3   OH235887   5.084   0.687  14.348 -0.0616 -0.1622 -0.0762
 4799TIP3    H135888   5.047   0.601  14.333  0.2781 -0.4971  0.9220
 4799TIP3    H235889   5.179   0.674  14.341 -0.0501  0.3521 -0.9893
 4800TIP3   OH235890   3.390   3.336  11.765 -0.1181  0.3251 -0.2292
 4800TIP3    H135891   3.310   3.326  11.817  1.1971  0.4881  1.9470
 4800TIP3    H235892   3.421   3.246  11.753  1.6999  0.4169  2.9013
 4801TIP3   OH235893   3.505   6.775   1.686  0.4142  0.3357 -0.3159
 4801TIP3    H135894   3.529   6.864   1.714  0.5928  0.9229 -2.1812
 4801TIP3    H235895   3.410   6.773   1.694  0.4118  0.6772 -0.2028
 4802TIP3   OH235896   4.221   2.813   5.804  0.2559  0.2767  0.5666
 4802TIP3    H135897   4.175   2.754   5.864  0.0977  0.8357  1.0086
 4802TIP3    H235898   4.312   2.808   5.832  0.9598 -2.5668 -1.7242
 4803TIP3   OH235899   1.364   5.756  15.680  0.0691  0.3684 -0.0293
 4803TIP3    H135900   1.354   5.725  15.770 -0.6123  0.7575  0.0344
 4803TIP3    H235901   1.305   5.831  15.673  1.1195  1.1894 -0.4040
 4804TIP3   OH235902   1.362   6.131  14.148  0.5653 -0.0516 -1.1924
 4804TIP3    H135903   1.451   6.111  14.119  1.4383 -1.0582  1.7628
 4804TIP3    H235904   1.360   6.226  14.156  2.0461 -0.0987  0.3606
 4805TIP3   OH235905   1.053   2.791  12.465 -0.1929 -0.0244 -0.2426
 4805TIP3    H135906   0.973   2.738  12.473 -1.6429  2.1254  0.5407
 4805TIP3    H235907   1.097   2.781  12.549  0.4060 -1.2159 -0.6756
 4806TIP3   OH235908   2.304   4.256   2.795 -0.0860  0.1390  0.3594
 4806TIP3    H135909   2.377   4.194   2.800 -0.7673 -0.7291 -0.0227
 4806TIP3    H235910   2.284   4.278   2.886 -1.0407 -1.7078  0.6474
 4807TIP3   OH235911   0.368   3.945   0.521  0.9619  0.1929  0.5978
 4807TIP3    H135912   0.462   3.958   0.511  0.7722  0.8796 -0.5164
 4807TIP3    H235913   0.345   3.884   0.452  0.4887  0.5638  0.4182
 4808TIP3   OH235914   5.699   2.079   2.476  0.7467  0.0224  0.0182
 4808TIP3    H135915   5.717   2.131   2.554 -0.4396  1.5587 -0.6696
 4808TIP3    H235916   5.673   2.144   2.410 -1.1629 -1.4505 -0.7888
 4809TIP3   OH235917   2.511   5.653  16.079 -0.1983  0.5692  0.1550
 4809TIP3    H135918   2.523   5.697  16.163  0.7826  2.0569 -0.7151
 4809TIP3    H235919   2.471   5.719  16.023 -2.7813 -1.0099 -0.0565
 4810TIP3   OH235920   4.930   1.394   1.494 -0.6029  0.1402  0.0765
 4810TIP3    H135921   4.966   1.470   1.540 -0.6379 -0.9045  1.9269
 4810TIP3    H235922   4.841   1.384   1.529 -0.2767 -1.2826  0.5465
 4811TIP3   OH235923   2.517   5.081   5.112  0.2022  0.6337  0.4629
 4811TIP3    H135924   2.583   5.040   5.057  0.0090  3.3897 -2.1102
 4811TIP3    H235925   2.512   5.026   5.190  1.5747 -2.7105 -1.6052
 4812TIP3   OH235926   3.664   1.691  16.445 -0.2263 -0.7265 -0.3992
 4812TIP3    H135927   3.737   1.678  16.506 -0.8732 -1.2821  0.2811
 4812TIP3    H235928   3.634   1.602  16.427 -1.6809 -0.4543  0.5149
 4813TIP3   OH235929   5.350   3.697   0.941 -0.1530 -0.0123  0.5977
 4813TIP3    H135930   5.276   3.748   0.973 -0.0497  0.2718  0.3860
 4813TIP3    H235931   5.322   3.606   0.949 -0.8025  0.1154 -0.1612
 4814TIP3   OH235932   1.964   0.303  13.438 -0.5198 -0.4183 -0.0542
 4814TIP3    H135933   1.872   0.300  13.463 -0.5677 -2.1196 -0.3196
 4814TIP3    H235934   1.971   0.241  13.366  0.5756  0.7422 -1.0148
 4815TIP3   OH235935   0.242   0.603  17.248 -0.3693  0.0768  0.1032
 4815TIP3    H135936   0.176   0.570  17.187 -0.2171  1.0729 -0.6228
 4815TIP3    H235937   0.246   0.538  17.317 -0.4288 -1.1767 -1.0332
 4816TIP3   OH235938   4.241   0.453   2.123 -0.3039 -0.0981  0.3427
 4816TIP3    H135939   4.245   0.458   2.028 -0.7153 -1.0142  0.2687
 4816TIP3    H235940   4.205   0.366   2.141  2.1236 -0.9724  1.3637
 4817TIP3   OH235941   4.392   6.664  13.563 -0.3058  0.6028 -0.2615
 4817TIP3    H135942   4.396   6.706  13.648 -3.5247 -0.2071  0.4128
 4817TIP3    H235943   4.298   6.658  13.543  0.0973 -2.9540 -1.9204
 4818TIP3   OH235944   4.132   6.155  12.697  0.1987  0.1306 -0.2614
 4818TIP3    H135945   4.156   6.248  12.706 -1.4712  0.6171 -0.4428
 4818TIP3    H235946   4.095   6.149  12.609  0.7247 -0.8214 -0.4216
 4819TIP3   OH235947   2.289   6.052  16.859 -0.2265 -0.6355  0.2147
 4819TIP3    H135948   2.219   6.117  16.867 -1.3389 -1.9521  1.8146
 4819TIP3    H235949   2.295   6.012  16.946  0.9068 -2.1821 -0.5190
 4820TIP3   OH235950   0.646   3.873   0.445 -0.4202  0.2446 -0.1349
 4820TIP3    H135951   0.697   3.935   0.393  0.1780 -0.0627  0.0800
 4820TIP3    H235952   0.662   3.788   0.404 -0.9349  0.1714 -0.1966
 4821TIP3   OH235953   5.169   5.005  14.612 -0.1893  0.5056  0.0656
 4821TIP3    H135954   5.118   4.963  14.543 -0.6740  0.3706  0.4936
 4821TIP3    H235955   5.105   5.061  14.657  0.1819  0.7975  0.2320
 4822TIP3   OH235956   6.174   5.606  13.105 -0.3373  0.2471 -0.8513
 4822TIP3    H135957   6.202   5.690  13.069  1.2837 -0.1860 -0.6784
 4822TIP3    H235958   6.149   5.626  13.195 -0.6837  0.6676 -1.0354
 4823TIP3   OH235959   6.149   0.351  13.788  0.0998  0.2621 -0.3022
 4823TIP3    H135960   6.141   0.371  13.695  0.9574  0.8260 -0.2696
 4823TIP3    H235961   6.074   0.295  13.808  1.0139 -1.6172 -1.7991
 4824TIP3   OH235962   5.487   4.724   4.418 -0.1726  0.0796 -0.2700
 4824TIP3    H135963   5.544   4.797   4.441 -1.4573  1.3217 -0.8116
 4824TIP3    H235964   5.531   4.646   4.452  1.5483  1.0314 -0.2193
 4825TIP3   OH235965   3.486   6.400   4.058  0.2019  0.1333 -0.3298
 4825TIP3    H135966   3.400   6.439   4.074 -0.4624 -1.7110  0.9914
 4825TIP3    H235967   3.500   6.408   3.964 -2.7001 -1.9159 -1.0825
 4826TIP3   OH235968   6.404   3.069   5.151 -0.2738  0.3784  0.5147
 4826TIP3    H135969   6.460   3.134   5.194  0.2791 -0.0010  0.3828
 4826TIP3    H235970   6.415   3.086   5.058  0.0278 -0.0266  0.4748
 4827TIP3   OH235971   5.751   1.142  11.579  0.3534  0.0099 -0.1611
 4827TIP3    H135972   5.767   1.224  11.625 -1.7380 -0.8467  2.3815
 4827TIP3    H235973   5.827   1.130  11.523  2.8348  1.5456  2.5891
 4828TIP3   OH235974   4.643   6.194   4.026 -0.0547  0.1944 -0.5329
 4828TIP3    H135975   4.586   6.128   3.986  1.3642 -0.2143 -1.9900
 4828TIP3    H235976   4.622   6.274   3.980 -0.2676  0.3139 -0.2363
 4829TIP3   OH235977   2.563   0.063  16.481 -0.0179 -0.4692  0.2036
 4829TIP3    H135978   2.588   0.150  16.449  0.2996 -1.0173 -1.0884
 4829TIP3    H235979   2.529   0.079  16.569 -1.3241  1.1480 -0.5419
 4830TIP3   OH235980   3.064   2.742   6.831 -0.6870  0.7438 -0.7741
 4830TIP3    H135981   3.024   2.778   6.911  0.2547 -0.0489  0.0742
 4830TIP3    H235982   3.030   2.798   6.761 -2.6456  0.6105 -0.0096
 4831TIP3   OH235983   4.686   0.407   5.226 -0.3620 -0.1758 -0.1271
 4831TIP3    H135984   4.607   0.381   5.274 -1.3206 -0.3525 -1.7072
 4831TIP3    H235985   4.655   0.469   5.161  0.9539  0.3537 -0.2768
 4832TIP3   OH235986   2.938   5.309  12.739  0.6926  0.3807  0.7521
 4832TIP3    H135987   2.849   5.308  12.702  0.1129 -0.2860  2.0949
 4832TIP3    H235988   2.928   5.349  12.825  2.1747  2.7492 -0.0912
 4833TIP3   OH235989   6.703   1.887   3.315  0.3147 -0.3184  0.2004
 4833TIP3    H135990   6.661   1.808   3.349  0.4405 -0.5595 -0.1992
 4833TIP3    H235991   6.631   1.940   3.281  0.0198  0.5464  2.0387
 4834TIP3   OH235992   0.180   5.273   3.492 -0.0979 -0.2577 -0.2020
 4834TIP3    H135993   0.229   5.326   3.430  2.0212 -2.0909 -0.1996
 4834TIP3    H235994   0.151   5.198   3.441  3.4732 -2.8988  1.2362
 4835TIP3   OH235995   2.970   5.324  11.927  0.2391  0.9495 -0.4181
 4835TIP3    H135996   2.883   5.285  11.924  0.5404  0.2301  0.1219
 4835TIP3    H235997   2.958   5.406  11.975 -0.2773  1.2341 -1.0175
 4836TIP3   OH235998   3.589   5.250   4.884  0.1747 -0.5568 -0.2675
 4836TIP3    H135999   3.651   5.181   4.908  1.2723  0.3505 -0.3911
 4836TIP3    H236000   3.630   5.331   4.915 -0.8386  0.0965 -0.5780
 4837TIP3   OH236001   1.861   1.159   2.816  0.2229  0.5143  0.2621
 4837TIP3    H136002   1.913   1.177   2.894 -0.2435  0.5426  0.5676
 4837TIP3    H236003   1.901   1.213   2.748  0.5470  0.5930  0.5143
 4838TIP3   OH236004   1.670   4.914  16.886  0.3069 -0.1401 -0.3217
 4838TIP3    H136005   1.623   4.988  16.923 -1.8315 -1.2006 -0.7779
 4838TIP3    H236006   1.755   4.915  16.930 -0.5419  1.1780  1.4133
 4839TIP3   OH236007   4.036   1.232   3.573  0.2423 -0.1488  0.3579
 4839TIP3    H136008   4.077   1.242   3.659  0.8877 -0.7635  0.1356
 4839TIP3    H236009   4.096   1.175   3.525 -0.8246 -1.0034 -0.0081
 4840TIP3   OH236010   3.037   0.346  15.350 -0.6537 -0.3413 -0.3723
 4840TIP3    H136011   3.111   0.318  15.297  0.0405  0.6044  0.0761
 4840TIP3    H236012   2.988   0.266  15.366  0.5481 -1.0780 -0.2540
 4841TIP3   OH236013   5.882   4.396   5.767 -0.1537 -0.1943 -0.6053
 4841TIP3    H136014   5.871   4.312   5.811 -0.1308  0.0474 -0.1260
 4841TIP3    H236015   5.829   4.457   5.819  1.3150  0.4640  0.2002
 4842TIP3   OH236016   1.472   3.802  17.208  0.4750  0.5135 -0.0711
 4842TIP3    H136017   1.568   3.802  17.210  0.4727  0.9515  0.7109
 4842TIP3    H236018   1.449   3.860  17.135  0.7900 -1.1085 -1.4985
 4843TIP3   OH236019   5.103   5.008   2.461 -0.0148 -0.5231 -0.3721
 4843TIP3    H136020   5.097   5.039   2.551  2.4844  1.0166 -0.6299
 4843TIP3    H236021   5.012   4.991   2.435 -1.5801  4.4627  0.6480
 4844TIP3   OH236022   4.932   5.763  11.538  0.0202 -0.0368  0.0940
 4844TIP3    H136023   4.947   5.678  11.496  1.5055  0.9587 -1.5642
 4844TIP3    H236024   4.866   5.806  11.483  0.8550  0.6814 -0.3851
 4845TIP3   OH236025   0.457   0.850  13.561 -0.1128  0.2679  0.4651
 4845TIP3    H136026   0.444   0.913  13.632 -1.9365  1.3909 -0.7879
 4845TIP3    H236027   0.403   0.775  13.585 -1.0572  0.8163  0.0842
 4846TIP3   OH236028   0.278   2.238   4.619 -0.4247  0.0489 -0.0982
 4846TIP3    H136029   0.348   2.283   4.666 -0.6818 -0.8978  1.2571
 4846TIP3    H236030   0.199   2.260   4.667 -1.3078  2.0283 -2.2653
 4847TIP3   OH236031   5.036   3.239  12.124 -0.9035  0.1658  0.0247
 4847TIP3    H136032   4.946   3.206  12.115 -0.5019 -0.6471 -1.3135
 4847TIP3    H236033   5.065   3.256  12.035  0.6809 -0.7155  0.3312
 4848TIP3   OH236034   5.107   0.799  15.013 -0.2016  0.6792  0.1217
 4848TIP3    H136035   5.152   0.874  14.975  0.1824 -0.6304 -2.2459
 4848TIP3    H236036   5.014   0.822  15.010 -0.0134  1.5219  0.5748
 4849TIP3   OH236037   4.611   2.225  12.256 -0.1998  0.5911  0.0757
 4849TIP3    H136038   4.573   2.184  12.178  0.5814 -0.9576  0.4604
 4849TIP3    H236039   4.558   2.303  12.271 -2.1976 -0.6337 -0.3259
 4850TIP3   OH236040   3.476   5.849   0.888 -0.2887 -0.0374  0.2003
 4850TIP3    H136041   3.550   5.825   0.944 -1.4117 -0.2162  1.6822
 4850TIP3    H236042   3.428   5.768   0.876 -0.5647  0.1906 -0.2576
 4851TIP3   OH236043   6.024   5.295   2.712 -0.5251 -0.2913 -0.1486
 4851TIP3    H136044   5.990   5.375   2.672 -1.1692 -1.0379 -1.1117
 4851TIP3    H236045   6.097   5.326   2.766  0.4599  0.7443 -1.9582
 4852TIP3   OH236046   4.569   0.167  12.640  0.4846 -0.1230 -0.1754
 4852TIP3    H136047   4.532   0.220  12.570  0.0470 -1.6227 -1.1083
 4852TIP3    H236048   4.613   0.231  12.697 -1.4308  1.4223 -0.3381
 4853TIP3   OH236049   6.751   3.788  11.144  0.0992 -0.2092 -0.3959
 4853TIP3    H136050   6.813   3.777  11.072 -1.9008 -0.9710 -2.1405
 4853TIP3    H236051   6.704   3.705  11.148 -1.1577  0.4988  0.4700
 4854TIP3   OH236052   4.360   3.378  14.094 -0.4381  0.3144  0.4993
 4854TIP3    H136053   4.426   3.428  14.142 -0.1047  1.0037 -0.6423
 4854TIP3    H236054   4.277   3.421  14.117 -0.7525 -1.4057  3.0425
 4855TIP3   OH236055   1.692   2.715  16.292 -0.4750  0.1339  0.4272
 4855TIP3    H136056   1.750   2.788  16.316 -0.2324 -0.1721  0.7832
 4855TIP3    H236057   1.661   2.737  16.204 -0.7498  0.8785  0.7041
 4856TIP3   OH236058   4.649   3.530  16.764  0.0348  0.1027 -0.8767
 4856TIP3    H136059   4.574   3.495  16.811  0.9222 -0.5994  0.0553
 4856TIP3    H236060   4.711   3.555  16.832  0.3151  1.4672 -1.6027
 4857TIP3   OH236061   3.595   4.251  15.174  0.1125  0.1181 -0.0934
 4857TIP3    H136062   3.567   4.220  15.260  1.0406  0.6980  0.4361
 4857TIP3    H236063   3.652   4.181  15.141  0.1688  0.1240 -0.0099
 4858TIP3   OH236064   4.482   4.913  14.992  0.2496 -0.3755  0.0251
 4858TIP3    H136065   4.412   4.914  15.058 -0.6040  0.0314 -0.8622
 4858TIP3    H236066   4.561   4.892  15.042 -0.2578  0.5620  1.2787
 4859TIP3   OH236067   0.072   5.858   3.075  0.1287 -0.1555 -0.4759
 4859TIP3    H136068   0.145   5.919   3.072  0.3626 -0.4372 -0.4684
 4859TIP3    H236069   0.048   5.843   2.984  0.2828 -0.3065 -0.4920
 4860TIP3   OH236070   3.055   6.461   6.785 -0.6094  0.2015 -0.6808
 4860TIP3    H136071   3.040   6.372   6.753 -1.1930 -0.6457  1.7222
 4860TIP3    H236072   3.149   6.464   6.802 -0.7958 -0.5355  0.6495
 4861TIP3   OH236073   0.640   4.217   1.319  0.6331 -0.2966  0.1306
 4861TIP3    H136074   0.548   4.232   1.295  1.1517  1.9551 -0.6387
 4861TIP3    H236075   0.662   4.135   1.274 -0.8218 -0.5710 -0.1507
 4862TIP3   OH236076   3.774   1.750  13.375  0.2563 -0.1718  0.2463
 4862TIP3    H136077   3.862   1.713  13.368 -0.1754 -0.9772 -1.5603
 4862TIP3    H236078   3.787   1.836  13.415  1.7972 -0.4636  0.4339
 4863TIP3   OH236079   3.319   0.728   1.166  0.0280  0.0190 -0.9576
 4863TIP3    H136080   3.409   0.706   1.140  0.1605 -1.4472  0.5684
 4863TIP3    H236081   3.328   0.772   1.250 -0.7226 -1.7171  0.0896
 4864TIP3   OH236082   6.192   3.103  12.841  0.0290 -0.0646 -0.1510
 4864TIP3    H136083   6.272   3.119  12.893 -0.5532  1.3897  0.3554
 4864TIP3    H236084   6.140   3.182  12.854 -0.1846  0.3299 -2.9350
 4865TIP3   OH236085   4.978   3.212  10.408  0.2994 -0.2712 -0.7175
 4865TIP3    H136086   4.886   3.231  10.424  0.7308  0.2371  1.5849
 4865TIP3    H236087   5.017   3.209  10.496  2.9273  1.9347 -1.6783
 4866TIP3   OH236088   0.635   4.089  13.308  0.1544  0.3354  0.3503
 4866TIP3    H136089   0.574   4.072  13.379 -1.0512 -1.2003 -0.9772
 4866TIP3    H236090   0.668   4.003  13.283  0.4727  0.8166 -1.0098
 4867TIP3   OH236091   6.572   6.083   5.990 -0.3986 -0.3341 -0.2374
 4867TIP3    H136092   6.577   6.048   6.079 -1.0063 -0.9383 -0.4307
 4867TIP3    H236093   6.483   6.064   5.962 -0.5448  0.8066 -0.5990
 4868TIP3   OH236094   5.703   5.372  11.544 -0.1627 -0.4308  0.2108
 4868TIP3    H136095   5.700   5.466  11.526 -0.0311 -0.0878  1.8421
 4868TIP3    H236096   5.653   5.361  11.624 -0.7018 -1.8676 -0.2871
 4869TIP3   OH236097   5.624   1.509   6.145  0.2272 -0.0275  0.1285
 4869TIP3    H136098   5.577   1.490   6.226 -0.4693  0.7915 -0.0715
 4869TIP3    H236099   5.705   1.458   6.152  0.7878  1.0286  1.9234
 4870TIP3   OH236100   1.472   2.152   5.431  0.3642  0.2703  0.3305
 4870TIP3    H136101   1.459   2.115   5.518 -1.3827  0.8813  0.3735
 4870TIP3    H236102   1.402   2.113   5.378  2.7977 -1.9930 -1.5090
 4871TIP3   OH236103   5.801   6.369  15.424  0.1557  0.2725 -0.1925
 4871TIP3    H136104   5.735   6.401  15.363  0.8324 -0.1579 -1.1842
 4871TIP3    H236105   5.791   6.424  15.501 -0.6130  0.9438 -0.7545
 4872TIP3   OH236106   4.922   0.767  12.615  0.7462 -1.0211  0.6746
 4872TIP3    H136107   4.916   0.679  12.652  1.1554 -1.6349 -0.6403
 4872TIP3    H236108   4.992   0.761  12.550  0.0177 -0.0185 -0.2412
 4873TIP3   OH236109   1.210   1.010  13.727  0.1962  0.0255  0.3180
 4873TIP3    H136110   1.202   1.068  13.651  1.1562 -0.5802 -0.2487
 4873TIP3    H236111   1.124   1.016  13.770  0.0830  1.4223 -0.0409
 4874TIP3   OH236112   0.297   4.711  13.028 -0.1981  0.2153  0.8413
 4874TIP3    H136113   0.347   4.695  12.947  0.8779  0.5615  1.4217
 4874TIP3    H236114   0.210   4.736  12.998 -1.3424 -4.1428 -0.2287
 4875TIP3   OH236115   3.554   4.569  16.161 -0.4937 -0.0868 -0.4539
 4875TIP3    H136116   3.529   4.661  16.154 -0.4833  0.1027  1.4310
 4875TIP3    H236117   3.476   4.520  16.136  0.0554  0.3444 -3.3580
 4876TIP3   OH236118   1.900   4.403  12.968 -0.2735  0.3690 -0.0408
 4876TIP3    H136119   1.945   4.318  12.963 -0.2482  0.4214 -0.7303
 4876TIP3    H236120   1.916   4.444  12.883  1.7615  2.1121  1.0638
 4877TIP3   OH236121   1.281   0.696  13.053  0.3378 -0.4835  0.0186
 4877TIP3    H136122   1.343   0.633  13.015 -1.1051 -0.6336 -2.2882
 4877TIP3    H236123   1.207   0.642  13.081 -0.7621  0.0715 -1.6572
 4878TIP3   OH236124   1.376   4.303   2.584 -0.0621  0.3464 -0.2105
 4878TIP3    H136125   1.336   4.239   2.643 -0.0807 -0.6026 -1.2105
 4878TIP3    H236126   1.455   4.259   2.552 -0.3898  0.5661 -1.3856
 4879TIP3   OH236127   4.416   0.296  15.613  0.1206 -0.0053 -0.2173
 4879TIP3    H136128   4.331   0.264  15.644 -1.2097 -0.1116 -3.5869
 4879TIP3    H236129   4.474   0.220  15.622 -0.3931 -0.2907  1.0049
 4880TIP3   OH236130   3.555   5.483  15.670  0.4980 -0.1344  0.2301
 4880TIP3    H136131   3.487   5.426  15.635  0.9009  0.3323 -1.4558
 4880TIP3    H236132   3.586   5.440  15.749 -0.6487 -1.1578  0.1396
 4881TIP3   OH236133   3.768   3.056  13.908  0.1351 -0.0581  0.5976
 4881TIP3    H136134   3.769   2.996  13.983 -3.6350 -1.6324 -0.3750
 4881TIP3    H236135   3.694   3.114  13.925 -0.3482  0.0215 -1.5083
 4882TIP3   OH236136   0.957   1.023  12.794  0.0609  0.2243 -0.1224
 4882TIP3    H136137   0.987   0.938  12.761 -0.8159 -1.5989  3.2875
 4882TIP3    H236138   1.031   1.055  12.846 -0.5442  0.2411  0.7438
 4883TIP3   OH236139   3.073   3.647   0.250 -0.0302  0.6086  0.0993
 4883TIP3    H136140   3.078   3.566   0.199 -1.6187  0.7170 -0.2741
 4883TIP3    H236141   2.994   3.636   0.303  0.6141  1.2609  1.2297
 4884TIP3   OH236142   3.383   0.867  14.111 -0.6358  0.1112 -0.6523
 4884TIP3    H136143   3.348   0.783  14.081  0.6719 -0.4670 -0.6333
 4884TIP3    H236144   3.333   0.932  14.062 -2.7694 -0.5831  0.4813
 4885TIP3   OH236145   1.661   2.378  16.628  0.4377 -0.0882 -0.2920
 4885TIP3    H136146   1.720   2.348  16.559  2.4323  0.3839  1.1228
 4885TIP3    H236147   1.576   2.388  16.584  1.3798 -0.7812 -2.4118
 4886TIP3   OH236148   5.533   1.418  16.545 -0.3902 -0.9513 -0.2209
 4886TIP3    H136149   5.605   1.356  16.544 -0.3713 -1.0348 -3.2451
 4886TIP3    H236150   5.459   1.369  16.582  0.4202 -1.7055  0.4196
 4887TIP3   OH236151   0.588   2.078   4.445 -0.3153  1.1066  0.5382
 4887TIP3    H136152   0.641   2.157   4.431 -0.6679  0.9366 -2.3662
 4887TIP3    H236153   0.651   2.006   4.442 -0.3322  1.0977  0.4186
 4888TIP3   OH236154   3.107   3.543   3.110  0.2714  0.4710  0.5135
 4888TIP3    H136155   3.124   3.635   3.131  1.5030 -0.0463  1.9043
 4888TIP3    H236156   3.141   3.495   3.185  1.6662 -1.2789 -1.1612
 4889TIP3   OH236157   0.464   0.161  11.522  0.2771 -0.3931 -0.0705
 4889TIP3    H136158   0.468   0.256  11.536  1.2572 -0.3144 -0.8009
 4889TIP3    H236159   0.395   0.131  11.581  0.1558  0.7361  0.3832
 4890TIP3   OH236160   5.828   3.375  11.352  0.4671 -0.2630 -0.0029
 4890TIP3    H136161   5.826   3.443  11.285  0.7363 -1.4236 -1.2207
 4890TIP3    H236162   5.746   3.387  11.401  0.3990  0.7662 -0.3407
 4891TIP3   OH236163   3.055   0.763  12.894  0.0953 -0.3706  0.1530
 4891TIP3    H136164   3.101   0.808  12.823  1.0347 -1.5301 -0.0144
 4891TIP3    H236165   3.120   0.760  12.966 -1.0331  1.3133  1.3118
 4892TIP3   OH236166   0.362   3.287   3.373  0.5988 -0.1671  0.4059
 4892TIP3    H136167   0.456   3.307   3.377 -0.0485  3.1471  1.4284
 4892TIP3    H236168   0.345   3.274   3.280  1.5657  2.3517 -0.1989
 4893TIP3   OH236169   1.286   3.934   3.557 -0.6666 -0.0918 -0.5168
 4893TIP3    H136170   1.219   3.942   3.489  0.2053 -0.5251 -1.4443
 4893TIP3    H236171   1.290   3.839   3.574  0.9838 -0.2807 -1.7896
 4894TIP3   OH236172   6.685   0.992   0.537 -0.2616  0.4892 -0.1900
 4894TIP3    H136173   6.691   0.944   0.620 -0.8964 -1.2810 -1.1141
 4894TIP3    H236174   6.657   1.080   0.562 -0.6601 -0.0667  1.4535
 4895TIP3   OH236175   4.195   4.775   1.430 -0.1954  0.3300  0.0127
 4895TIP3    H136176   4.250   4.785   1.508 -0.0897 -1.5883  0.2377
 4895TIP3    H236177   4.257   4.753   1.360 -0.3970  0.9970 -0.3781
 4896TIP3   OH236178   3.097   2.806  12.565 -0.2149  0.1000  0.6775
 4896TIP3    H136179   3.029   2.825  12.501 -0.3109  0.3584  0.8551
 4896TIP3    H236180   3.113   2.712  12.555  0.4780  0.3165 -0.4069
 4897TIP3   OH236181   1.931   2.247  12.110  0.6431 -1.2345  0.2362
 4897TIP3    H136182   2.001   2.286  12.058  0.5617 -0.7365  0.4978
 4897TIP3    H236183   1.898   2.175  12.055  0.7328 -0.8841 -0.2853
 4898TIP3   OH236184   2.198   6.618   1.202  0.4505 -0.6019  0.1411
 4898TIP3    H136185   2.275   6.672   1.183  0.6056 -1.4987 -2.1131
 4898TIP3    H236186   2.231   6.529   1.209 -0.1224 -0.7416  1.3655
 4899TIP3   OH236187   3.248   4.368   4.470 -0.4873 -0.1525  0.2638
 4899TIP3    H136188   3.224   4.364   4.378 -1.4323 -0.6873  0.5296
 4899TIP3    H236189   3.340   4.396   4.469 -0.9961  1.6974 -0.7808
 4900TIP3   OH236190   0.772   3.558  13.383 -0.0445 -0.1519 -0.4672
 4900TIP3    H136191   0.824   3.477  13.390  0.4980  0.2745  0.5636
 4900TIP3    H236192   0.763   3.572  13.289  0.9500 -0.7270 -0.6629
 4901TIP3   OH236193   3.428   0.777  17.217 -0.7434 -0.3117  0.1863
 4901TIP3    H136194   3.465   0.748  17.301  1.9636  1.1277 -0.3994
 4901TIP3    H236195   3.394   0.865  17.236 -2.3575 -0.9055  0.2645
 4902TIP3   OH236196   0.917   0.557  16.366  0.3092  0.2668  0.1375
 4902TIP3    H136197   0.875   0.526  16.286 -2.0818  0.1561  1.3687
 4902TIP3    H236198   0.968   0.634  16.338  0.7123 -0.6152 -1.6985
 4903TIP3   OH236199   5.351   3.935   4.435 -0.2404 -0.6105  0.5499
 4903TIP3    H136200   5.390   3.905   4.517  0.0740  1.9134  1.4147
 4903TIP3    H236201   5.417   3.915   4.368 -0.3067 -2.2706  0.9367
 4904TIP3   OH236202   1.804   0.698   4.789 -0.2600  0.0159  0.0439
 4904TIP3    H136203   1.818   0.717   4.882 -0.5308  0.2815  0.0336
 4904TIP3    H236204   1.821   0.604   4.781  2.0386  0.3830 -0.0813
 4905TIP3   OH236205   1.830   6.287   3.445 -0.8130 -0.1488  0.2604
 4905TIP3    H136206   1.862   6.374   3.470  2.4188 -0.7609 -1.3064
 4905TIP3    H236207   1.885   6.226   3.495 -1.5688 -1.3063 -0.2882
 4906TIP3   OH236208   5.979   5.018  16.305 -0.0774  0.1264 -0.3914
 4906TIP3    H136209   6.045   5.012  16.237 -0.1461 -0.8207 -0.3891
 4906TIP3    H236210   5.908   4.961  16.274  0.1882 -0.9002  0.7839
 4907TIP3   OH236211   6.327   2.784  15.027 -0.1489  0.0832  0.4810
 4907TIP3    H136212   6.323   2.708  14.968  1.5849  0.1434  0.2212
 4907TIP3    H236213   6.350   2.857  14.970 -2.5268  1.0084  0.6067
 4908TIP3   OH236214   2.075   2.406  15.321  0.1843 -0.3100  0.3054
 4908TIP3    H136215   2.041   2.423  15.233 -0.1273 -2.6762 -0.0896
 4908TIP3    H236216   2.090   2.493  15.358  1.2440  0.7634 -2.4139
 4909TIP3   OH236217   4.138   5.662   3.635  0.0311 -0.3657 -0.4986
 4909TIP3    H136218   4.176   5.669   3.547  0.2111  0.3395 -0.3675
 4909TIP3    H236219   4.184   5.728   3.686 -0.5824 -0.2823 -0.0535
 4910TIP3   OH236220   2.934   1.788  11.500  0.0012 -0.0600 -0.2423
 4910TIP3    H136221   3.013   1.781  11.553 -0.7009 -0.3583  0.7734
 4910TIP3    H236222   2.913   1.698  11.476  1.7645  0.1915 -3.2733
 4911TIP3   OH236223   2.326   5.408  15.511 -0.7328 -0.0241 -0.0258
 4911TIP3    H136224   2.414   5.428  15.479 -0.5585  0.3154  0.6511
 4911TIP3    H236225   2.336   5.397  15.606 -1.2080 -1.1935 -0.0930
 4912TIP3   OH236226   4.780   5.780  11.304 -0.2871 -0.0148 -0.5634
 4912TIP3    H136227   4.842   5.715  11.270  0.7197  0.5519  0.1464
 4912TIP3    H236228   4.694   5.741  11.288  0.2506 -3.2386  3.0035
 4913TIP3   OH236229   1.426   1.787   0.101 -0.2454 -0.3487 -0.2575
 4913TIP3    H136230   1.509   1.776   0.054  1.8002  1.8780  2.4507
 4913TIP3    H236231   1.412   1.704   0.146  1.3780 -0.2578  0.4635
 4914TIP3   OH236232   1.320   6.144  12.576  0.0839 -0.5496 -0.1337
 4914TIP3    H136233   1.400   6.193  12.556 -0.3846 -0.0103 -0.7459
 4914TIP3    H236234   1.344   6.052  12.563  0.0874 -0.2880 -2.3004
 4915TIP3   OH236235   2.815   1.740   3.851 -0.3693 -0.0633 -0.3007
 4915TIP3    H136236   2.768   1.673   3.800 -0.7775 -0.6787  0.8576
 4915TIP3    H236237   2.808   1.711   3.942 -0.1620  1.3270  0.1881
 4916TIP3   OH236238   6.809   1.084   5.760 -0.1694 -0.2215 -1.1197
 4916TIP3    H136239   6.890   1.133   5.743  0.3858 -0.3846  0.8064
 4916TIP3    H236240   6.749   1.150   5.795 -0.5537 -0.2838 -1.6585
 4917TIP3   OH236241   1.713   6.777   2.459  0.1025  0.4837  0.1859
 4917TIP3    H136242   1.774   6.781   2.385 -0.4176 -1.7585 -0.4583
 4917TIP3    H236243   1.639   6.726   2.426 -0.0588 -0.7635  2.2766
 4918TIP3   OH236244   4.802   2.661   2.143  0.5088  0.1715  0.5229
 4918TIP3    H136245   4.785   2.740   2.092  0.1004 -0.7625 -0.8342
 4918TIP3    H236246   4.806   2.692   2.233  2.1315  2.0299 -0.0912
 4919TIP3   OH236247   6.585   4.379  15.067  0.0756 -0.0442 -0.0659
 4919TIP3    H136248   6.569   4.473  15.059 -1.6645 -0.3318 -0.2615
 4919TIP3    H236249   6.675   4.368  15.035  0.1269  1.4607 -0.5420
 4920TIP3   OH236250   6.027   0.798   2.769  0.0463 -0.1616 -0.2185
 4920TIP3    H136251   6.023   0.893   2.771 -0.2867 -0.0820 -2.1705
 4920TIP3    H236252   5.937   0.771   2.751 -0.0790 -0.9408  1.3665
 4921TIP3   OH236253   5.001   0.927  14.220 -0.6737 -0.0970 -0.1444
 4921TIP3    H136254   5.000   0.837  14.251  0.4019 -0.3028 -0.6586
 4921TIP3    H236255   5.093   0.954  14.228 -1.3227  1.7733  2.3093
 4922TIP3   OH236256   4.718   5.295   2.093  0.3123 -0.1366  0.6903
 4922TIP3    H136257   4.650   5.362   2.082  0.6035 -0.2116 -2.1618
 4922TIP3    H236258   4.780   5.334   2.155  0.6714  2.4892 -1.1527
 4923TIP3   OH236259   5.934   0.385   4.101 -0.2269  0.8224 -0.3652
 4923TIP3    H136260   5.998   0.392   4.030 -1.5703 -0.3922 -1.7749
 4923TIP3    H236261   5.966   0.314   4.156 -1.7175 -1.9351 -2.7363
 4924TIP3   OH236262   4.372   5.721   2.858  0.8569  0.0383  0.5385
 4924TIP3    H136263   4.337   5.762   2.779  1.5678 -1.4939 -0.6217
 4924TIP3    H236264   4.326   5.764   2.930 -2.9475 -1.3307 -0.7996
 4925TIP3   OH236265   6.489   1.429  14.377  0.2307 -0.1726 -0.4648
 4925TIP3    H136266   6.518   1.359  14.318  0.7218  0.1739 -0.6446
 4925TIP3    H236267   6.399   1.446  14.351 -0.1210 -1.1975  0.0351
 4926TIP3   OH236268   2.814   2.142  11.764 -0.2495 -0.5769 -0.0781
 4926TIP3    H136269   2.858   2.194  11.697  0.5606  0.4580  1.2083
 4926TIP3    H236270   2.883   2.122  11.827 -1.0497 -1.3162  0.5817
 4927TIP3   OH236271   4.353   4.903  11.438 -0.4256  0.4871 -0.3136
 4927TIP3    H136272   4.370   4.861  11.522  0.0515  1.2156 -0.0358
 4927TIP3    H236273   4.285   4.849  11.397 -1.0351  0.4182  0.7601
 4928TIP3   OH236274   0.494   6.579  10.916  0.4156  0.5222 -0.1254
 4928TIP3    H136275   0.421   6.564  10.856 -1.5640  0.6382  2.1180
 4928TIP3    H236276   0.467   6.655  10.967  1.3122 -0.4862  1.9395
 4929TIP3   OH236277   1.556   5.741   5.427 -0.0773  0.4681  0.3348
 4929TIP3    H136278   1.472   5.767   5.389  0.2789 -0.8679 -1.5008
 4929TIP3    H236279   1.538   5.659   5.472  0.4395 -0.4595 -1.0925
 4930TIP3   OH236280   0.689   0.767   1.439 -0.2708 -0.0962 -0.8564
 4930TIP3    H136281   0.737   0.847   1.416  0.6127 -0.6395 -0.9041
 4930TIP3    H236282   0.732   0.698   1.390 -1.9628 -0.4076 -1.9951
 4931TIP3   OH236283   0.866   2.860   5.097 -0.2550  0.2747 -0.1056
 4931TIP3    H136284   0.886   2.847   5.005  0.2878 -0.5330  0.1200
 4931TIP3    H236285   0.888   2.952   5.113  1.9537 -0.1770 -0.2292
 4932TIP3   OH236286   6.679   4.043  11.117 -0.1566 -0.0009 -0.2826
 4932TIP3    H136287   6.651   4.027  11.027 -0.6453 -1.1027  0.0395
 4932TIP3    H236288   6.742   3.973  11.135 -0.3149  0.0027  0.3256
 4933TIP3   OH236289   3.100   2.506   2.029  0.2723  0.1381 -0.3751
 4933TIP3    H136290   3.052   2.460   1.961  0.3522  1.4113 -1.3361
 4933TIP3    H236291   3.033   2.530   2.094  0.4288 -2.4221  0.8384
 4934TIP3   OH236292   5.123   5.514   4.573 -0.0833 -1.0439 -0.6075
 4934TIP3    H136293   5.111   5.609   4.563 -0.3293 -0.9738  0.3042
 4934TIP3    H236294   5.216   5.504   4.592 -0.2060 -0.9178  0.0643
 4935TIP3   OH236295   3.740   1.136   3.703 -0.1979 -0.1363 -0.1078
 4935TIP3    H136296   3.793   1.124   3.782  0.5970  2.3763 -0.1818
 4935TIP3    H236297   3.658   1.174   3.735  0.2545  1.2046 -0.4584
 4936TIP3   OH236298   4.023   5.618   0.141 -0.1478  0.6269  0.2725
 4936TIP3    H136299   4.073   5.699   0.126 -1.5734  1.9541  2.1085
 4936TIP3    H236300   3.937   5.649   0.170 -1.5239 -1.5782 -1.2016
 4937TIP3   OH236301   2.271   1.029   2.648  0.2218 -0.0999 -0.1792
 4937TIP3    H136302   2.342   1.068   2.698 -0.5415  0.0472  0.8285
 4937TIP3    H236303   2.211   1.102   2.631  0.5191 -0.1267 -1.4198
 4938TIP3   OH236304   3.229   1.648   4.429 -0.0734  0.1916  0.0857
 4938TIP3    H136305   3.190   1.566   4.460 -0.9824  1.0175  1.2015
 4938TIP3    H236306   3.259   1.627   4.340 -0.1856 -1.3722  0.3743
 4939TIP3   OH236307   4.382   2.835  12.660  0.4886  0.0302 -0.3863
 4939TIP3    H136308   4.423   2.814  12.744 -1.1420  0.2561  0.5123
 4939TIP3    H236309   4.388   2.755  12.609  0.5515 -0.4403  0.3569
 4940TIP3   OH236310   4.574   4.091   0.526  0.1656 -0.6052  0.1588
 4940TIP3    H136311   4.561   4.007   0.571  1.4820 -0.2974  1.1834
 4940TIP3    H236312   4.664   4.115   0.547 -0.2226  1.1197 -0.0421
 4941TIP3   OH236313   0.689   6.446  11.041 -0.1584 -0.0719 -0.2049
 4941TIP3    H136314   0.756   6.415  10.981 -1.5504 -0.7442 -1.4622
 4941TIP3    H236315   0.612   6.461  10.986 -0.7732  1.6219  1.0396
 4942TIP3   OH236316   1.935   2.546  15.838 -0.8704  0.5328  0.2351
 4942TIP3    H136317   1.888   2.466  15.861  0.4429 -0.2879  0.1380
 4942TIP3    H236318   1.931   2.599  15.918 -0.5959 -0.1988  0.7438
 4943TIP3   OH236319   0.612   2.230  15.845 -1.1771  0.2423  0.1939
 4943TIP3    H136320   0.561   2.309  15.859 -1.6276  0.5126 -2.4222
 4943TIP3    H236321   0.547   2.159  15.841 -1.1604  0.2835 -1.0482
 4944TIP3   OH236322   5.645   5.050   2.208 -0.0023  0.1916  0.2835
 4944TIP3    H136323   5.550   5.038   2.211  0.0510 -0.2149  3.5462
 4944TIP3    H236324   5.678   4.968   2.173 -0.8210  0.3636 -0.9589
 4945TIP3   OH236325   1.887   4.407   5.092  0.1063 -0.3182  0.0006
 4945TIP3    H136326   1.975   4.368   5.087 -0.3415 -1.2187 -2.5486
 4945TIP3    H236327   1.871   4.419   5.185  2.5697 -0.9954  0.5847
 4946TIP3   OH236328   2.048   3.615   1.703  0.1789  0.0867  0.2483
 4946TIP3    H136329   2.038   3.677   1.630  1.6599  1.0317  0.7870
 4946TIP3    H236330   1.981   3.549   1.688  0.7427 -0.0355 -2.2695
 4947TIP3   OH236331   1.847   1.880   3.567 -0.3168 -0.2806 -0.3327
 4947TIP3    H136332   1.880   1.816   3.504 -1.7230 -0.1686 -1.2130
 4947TIP3    H236333   1.897   1.862   3.647  0.8266 -1.0465 -1.1837
 4948TIP3   OH236334   2.856   5.290  16.553 -0.2542  0.9361  0.1977
 4948TIP3    H136335   2.767   5.308  16.525 -0.1341 -0.1577 -0.9526
 4948TIP3    H236336   2.907   5.287  16.472  0.7142  0.8945  0.7876
 4949TIP3   OH236337   2.670   5.586   0.178 -0.0852  0.2429 -0.0239
 4949TIP3    H136338   2.664   5.608   0.271 -0.8120 -1.3691  0.3481
 4949TIP3    H236339   2.579   5.573   0.151  0.2173 -1.1075 -0.4682
 4950TIP3   OH236340   1.373   2.335   0.804  0.6043 -0.3483 -0.0804
 4950TIP3    H136341   1.426   2.352   0.725  1.3618 -3.0602 -0.2707
 4950TIP3    H236342   1.430   2.281   0.859 -0.7820 -0.5122  1.2527
 4951TIP3   OH236343   1.701   1.432   4.722 -0.1913 -0.4918 -0.1337
 4951TIP3    H136344   1.696   1.366   4.652 -0.1737  1.3087 -1.9287
 4951TIP3    H236345   1.782   1.480   4.704 -0.8581  0.8522  0.3314
 4952TIP3   OH236346   4.643   3.808  14.842 -0.0396  0.4836 -0.2127
 4952TIP3    H136347   4.667   3.772  14.756 -0.0248 -0.6984  0.2685
 4952TIP3    H236348   4.679   3.745  14.905 -0.4644  1.0905  0.6509
 4953TIP3   OH236349   3.171   0.566   5.986  0.1257 -0.0432 -0.5972
 4953TIP3    H136350   3.144   0.550   6.077 -0.5559 -0.7648 -0.9132
 4953TIP3    H236351   3.122   0.644   5.960  1.6744  1.2520  0.2030
 4954TIP3   OH236352   1.040   2.457  11.404  0.2177 -0.4722 -0.4876
 4954TIP3    H136353   1.021   2.524  11.338  1.1090  1.0076  0.7100
 4954TIP3    H236354   1.135   2.459  11.414  0.2341 -1.7587 -0.2450
 4955TIP3   OH236355   0.657   2.170   3.207 -0.6954 -0.8577 -0.0546
 4955TIP3    H136356   0.564   2.190   3.211 -1.0222 -2.3556  0.1795
 4955TIP3    H236357   0.685   2.171   3.298 -0.7123 -1.4556 -0.0437
 4956TIP3   OH236358   3.835   2.283  17.303 -0.2941 -0.0320 -0.4294
 4956TIP3    H136359   3.791   2.276  17.388 -1.0867  1.9221 -0.6287
 4956TIP3    H236360   3.897   2.210  17.302  0.6723  0.6270  2.3536
 4957TIP3   OH236361   0.595   4.759   0.769  0.0529  0.3356  0.1511
 4957TIP3    H136362   0.558   4.770   0.856  1.6256  0.7710  0.7994
 4957TIP3    H236363   0.549   4.822   0.715 -0.8097  0.1920  0.7049
 4958TIP3   OH236364   3.566   0.656  13.816  0.8809  0.4637  0.4186
 4958TIP3    H136365   3.581   0.567  13.848  1.6122  0.7445  0.8823
 4958TIP3    H236366   3.534   0.703  13.893 -1.7281  0.0897 -0.3276
 4959TIP3   OH236367   1.517   5.267   0.496  0.1199 -0.0734 -0.0437
 4959TIP3    H136368   1.458   5.276   0.421 -0.7150 -0.4374  0.5383
 4959TIP3    H236369   1.572   5.345   0.494  0.4169 -0.3034 -1.2876
 4960TIP3   OH236370   5.418   0.951  16.028  0.2646  0.3666 -0.4213
 4960TIP3    H136371   5.374   1.034  16.044  1.9877  1.0570  1.1457
 4960TIP3    H236372   5.450   0.958  15.938 -1.2888  0.5411 -0.9920
 4961TIP3   OH236373   3.165   4.711   4.304  0.1674  0.1772 -0.2368
 4961TIP3    H136374   3.223   4.768   4.254 -1.4640  1.9658 -0.2469
 4961TIP3    H236375   3.191   4.723   4.395 -0.1104  0.9272 -0.2468
 4962TIP3   OH236376   2.779   5.913   5.906 -0.3392 -0.5412 -0.1367
 4962TIP3    H136377   2.870   5.883   5.912  0.5714  2.0468  0.2153
 4962TIP3    H236378   2.752   5.928   5.996 -1.6106 -2.4532 -0.1428
 4963TIP3   OH236379   3.918   0.100   1.773  0.0140  0.5870 -0.4688
 4963TIP3    H136380   3.832   0.141   1.775  0.3652  1.3836  2.6777
 4963TIP3    H236381   3.977   0.171   1.747  0.1163  1.0313  0.9083
 4964TIP3   OH236382   4.165   0.267   4.038 -0.5117  0.3372  0.1930
 4964TIP3    H136383   4.232   0.221   4.090 -0.5268  1.2819  1.0588
 4964TIP3    H236384   4.127   0.198   3.983 -2.4319 -1.3686  3.3353
 4965TIP3   OH236385   0.311   3.759  11.449 -0.4902 -0.5104  0.0345
 4965TIP3    H136386   0.324   3.669  11.481 -1.7550 -0.3933  0.9658
 4965TIP3    H236387   0.337   3.756  11.357  2.9234 -0.9666  0.8639
 4966TIP3   OH236388   3.712   4.631   2.887  0.4801 -0.0493 -0.1676
 4966TIP3    H136389   3.622   4.631   2.854 -0.0157  1.8754  1.0169
 4966TIP3    H236390   3.754   4.556   2.844 -2.0756 -1.8958  0.3298
 4967TIP3   OH236391   0.639   0.466  15.891 -0.4013 -0.6758 -0.0366
 4967TIP3    H136392   0.670   0.395  15.835 -1.2690 -0.2776 -1.0654
 4967TIP3    H236393   0.544   0.469  15.874 -0.5002  0.1596  0.6418
 4968TIP3   OH236394   0.943   2.143   3.613 -0.2369  0.4896  0.2025
 4968TIP3    H136395   0.995   2.064   3.626 -1.1623 -0.1017  0.3031
 4968TIP3    H236396   0.870   2.116   3.558 -0.6111  1.2537  0.3095
 4969TIP3   OH236397   3.912   0.344  11.447 -0.5122 -1.2493  0.4431
 4969TIP3    H136398   3.989   0.296  11.418  0.4350  0.5534 -0.1999
 4969TIP3    H236399   3.946   0.428  11.477 -2.2117 -0.3891  0.1122
 4970TIP3   OH236400   6.051   6.812  16.311 -0.1830 -0.2032  0.0475
 4970TIP3    H136401   6.090   6.730  16.343  0.9762  0.1404 -0.4469
 4970TIP3    H236402   6.082   6.878  16.373 -1.2261 -0.1348  0.5216
 4971TIP3   OH236403   3.572   5.741  15.843  0.5525 -0.3964  0.0013
 4971TIP3    H136404   3.476   5.742  15.847  0.5693  0.6135  0.4058
 4971TIP3    H236405   3.592   5.695  15.761 -0.2202 -2.5655  0.9570
 4972TIP3   OH236406   0.026   0.991   6.269  0.3147  0.4843  0.8352
 4972TIP3    H136407  -0.039   1.037   6.216 -0.1555 -0.4782  0.5580
 4972TIP3    H236408   0.043   0.910   6.222  2.4973  1.1496  0.3856
 4973TIP3   OH236409   1.996   0.089   0.749  0.2223  0.1923 -0.3305
 4973TIP3    H136410   2.066   0.152   0.735  0.0243  1.1291  2.2839
 4973TIP3    H236411   2.040   0.005   0.755  0.8859  0.5106 -0.6332
 4974TIP3   OH236412   2.080   3.365  13.514  1.0380 -0.1304  1.1257
 4974TIP3    H136413   2.085   3.450  13.471 -3.4078  0.9499  2.1768
 4974TIP3    H236414   2.086   3.301  13.443 -0.5024  1.3352 -0.4141
 4975TIP3   OH236415   2.508   0.523  13.265 -0.0162 -0.6555  0.0898
 4975TIP3    H136416   2.450   0.532  13.189  2.2734 -0.1564 -1.6775
 4975TIP3    H236417   2.527   0.430  13.271  0.5466 -0.5843 -0.5479
 4976TIP3   OH236418   0.391   0.713  10.856  0.3262 -0.1249 -0.5224
 4976TIP3    H136419   0.459   0.645  10.847  0.7718  0.4261 -1.6194
 4976TIP3    H236420   0.337   0.702  10.778 -0.2642  0.0767 -0.1438
 4977TIP3   OH236421   1.874   6.034  12.234  0.2095  0.0888 -0.0778
 4977TIP3    H136422   1.785   6.028  12.198 -0.0766  1.2129  0.4020
 4977TIP3    H236423   1.898   6.125  12.222  0.9677 -0.0182  0.5855
 4978TIP3   OH236424   6.091   2.574  13.720 -0.1636  0.3294 -0.2927
 4978TIP3    H136425   6.163   2.589  13.659  0.5458  3.8936  1.1866
 4978TIP3    H236426   6.014   2.607  13.675 -0.1709  0.2250 -0.3580
 4979TIP3   OH236427   5.748   0.799  10.286 -0.0432  0.6371  0.6940
 4979TIP3    H136428   5.839   0.775  10.266  0.7301  1.6979  2.6272
 4979TIP3    H236429   5.743   0.893  10.269 -1.1478  0.3804 -0.5296
 4980TIP3   OH236430   5.817   5.785  11.940 -0.8091  0.7250  0.1203
 4980TIP3    H136431   5.796   5.691  11.938 -2.3139  1.0345 -0.6519
 4980TIP3    H236432   5.806   5.814  11.849  0.9843  1.4150  0.0844
 4981TIP3   OH236433   5.140   5.499   0.386  0.3752  0.1902  0.0853
 4981TIP3    H136434   5.219   5.544   0.416 -0.2914  0.0108  2.3300
 4981TIP3    H236435   5.166   5.407   0.380  0.3319  0.0954  1.0485
 4982TIP3   OH236436   5.037   2.906  12.682 -0.3068  0.1834  0.2238
 4982TIP3    H136437   5.110   2.845  12.672  0.8712  1.2283  1.8256
 4982TIP3    H236438   5.073   2.991  12.656 -1.1851  0.5915  0.2980
 4983TIP3   OH236439   0.282   0.178   0.163  0.5589  0.3623 -0.3780
 4983TIP3    H136440   0.222   0.250   0.145 -1.1186 -1.1266 -0.9639
 4983TIP3    H236441   0.322   0.201   0.247 -1.6381  0.9167  0.5846
 4984TIP3   OH236442   2.273   6.045   2.279 -0.6168  0.4397  0.1708
 4984TIP3    H136443   2.272   6.112   2.348  1.2215  0.7538 -0.0447
 4984TIP3    H236444   2.260   6.095   2.198 -0.6666  0.3508  0.1243
 4985TIP3   OH236445   1.221   4.040   3.086 -0.2976  0.1407 -0.4899
 4985TIP3    H136446   1.143   4.083   3.123  1.2190  3.2450 -0.5612
 4985TIP3    H236447   1.248   3.978   3.153 -2.4768 -0.6032 -0.2170
 4986TIP3   OH236448   2.283   1.103  11.913 -0.1822 -0.0114  0.4515
 4986TIP3    H136449   2.268   1.195  11.895  0.5300 -0.2439 -1.6246
 4986TIP3    H236450   2.328   1.070  11.835 -1.3806 -2.3493  0.6353
 4987TIP3   OH236451   5.898   5.377  17.074 -0.5048  0.3621 -0.4301
 4987TIP3    H136452   5.974   5.427  17.103 -0.3807 -0.9388  1.7480
 4987TIP3    H236453   5.902   5.380  16.978  1.8943  0.9071 -0.3715
 4988TIP3   OH236454   1.587   0.001  16.539  0.0349  0.2473  0.0926
 4988TIP3    H136455   1.644   0.009  16.616 -1.5743 -2.1250  1.6562
 4988TIP3    H236456   1.645  -0.029  16.469  0.7054 -3.1181  1.8871
 4989TIP3   OH236457   1.485   4.981  15.388  0.2374 -0.0206 -0.1191
 4989TIP3    H136458   1.552   5.048  15.402 -0.1492  0.0912  1.3560
 4989TIP3    H236459   1.422   5.023  15.329  0.7974  0.3448 -0.4598
 4990TIP3   OH236460   3.384   2.210   0.015  0.7306 -0.1162 -0.4266
 4990TIP3    H136461   3.348   2.165  -0.062 -1.4632  1.0762 -0.1913
 4990TIP3    H236462   3.358   2.155   0.089  2.3989 -0.9993 -0.4674
 4991TIP3   OH236463   5.589   2.842   4.893 -0.7362  0.1010 -0.4453
 4991TIP3    H136464   5.657   2.859   4.958 -0.9782  2.5721 -0.7411
 4991TIP3    H236465   5.627   2.872   4.810 -1.5162 -0.1701 -0.9118
 4992TIP3   OH236466   0.281   3.905  15.907  0.1985 -0.9269  0.1099
 4992TIP3    H136467   0.287   3.826  15.961 -0.3918 -1.8773 -1.1527
 4992TIP3    H236468   0.200   3.947  15.936 -0.4671 -1.7812 -0.4631
 4993TIP3   OH236469   5.237   6.717   3.568 -0.1143  0.5649  0.0988
 4993TIP3    H136470   5.141   6.715   3.575 -0.2231  0.9539 -0.9926
 4993TIP3    H236471   5.260   6.631   3.533  0.0404  0.1080  1.2888
 4994TIP3   OH236472   1.037   4.977  12.573  0.5044 -0.6294 -0.2288
 4994TIP3    H136473   1.056   4.887  12.602 -2.4762 -1.3788 -0.1807
 4994TIP3    H236474   1.036   4.972  12.478  1.5724 -0.3335 -0.2571
 4995TIP3   OH236475   0.973   2.755  16.194 -0.3670  0.3984 -0.5228
 4995TIP3    H136476   1.034   2.743  16.267  1.5638  2.8328 -1.5897
 4995TIP3    H236477   1.007   2.698  16.124 -0.7023  0.0332 -0.3975
 4996TIP3   OH236478   4.098   5.021   4.945 -0.2188 -0.2619 -0.1134
 4996TIP3    H136479   4.176   5.009   4.892 -0.3127 -1.0287 -0.0857
 4996TIP3    H236480   4.090   4.940   4.996  0.9148  1.1213  2.4643
 4997TIP3   OH236481   0.694   3.019  14.565 -0.3441  0.1264  0.1663
 4997TIP3    H136482   0.686   3.031  14.660  0.7234  1.5610  0.1031
 4997TIP3    H236483   0.712   3.107  14.531  0.0705 -0.4957 -1.2828
 4998TIP3   OH236484   6.139   6.774   4.641 -0.3316  0.0166  0.5629
 4998TIP3    H136485   6.058   6.745   4.682 -0.3182  1.0576  1.3557
 4998TIP3    H236486   6.153   6.863   4.674  2.4032 -0.9507  2.4301
 4999TIP3   OH236487   4.646   3.696  16.992  0.4428  0.6545  0.2881
 4999TIP3    H136488   4.592   3.618  16.980  0.7023  0.6928 -1.3056
 4999TIP3    H236489   4.649   3.708  17.087 -0.2507 -0.8073  0.5273
 5000TIP3   OH236490   1.926   4.074   3.591  0.1646 -0.9826 -0.0655
 5000TIP3    H136491   1.866   4.049   3.521 -0.0920 -1.7256  0.3967
 5000TIP3    H236492   1.937   3.993   3.642  0.6243 -0.5477  0.5363
 5001TIP3   OH236493   4.010   4.417  12.240 -0.3796  0.2927 -0.6879
 5001TIP3    H136494   4.073   4.361  12.195 -0.4269  1.2496 -1.9876
 5001TIP3    H236495   3.930   4.364  12.245  0.7286 -1.3392  1.9074
 5002TIP3   OH236496   1.383   5.220   4.178  0.0471  0.8889 -0.0553
 5002TIP3    H136497   1.363   5.291   4.240  0.3087  0.2034  0.8347
 5002TIP3    H236498   1.464   5.182   4.211  0.6471  1.0344 -1.3105
 5003TIP3   OH236499   2.571   5.867  14.030 -0.0009  0.3496  0.5366
 5003TIP3    H136500   2.627   5.906  14.098  0.1323 -0.4820  0.9090
 5003TIP3    H236501   2.485   5.859  14.071 -0.2443  1.0459  0.1707
 5004TIP3   OH236502   6.029   6.456   5.918  0.2186 -0.1098 -0.3508
 5004TIP3    H136503   6.010   6.518   5.989  1.7242 -0.8084  0.7145
 5004TIP3    H236504   6.107   6.492   5.876  1.8831 -1.8556  1.0758
 5005TIP3   OH236505   3.980   6.104   3.294 -0.3253 -0.0595  0.8568
 5005TIP3    H136506   3.905   6.049   3.313 -0.2351  0.0333  1.5150
 5005TIP3    H236507   3.991   6.099   3.199 -1.8062  0.7704  0.6214
 5006TIP3   OH236508   3.808   3.710  10.750  0.4793 -0.4050  0.4098
 5006TIP3    H136509   3.752   3.636  10.726  1.2157 -0.7084 -0.4303
 5006TIP3    H236510   3.865   3.676  10.819 -0.8268  0.1168  1.8001
 5007TIP3   OH236511   0.971   1.308   5.417  0.0378 -0.6941 -0.5370
 5007TIP3    H136512   0.939   1.383   5.367 -0.2768 -0.2712  0.2767
 5007TIP3    H236513   1.029   1.347   5.484  1.5121 -1.3563 -1.3743
 5008TIP3   OH236514   3.146   4.287   3.616  0.4661  0.1058  0.4456
 5008TIP3    H136515   3.193   4.332   3.686  0.7083 -1.5149  1.3587
 5008TIP3    H236516   3.157   4.194   3.635 -1.5991 -0.3477 -0.3241
 5009TIP3   OH236517   6.265   3.521   6.429  0.2263 -0.4249 -0.3659
 5009TIP3    H136518   6.311   3.602   6.449  0.7249 -0.4198 -1.4543
 5009TIP3    H236519   6.216   3.500   6.509  1.2740  0.1357  0.4373
 5010TIP3   OH236520   3.967   3.166  11.887 -0.4107 -0.3303 -0.3243
 5010TIP3    H136521   3.883   3.126  11.867 -0.5928 -0.0044 -0.2299
 5010TIP3    H236522   3.947   3.260  11.894 -0.4848 -0.4644  2.0349
 5011TIP3   OH236523   1.822   5.216  13.232 -0.3062 -0.0833 -0.0072
 5011TIP3    H136524   1.816   5.244  13.323  2.8684  0.4839  0.1549
 5011TIP3    H236525   1.734   5.184  13.210 -1.3480  0.4346  2.9845
 5012TIP3   OH236526   1.069   3.076   2.650 -0.1374  0.4189 -0.4012
 5012TIP3    H136527   1.066   3.092   2.555 -2.0879 -0.0302 -0.4437
 5012TIP3    H236528   0.992   3.122   2.684  0.4145  0.3733  0.9516
 5013TIP3   OH236529   5.498   3.746   1.816  0.0629 -0.6306  0.5584
 5013TIP3    H136530   5.455   3.783   1.894 -2.2789  0.4633 -1.1402
 5013TIP3    H236531   5.507   3.653   1.836  1.8759 -0.0209  3.1020
 5014TIP3   OH236532   0.959   3.645  10.666 -0.4940  0.0131 -0.1560
 5014TIP3    H136533   0.891   3.698  10.625 -0.3002 -1.2114 -2.1882
 5014TIP3    H236534   0.955   3.561  10.620  1.8447 -0.3666  0.2372
 5015TIP3   OH236535   3.570   2.939  12.265 -1.3933  0.2949  0.6809
 5015TIP3    H136536   3.501   2.989  12.223  1.7291  2.9785 -1.7720
 5015TIP3    H236537   3.590   2.987  12.346  0.3662  2.1546 -0.7662
 5016TIP3   OH236538   2.785   0.202   5.185  0.1499  0.5498  0.6573
 5016TIP3    H136539   2.697   0.173   5.210  0.9222 -1.1197  1.6507
 5016TIP3    H236540   2.787   0.196   5.090 -1.5795  3.0804  0.3688
 5017TIP3   OH236541   1.983   3.991  11.032  1.1950  0.7409  0.9286
 5017TIP3    H136542   1.989   4.084  11.010  0.4108  0.5934  0.0538
 5017TIP3    H236543   1.918   3.987  11.102  0.2237  0.7272  0.0515
 5018TIP3   OH236544   5.805   4.424   1.670  0.4703 -0.0093  0.3403
 5018TIP3    H136545   5.712   4.406   1.661  0.4248  0.3900 -0.0348
 5018TIP3    H236546   5.820   4.429   1.764  0.5159 -2.0941  0.4846
 5019TIP3   OH236547   0.024   1.670   0.973 -0.4036 -0.0764 -0.1615
 5019TIP3    H136548  -0.050   1.672   0.913 -1.1380 -0.8554  0.6719
 5019TIP3    H236549  -0.015   1.687   1.059  0.6319  1.1297  0.0915
 5020TIP3   OH236550   6.692   2.773  17.016 -0.2810 -0.1620  0.5110
 5020TIP3    H136551   6.608   2.737  17.041 -0.6370  0.1974 -0.1320
 5020TIP3    H236552   6.717   2.724  16.937  0.3355 -0.5865  0.9638
 5021TIP3   OH236553   6.506   5.759   3.649  0.1216  0.0768  0.3246
 5021TIP3    H136554   6.588   5.750   3.600 -0.4923  0.5511 -0.8363
 5021TIP3    H236555   6.523   5.832   3.709  0.4195  0.4487 -0.1988
 5022TIP3   OH236556   2.724   2.098  16.543 -0.0725 -0.1655 -0.4823
 5022TIP3    H136557   2.709   2.171  16.483  0.8950  1.4364  1.0995
 5022TIP3    H236558   2.651   2.038  16.528 -1.2803  1.4593 -1.3935
 5023TIP3   OH236559   6.299   4.930  14.779  0.8330  0.3842  1.0962
 5023TIP3    H136560   6.294   4.852  14.724  1.5558  0.8936  0.2802
 5023TIP3    H236561   6.356   4.904  14.851  0.9067  0.0900  0.9373
 5024TIP3   OH236562   2.028   2.789  15.540 -0.2532  0.2352 -0.0686
 5024TIP3    H136563   2.024   2.882  15.520 -0.7556  0.4507  0.9740
 5024TIP3    H236564   2.062   2.785  15.630 -0.6598 -0.5519  0.0601
 5025TIP3   OH236565   3.973   2.310   3.048 -0.2963 -0.2367  0.6524
 5025TIP3    H136566   4.048   2.309   3.106  2.2546  0.5471 -2.3782
 5025TIP3    H236567   3.980   2.228   2.998 -0.6978  0.4141 -0.5186
 5026TIP3   OH236568   4.141   1.526   1.836  0.1516  0.0312 -0.6385
 5026TIP3    H136569   4.226   1.511   1.876 -0.0742  1.3041  0.4229
 5026TIP3    H236570   4.119   1.616   1.860 -1.7583 -0.4548 -0.3658
 5027TIP3   OH236571   4.434   1.288   3.541 -0.4679  0.3039 -0.3037
 5027TIP3    H136572   4.511   1.250   3.582  0.4119  1.8883 -0.3946
 5027TIP3    H236573   4.366   1.285   3.608  0.0224 -0.0341  0.1776
 5028TIP3   OH236574   3.876   4.208   4.660  0.3533 -0.3703  0.1162
 5028TIP3    H136575   3.838   4.120   4.662 -0.3503 -0.0638  0.5839
 5028TIP3    H236576   3.926   4.211   4.578 -0.7908 -0.7120 -0.6112
 5029TIP3   OH236577   2.284   6.022  17.157 -0.7182 -0.0958  0.2702
 5029TIP3    H136578   2.378   6.044  17.159 -0.5524 -0.7201 -0.2705
 5029TIP3    H236579   2.258   6.024  17.249 -0.1631  0.0663  0.4302
 5030TIP3   OH236580   3.340   3.095   1.522  0.1771  0.7139  0.4500
 5030TIP3    H136581   3.329   3.001   1.514  0.7036  0.4982  2.0125
 5030TIP3    H236582   3.319   3.115   1.613 -3.1304  2.6026 -0.5368
 5031TIP3   OH236583   6.458   0.057   6.119 -0.1015 -0.5466  0.2339
 5031TIP3    H136584   6.431  -0.030   6.090  0.6003 -0.0821 -2.1064
 5031TIP3    H236585   6.380   0.111   6.106  0.5396 -0.0893 -2.2432
 5032TIP3   OH236586   2.167   5.148   1.276 -0.3335  0.0437  0.7988
 5032TIP3    H136587   2.172   5.092   1.354 -0.1281 -1.2512 -0.1015
 5032TIP3    H236588   2.162   5.086   1.203 -0.0902  1.2211 -0.2474
 5033TIP3   OH236589   2.812   4.576  15.713  0.4013 -0.1931  0.3100
 5033TIP3    H136590   2.904   4.569  15.687  0.7018 -0.6579  1.4499
 5033TIP3    H236591   2.801   4.507  15.779 -0.1881  1.2748  1.7947
 5034TIP3   OH236592   2.229   5.418  13.408  0.0153  0.2300  0.3278
 5034TIP3    H136593   2.212   5.343  13.351 -1.4979  1.3495 -0.7738
 5034TIP3    H236594   2.322   5.436  13.397  0.5054 -1.7322  0.9568
 5035TIP3   OH236595   5.167   3.384   0.451 -0.0198 -0.0097 -0.4989
 5035TIP3    H136596   5.231   3.454   0.457  0.8092 -0.6510 -1.4237
 5035TIP3    H236597   5.213   3.306   0.483 -0.0875 -0.6090 -1.7819
 5036TIP3   OH236598   6.744   6.271  13.235  0.7168  0.0865 -0.4650
 5036TIP3    H136599   6.749   6.274  13.330 -0.5203 -0.2018 -0.3806
 5036TIP3    H236600   6.826   6.312  13.206  0.3677  1.7190  0.7013
 5037TIP3   OH236601   3.961   4.404   4.470  0.0173 -0.3438 -0.0567
 5037TIP3    H136602   3.975   4.470   4.539  1.4122 -2.2879  1.6264
 5037TIP3    H236603   3.869   4.380   4.478 -0.7310  1.8716 -1.2115
 5038TIP3   OH236604   3.735   6.455   4.161  0.2724 -0.3386 -0.4817
 5038TIP3    H136605   3.752   6.497   4.077 -1.2666  0.7582 -0.2975
 5038TIP3    H236606   3.650   6.413   4.149  0.7786 -1.5568  0.0459
 5039TIP3   OH236607   0.598   3.732   4.304  0.2092 -0.3475 -0.0030
 5039TIP3    H136608   0.567   3.756   4.391 -1.6464 -1.1876 -0.3817
 5039TIP3    H236609   0.619   3.816   4.262 -1.9094  0.3545  0.2098
 5040TIP3   OH236610   1.421   3.004   0.877 -0.0343  0.5225  0.2387
 5040TIP3    H136611   1.409   2.956   0.795  0.6843  2.3342 -1.0212
 5040TIP3    H236612   1.466   2.944   0.935 -0.6299 -0.8352 -0.6625
 5041TIP3   OH236613   5.744   1.403   6.544 -0.1000 -0.1207 -0.0035
 5041TIP3    H136614   5.677   1.458   6.503 -0.0511 -0.2312 -0.2334
 5041TIP3    H236615   5.762   1.445   6.629 -0.3023  0.0295 -0.0363
 5042TIP3   OH236616   3.299   2.550  14.772  0.2039 -0.2884 -0.1422
 5042TIP3    H136617   3.394   2.543  14.781  0.1467 -0.1613  0.6506
 5042TIP3    H236618   3.264   2.483  14.831 -0.2006 -0.4276 -0.5286
 5043TIP3   OH236619   3.474   4.780  13.524 -0.0407 -0.2830  0.6488
 5043TIP3    H136620   3.493   4.786  13.431  2.4090 -1.3561  1.0004
 5043TIP3    H236621   3.486   4.869  13.558  0.2454 -0.1200  0.1211
 5044TIP3   OH236622   0.509   6.178   5.804  0.2931  0.3517 -0.1836
 5044TIP3    H136623   0.511   6.104   5.864  1.8428  0.6012  0.1085
 5044TIP3    H236624   0.481   6.140   5.720 -0.1588 -0.3122  0.2582
 5045TIP3   OH236625   3.250   5.030  15.584  0.0224 -0.8332  0.5205
 5045TIP3    H136626   3.290   5.031  15.671 -0.3705  1.6518  0.7634
 5045TIP3    H236627   3.185   4.960  15.587  1.9464 -2.7044  1.2193
 5046TIP3   OH236628   0.863   1.994   2.928  0.4108 -0.1603 -0.8356
 5046TIP3    H136629   0.838   2.082   2.898  1.5936  0.0417 -1.2649
 5046TIP3    H236630   0.801   1.936   2.884  0.2336  0.3852 -1.3331
 5047TIP3   OH236631   3.664   1.592   5.211 -0.4296 -0.3891 -0.6357
 5047TIP3    H136632   3.604   1.531   5.168 -0.9923 -0.2250 -0.1012
 5047TIP3    H236633   3.608   1.643   5.270  0.4543 -1.2709  1.0479
 5048TIP3   OH236634   1.328   3.527  15.862  0.5219 -0.2818  0.5509
 5048TIP3    H136635   1.273   3.507  15.786  0.8954  2.0718 -0.4025
 5048TIP3    H236636   1.417   3.508  15.832  0.7968  1.7950 -0.0850
 5049TIP3   OH236637   3.506   6.329   0.647 -0.3892  0.3596  0.3905
 5049TIP3    H136638   3.569   6.282   0.701 -1.5187 -1.7210  0.0168
 5049TIP3    H236639   3.526   6.300   0.557 -1.7210 -0.2260  0.2536
 5050TIP3   OH236640   2.121   1.753   2.826  0.2099  0.5174  0.1171
 5050TIP3    H136641   2.119   1.657   2.830  1.7716  0.2145 -3.2311
 5050TIP3    H236642   2.214   1.775   2.818 -0.2331  2.1911 -0.8337
 5051TIP3   OH236643   1.928   1.318  10.963 -0.3570  0.1178 -0.3746
 5051TIP3    H136644   1.898   1.282  10.879 -0.7408  0.2876 -0.3122
 5051TIP3    H236645   1.848   1.328  11.015 -0.2608  1.0303 -0.3884
 5052TIP3   OH236646   6.092   0.379  16.842 -0.1391 -0.0792  0.7587
 5052TIP3    H136647   6.178   0.351  16.874  0.4293  0.2801 -0.3997
 5052TIP3    H236648   6.030   0.338  16.902  0.7856 -1.3859  0.8747
 5053TIP3   OH236649   2.762   0.636  15.137  0.0772  0.1363  0.7127
 5053TIP3    H136650   2.697   0.635  15.067 -1.4223 -0.8898  2.0592
 5053TIP3    H236651   2.843   0.665  15.094 -0.4822 -1.5611 -1.6917
 5054TIP3   OH236652   2.502   3.814   4.564  0.1350 -0.1269 -0.5050
 5054TIP3    H136653   2.490   3.721   4.548 -0.1032  0.0974 -1.7955
 5054TIP3    H236654   2.540   3.819   4.651  2.2068 -1.5663 -1.2501
 5055TIP3   OH236655   5.202   5.668   5.269  0.3374 -0.1603  0.1362
 5055TIP3    H136656   5.218   5.651   5.362 -0.7373  0.6156  0.4826
 5055TIP3    H236657   5.285   5.701   5.236  0.2928  1.1100  1.2132
 5056TIP3   OH236658   2.103   6.487  12.749 -0.5185  0.4785 -0.0365
 5056TIP3    H136659   2.174   6.509  12.809 -0.8542  1.3933  0.0475
 5056TIP3    H236660   2.099   6.561  12.688 -1.5718  0.5835  0.1368
 5057TIP3   OH236661   2.798   2.149   5.130  0.1524  0.3358  0.2001
 5057TIP3    H136662   2.773   2.171   5.040  0.7532  0.8613  0.1565
 5057TIP3    H236663   2.786   2.054   5.135 -1.1712  0.4670 -0.0157
 5058TIP3   OH236664   3.325   0.093  13.212  0.6432  0.2502  0.1934
 5058TIP3    H136665   3.265   0.082  13.286  0.4716 -1.4141 -0.1595
 5058TIP3    H236666   3.409   0.063  13.246  0.8398  0.6746  0.0824
 5059TIP3   OH236667   2.116   4.762   1.984 -0.3340  0.0437  0.0791
 5059TIP3    H136668   2.026   4.793   1.973 -0.9916 -1.1839  1.6070
 5059TIP3    H236669   2.159   4.830   2.035 -0.0538  1.1246 -1.5175
 5060TIP3   OH236670   4.304   4.637   5.516  0.4322  0.0620 -0.0755
 5060TIP3    H136671   4.287   4.631   5.422  2.5840  1.6531 -0.6404
 5060TIP3    H236672   4.222   4.672   5.552  0.0394  0.7980 -1.5654
 5061TIP3   OH236673   0.616   6.616   0.642 -0.7046 -0.2619  0.5713
 5061TIP3    H136674   0.689   6.557   0.627 -0.2284  0.2366  0.8880
 5061TIP3    H236675   0.646   6.675   0.711 -1.3537  0.0337  0.6134
 5062TIP3   OH236676   2.107   1.764  11.430  0.2498  0.0501 -0.3829
 5062TIP3    H136677   2.112   1.810  11.347  1.6308  2.3200  0.8266
 5062TIP3    H236678   2.152   1.681  11.415  0.5041  0.4394 -1.8736
 5063TIP3   OH236679   6.351   6.640   0.479 -0.5818 -0.1077  0.2975
 5063TIP3    H136680   6.360   6.724   0.524  2.3420 -0.0557 -0.2217
 5063TIP3    H236681   6.334   6.577   0.548 -1.0730  0.6508  0.8812
 5064TIP3   OH236682   0.159   0.633  12.514 -0.5597 -0.6531  0.1067
 5064TIP3    H136683   0.123   0.662  12.431  0.6286 -1.0997 -0.5896
 5064TIP3    H236684   0.151   0.709  12.572 -1.9893 -0.5416 -0.1974
 5065TIP3   OH236685   1.947   0.618  16.973  0.1799  0.3537 -0.7575
 5065TIP3    H136686   1.956   0.580  16.885 -1.3545 -0.0221 -0.7792
 5065TIP3    H236687   1.998   0.560  17.030  1.3692  0.7209 -1.4107
 5066TIP3   OH236688   1.530   1.315   3.853  0.3577 -0.6990 -0.1730
 5066TIP3    H136689   1.568   1.374   3.917  1.0881 -0.5725 -0.7068
 5066TIP3    H236690   1.579   1.332   3.772 -1.0718 -0.2623 -0.9915
 5067TIP3   OH236691   3.880   4.121  10.903 -0.5236 -0.1419  0.0475
 5067TIP3    H136692   3.929   4.162  10.832 -0.3322  0.1425  0.3431
 5067TIP3    H236693   3.819   4.062  10.859 -2.5033  2.1860 -0.5461
 5068TIP3   OH236694   0.484   5.728  14.175  0.2569  0.0403 -0.6610
 5068TIP3    H136695   0.487   5.704  14.267  2.0968 -1.3507 -1.0044
 5068TIP3    H236696   0.396   5.762  14.160 -0.5951 -1.2491  1.2210
 5069TIP3   OH236697   1.026   6.047   1.601  0.7121  0.2687 -0.3329
 5069TIP3    H136698   0.962   6.067   1.533  0.2833 -0.9932 -0.3233
 5069TIP3    H236699   1.090   6.118   1.595  0.6104  0.2612 -1.9485
 5070TIP3   OH236700   2.336   1.368  12.042  1.0183 -0.4517  0.2417
 5070TIP3    H136701   2.334   1.359  12.137  0.3031  0.2346  0.3071
 5070TIP3    H236702   2.399   1.303  12.013  1.7302 -0.2308  1.2399
 5071TIP3   OH236703   1.721   6.409  11.960 -0.0144 -0.2118  0.0166
 5071TIP3    H136704   1.704   6.457  11.879 -0.3453 -1.0282 -0.4037
 5071TIP3    H236705   1.740   6.478  12.024  1.3716  0.4159 -0.9936
 5072TIP3   OH236706   4.172   0.358   5.833  0.5196 -0.1704 -0.0053
 5072TIP3    H136707   4.229   0.285   5.855  1.8932  1.2389  1.3172
 5072TIP3    H236708   4.171   0.360   5.737 -0.8404 -2.8277 -0.1304
 5073TIP3   OH236709   4.226   6.567  14.543  0.0945  0.6840 -0.2169
 5073TIP3    H136710   4.210   6.519  14.624  2.3099 -1.0161 -0.6719
 5073TIP3    H236711   4.274   6.645  14.572  0.4840  0.3134  0.1604
 5074TIP3   OH236712   0.768   4.644  14.906  0.1116 -0.2097 -0.0932
 5074TIP3    H136713   0.719   4.708  14.854  2.7551  1.4679 -0.7044
 5074TIP3    H236714   0.747   4.560  14.866  1.3485  0.9274 -3.4674
 5075TIP3   OH236715   3.112   3.959  12.606  0.2646  0.7921  0.2076
 5075TIP3    H136716   3.056   3.885  12.629 -0.1437  0.7338 -0.9259
 5075TIP3    H236717   3.064   4.036  12.635  0.4469  0.6570  0.8977
 5076TIP3   OH236718   5.680   1.464   3.503 -0.2060  0.4517 -0.0968
 5076TIP3    H136719   5.598   1.419   3.481 -1.5078  2.0364  1.2299
 5076TIP3    H236720   5.712   1.418   3.581  0.1468 -0.1374 -0.5853
 5077TIP3   OH236721   1.737   0.448  16.032 -0.6924 -0.1188  0.2766
 5077TIP3    H136722   1.655   0.452  15.981 -1.4040 -3.0722  0.9897
 5077TIP3    H236723   1.711   0.474  16.120 -0.6603 -0.1850  0.3063
 5078TIP3   OH236724   5.106   6.703  15.700 -0.4231  0.3004  0.4307
 5078TIP3    H136725   5.128   6.615  15.730 -1.0537  0.8911  2.8813
 5078TIP3    H236726   5.191   6.744  15.682  0.0118 -0.1851  1.2918
 5079TIP3   OH236727   6.140   2.270   4.836  0.4528 -0.4031  0.8510
 5079TIP3    H136728   6.147   2.271   4.741 -0.8801  1.7267  0.7105
 5079TIP3    H236729   6.217   2.318   4.867 -0.2941  0.9545  0.6796
 5080TIP3   OH236730   2.880   3.986  13.709 -0.2522  0.2360 -0.1711
 5080TIP3    H136731   2.948   3.975  13.776  0.9858 -0.0728 -1.4359
 5080TIP3    H236732   2.924   3.969  13.626 -1.4762  1.6684 -1.1824
 5081TIP3   OH236733   1.559   2.582  11.611  0.3210 -0.0232 -0.5800
 5081TIP3    H136734   1.638   2.608  11.564  0.7621 -0.7085 -0.2366
 5081TIP3    H236735   1.506   2.537  11.545  0.9485 -1.0052 -0.4455
 5082TIP3   OH236736   6.690   1.620  13.583 -0.1715  0.4496  0.7730
 5082TIP3    H136737   6.618   1.621  13.520 -0.6746 -0.6973  1.3065
 5082TIP3    H236738   6.725   1.709  13.581 -0.5670  0.5950 -0.6712
 5083TIP3   OH236739   6.587   0.625  11.601  0.0553  0.3340 -0.0365
 5083TIP3    H136740   6.556   0.572  11.527  0.1097 -0.2539  0.3576
 5083TIP3    H236741   6.641   0.694  11.560  1.8339 -1.2070 -0.4234
 5084TIP3   OH236742   0.612   3.265   3.165  0.1101 -0.1521  0.3523
 5084TIP3    H136743   0.687   3.280   3.222  1.5000 -0.6762 -1.2519
 5084TIP3    H236744   0.606   3.170   3.156  0.2792 -0.0722 -0.7828
 5085TIP3   OH236745   2.994   3.841   5.729  0.0493 -0.6447  0.1075
 5085TIP3    H136746   3.079   3.797   5.717 -0.1706 -1.6307  1.8662
 5085TIP3    H236747   2.995   3.871   5.820 -1.2847 -0.1811 -0.0097
 5086TIP3   OH236748   4.726   2.801  15.116  0.0564  0.7023  0.1837
 5086TIP3    H136749   4.776   2.736  15.066  0.9302  1.6792 -0.2515
 5086TIP3    H236750   4.793   2.858  15.154 -0.6977  2.5449 -1.0761
 5087TIP3   OH236751   0.653   5.751   2.351  0.5440  0.2048  0.0267
 5087TIP3    H136752   0.560   5.762   2.332  0.6645 -0.3597 -0.9633
 5087TIP3    H236753   0.696   5.765   2.267  1.2606 -0.6049  0.2467
 5088TIP3   OH236754   1.964   5.343   3.817  0.1270 -0.2718  0.2552
 5088TIP3    H136755   1.966   5.289   3.738 -0.1558  1.1705 -0.7850
 5088TIP3    H236756   1.965   5.280   3.889  1.8984 -1.6209 -0.8458
 5089TIP3   OH236757   5.633   1.686  16.916 -0.6715 -0.8714 -0.3064
 5089TIP3    H136758   5.675   1.602  16.935 -0.1223 -0.6005 -0.2986
 5089TIP3    H236759   5.587   1.671  16.833  1.9302 -0.3467 -1.9696
 5090TIP3   OH236760   5.093   4.384  14.027  0.5626  0.1885 -0.2168
 5090TIP3    H136761   5.104   4.374  14.122  1.8588 -0.9590 -0.4690
 5090TIP3    H236762   5.018   4.328  14.006 -0.0131  0.7901  0.1675
 5091TIP3   OH236763   6.484   6.596   2.663 -0.1636 -0.3644  0.9656
 5091TIP3    H136764   6.499   6.667   2.600 -1.0165 -1.6833 -0.7788
 5091TIP3    H236765   6.498   6.638   2.749  0.6561  1.5740 -0.0402
 5092TIP3   OH236766   5.617   4.077   5.127 -0.4990 -0.1027  0.3495
 5092TIP3    H136767   5.603   4.165   5.162 -0.8455 -0.0573  0.1093
 5092TIP3    H236768   5.553   4.070   5.056 -1.3844 -1.0408  1.2162
 5093TIP3   OH236769   4.148   4.937  15.833  0.4942  0.1867 -0.4712
 5093TIP3    H136770   4.157   5.031  15.851  2.4276  0.3835 -2.0487
 5093TIP3    H236771   4.186   4.926  15.746  2.0089 -2.3094  0.3880
 5094TIP3   OH236772   4.913   4.937  12.579 -0.3741 -0.1643 -0.0332
 5094TIP3    H136773   4.931   4.999  12.508 -1.1322  0.0178 -0.0704
 5094TIP3    H236774   4.861   4.986  12.642  0.2221 -0.3502  0.6209
 5095TIP3   OH236775   1.961   2.521   5.085  0.5509  0.2228  0.2704
 5095TIP3    H136776   1.951   2.470   5.165 -1.2268  1.8313  1.1534
 5095TIP3    H236777   1.880   2.507   5.037  1.9224 -1.3927 -1.7375
 5096TIP3   OH236778   4.444   1.219  16.138 -0.7913  0.4735 -0.0977
 5096TIP3    H136779   4.451   1.302  16.186  0.5622  1.0593 -1.2071
 5096TIP3    H236780   4.428   1.246  16.047  1.6386 -0.3137 -0.8642
 5097TIP3   OH236781   1.584   4.396   5.106  0.2422 -0.3492 -0.0050
 5097TIP3    H136782   1.638   4.460   5.153 -1.8285  2.3652 -1.0193
 5097TIP3    H236783   1.602   4.412   5.014 -1.1177 -0.4399 -0.3098
 5098TIP3   OH236784   6.064   0.416   3.379  0.0564 -0.4725 -0.6464
 5098TIP3    H136785   5.973   0.439   3.400  0.6234  0.8997  0.5276
 5098TIP3    H236786   6.095   0.368   3.456  0.6888  0.2308 -0.4371
 5099TIP3   OH236787   6.552   0.400  15.098 -0.1521 -0.2570  0.1731
 5099TIP3    H136788   6.555   0.477  15.155  2.6914  0.0573 -0.2494
 5099TIP3    H236789   6.603   0.425  15.021 -0.0673 -2.2236 -0.4774
 5100TIP3   OH236790   5.014   6.567  15.186  0.5812  0.6411 -0.6135
 5100TIP3    H136791   5.088   6.622  15.212  1.5286 -0.6245 -0.5579
 5100TIP3    H236792   5.042   6.478  15.206 -0.4940  0.0341 -1.6932
 5101TIP3   OH236793   4.333   1.869   4.985 -0.1248 -0.2196 -0.2609
 5101TIP3    H136794   4.341   1.812   4.908 -0.8617 -0.3949 -0.2133
 5101TIP3    H236795   4.248   1.912   4.975  0.2630  0.6032 -0.1078
 5102TIP3   OH236796   6.648   0.933  11.604 -0.1839 -0.4890  0.5791
 5102TIP3    H136797   6.740   0.953  11.622 -0.4419 -0.9747  2.7051
 5102TIP3    H236798   6.642   0.932  11.509  1.6026  1.3474  0.3758
 5103TIP3   OH236799   2.031   4.506  11.389 -0.4724  0.1634  0.2015
 5103TIP3    H136800   2.003   4.415  11.401 -0.4731  0.0096 -0.8801
 5103TIP3    H236801   2.104   4.500  11.328  0.6536  0.7467  1.4575
 5104TIP3   OH236802   1.663   2.033  13.644  0.6247 -0.3936  0.8185
 5104TIP3    H136803   1.678   2.126  13.661  2.6046 -0.5054 -0.0256
 5104TIP3    H236804   1.568   2.026  13.636  0.4231  1.5643  0.8287
 5105TIP3   OH236805   1.448   3.431  10.809 -0.4917 -0.4397 -0.5377
 5105TIP3    H136806   1.380   3.495  10.829 -0.7835 -0.8870 -0.0970
 5105TIP3    H236807   1.487   3.411  10.894 -0.5341 -1.0005 -0.6497
 5106TIP3   OH236808   3.217   1.126   1.852  0.0481 -0.1103  0.5793
 5106TIP3    H136809   3.302   1.170   1.858  1.1896 -2.1755  0.4310
 5106TIP3    H236810   3.198   1.122   1.758  0.0069 -0.0454  0.5848
 5107TIP3   OH236811   6.041   6.764  17.210 -0.2264  0.6886  0.0773
 5107TIP3    H136812   6.082   6.743  17.294 -0.0473  1.0387  0.0790
 5107TIP3    H236813   6.089   6.841  17.179 -0.7685  1.0008 -0.0042
 5108TIP3   OH236814   6.477   3.074   2.664 -0.3348  0.1398 -0.3522
 5108TIP3    H136815   6.532   3.003   2.698 -0.5717 -0.1152 -0.4932
 5108TIP3    H236816   6.401   3.029   2.627 -1.1469  0.5513  0.7858
 5109TIP3   OH236817   2.986   3.071   1.854 -0.0527  0.1546 -0.0918
 5109TIP3    H136818   2.921   3.024   1.907 -0.6578  0.3780 -0.6272
 5109TIP3    H236819   2.961   3.053   1.764  1.6907 -1.2170 -0.3441
 5110TIP3   OH236820   6.538   0.610  12.247 -0.2321 -0.2115  0.2848
 5110TIP3    H136821   6.487   0.570  12.176 -0.0015  1.9678 -1.2080
 5110TIP3    H236822   6.603   0.663  12.202  1.1743 -0.2524  2.1787
 5111TIP3   OH236823   0.123   5.581   0.021  0.2181 -0.2559 -0.1216
 5111TIP3    H136824   0.148   5.672   0.008 -0.3253 -0.1255 -0.2849
 5111TIP3    H236825   0.042   5.571  -0.028  0.5680 -0.9820 -0.5644
 5112TIP3   OH236826   2.893   6.389   2.379 -0.5592 -0.4453  0.4556
 5112TIP3    H136827   2.803   6.356   2.379 -0.3259 -1.1012  0.3745
 5112TIP3    H236828   2.936   6.341   2.449  0.3733 -2.0003 -1.0844
 5113TIP3   OH236829   2.766   4.400   1.856 -0.4251  0.0871 -0.7137
 5113TIP3    H136830   2.720   4.469   1.809  0.0024 -0.2574 -1.6636
 5113TIP3    H236831   2.781   4.436   1.943  0.5622  1.5306 -1.4477
 5114TIP3   OH236832   2.192   6.044  13.375  0.8177 -0.1374  0.1729
 5114TIP3    H136833   2.112   6.053  13.427  0.6917 -0.1631 -0.0137
 5114TIP3    H236834   2.161   6.014  13.289  1.1582 -1.7617  0.5720
 5115TIP3   OH236835   0.302   2.314   4.937  0.5686 -0.2812  0.2772
 5115TIP3    H136836   0.251   2.245   4.979 -0.0084 -0.7189 -1.1150
 5115TIP3    H236837   0.392   2.283   4.940  0.2375 -1.4256 -0.9257
 5116TIP3   OH236838   6.242   3.667   1.814 -0.2374  0.1536 -0.3244
 5116TIP3    H136839   6.286   3.676   1.898 -0.5099 -1.2627  0.0070
 5116TIP3    H236840   6.162   3.718   1.822 -0.6723 -0.6423  0.5991
 5117TIP3   OH236841   0.788   0.373   5.516 -0.8563 -0.5068 -0.3006
 5117TIP3    H136842   0.796   0.414   5.602  0.3942 -0.8276 -0.2490
 5117TIP3    H236843   0.731   0.298   5.531  0.1597 -1.1450  0.4838
 5118TIP3   OH236844   0.290   0.103   1.361 -0.0688 -0.0803  0.1101
 5118TIP3    H136845   0.284   0.013   1.392  0.3745 -0.1170  0.0974
 5118TIP3    H236846   0.345   0.098   1.283  1.6407  0.4544  1.2283
 5119TIP3   OH236847   1.282   6.443   2.556  0.5401 -0.1706  0.7549
 5119TIP3    H136848   1.220   6.383   2.514  0.7487  0.2114 -0.1090
 5119TIP3    H236849   1.228   6.502   2.609  0.2569 -0.4782  0.8080
 5120TIP3   OH236850   4.717   5.028  12.716 -0.5888 -0.2008  0.3050
 5120TIP3    H136851   4.665   4.952  12.687  0.7192 -1.6113  1.4502
 5120TIP3    H236852   4.739   5.008  12.807 -0.9356  2.0171  0.9322
 5121TIP3   OH236853   2.526   3.521  15.849  0.5311  0.3063  0.3325
 5121TIP3    H136854   2.457   3.456  15.837  0.7408  0.2966 -0.8701
 5121TIP3    H236855   2.601   3.471  15.881 -0.6469  0.6249  4.0746
 5122TIP3   OH236856   4.229   2.199   4.800 -0.2152  0.0762 -0.2963
 5122TIP3    H136857   4.290   2.144   4.750 -0.8057 -0.2004 -0.7279
 5122TIP3    H236858   4.177   2.136   4.850 -0.6011  0.2654 -0.4556
 5123TIP3   OH236859   2.310   3.084  16.900  0.7558  0.0511 -0.1765
 5123TIP3    H136860   2.338   3.155  16.957 -1.1701  0.6207  0.1365
 5123TIP3    H236861   2.217   3.071  16.921  0.5883 -1.3007 -1.5336
 5124TIP3   OH236862   0.126   6.146  16.444  0.7542  0.3088 -0.4705
 5124TIP3    H136863   0.063   6.129  16.515  2.8671  0.8036  1.6633
 5124TIP3    H236864   0.165   6.060  16.427  1.2478  0.4360 -0.0001
 5125TIP3   OH236865   1.875   0.297  16.931  0.1709 -0.0681 -0.3210
 5125TIP3    H136866   1.800   0.257  16.885 -0.5546 -0.6236  1.2741
 5125TIP3    H236867   1.909   0.361  16.869  0.1750 -1.8007 -2.2338
 5126TIP3   OH236868   4.882   1.463  14.220  0.2508 -0.9078 -0.8331
 5126TIP3    H136869   4.946   1.401  14.253  0.9483 -0.9936 -2.2500
 5126TIP3    H236870   4.893   1.541  14.274  1.2604 -1.0733 -0.7848
 5127TIP3   OH236871   1.802   1.142   2.381  0.4960  0.0364 -0.9954
 5127TIP3    H136872   1.782   1.057   2.420 -2.2614  0.1901 -1.8848
 5127TIP3    H236873   1.785   1.130   2.288 -0.8422  1.7489 -1.0230
 5128TIP3   OH236874   0.829   5.990  12.692 -0.0515 -0.3189  0.1064
 5128TIP3    H136875   0.909   6.006  12.641  0.4423 -1.7992  0.3702
 5128TIP3    H236876   0.794   6.078  12.709  1.6483  0.3864  0.1940
 5129TIP3   OH236877   6.387   5.274   0.856 -0.5429  0.1685  0.1374
 5129TIP3    H136878   6.350   5.362   0.850  0.3586  0.5039 -0.9438
 5129TIP3    H236879   6.403   5.248   0.765  1.5004 -0.0886  0.5216
 5130TIP3   OH236880   6.519   2.564  15.948  0.0040  0.2766  0.0977
 5130TIP3    H136881   6.450   2.616  15.908  1.4102  1.3463 -1.0336
 5130TIP3    H236882   6.575   2.538  15.875  0.8958 -0.4309  1.0009
 5131TIP3   OH236883   0.626   0.719   0.803  0.3627  0.5380 -0.1874
 5131TIP3    H136884   0.548   0.771   0.787 -1.2937 -1.8197 -0.2547
 5131TIP3    H236885   0.637   0.719   0.898  2.4584  3.7216 -0.2781
 5132TIP3   OH236886   1.700   2.219  10.773 -0.3251 -0.5353 -0.3653
 5132TIP3    H136887   1.620   2.272  10.773 -0.6541 -0.9806  1.0555
 5132TIP3    H236888   1.669   2.129  10.779  0.2729 -0.7723 -0.7565
 5133TIP3   OH236889   1.745   5.906  15.099 -0.0600  0.5073 -0.7792
 5133TIP3    H136890   1.732   5.836  15.164  0.5629  0.3040 -0.8659
 5133TIP3    H236891   1.748   5.986  15.150  0.1610  0.3731 -0.5770
 5134TIP3   OH236892   2.147   4.691   5.832 -0.2201  0.0401  0.0928
 5134TIP3    H136893   2.110   4.608   5.862 -0.0124 -0.5692 -1.2898
 5134TIP3    H236894   2.203   4.668   5.758  0.3514  1.3391  0.0909
 5135TIP3   OH236895   4.516   5.734  11.152  0.4350  0.0214 -0.3110
 5135TIP3    H136896   4.528   5.664  11.216 -1.6414 -0.7140 -0.6490
 5135TIP3    H236897   4.430   5.771  11.172  0.3532  0.7196 -1.7887
 5136TIP3   OH236898   4.830   1.252  12.735  0.2744  0.3413  0.8730
 5136TIP3    H136899   4.823   1.339  12.694  2.6333  0.1926 -0.0165
 5136TIP3    H236900   4.923   1.243  12.756  0.2018 -2.2055  0.4262
 5137TIP3   OH236901   1.287   2.857   0.323 -0.5673  0.6061  0.4607
 5137TIP3    H136902   1.367   2.819   0.360  0.7830 -0.5807 -3.2717
 5137TIP3    H236903   1.309   2.949   0.309 -0.4060  0.6161  0.7578
 5138TIP3   OH236904   5.052   4.267  12.445  0.5122 -0.5348 -0.5372
 5138TIP3    H136905   4.982   4.318  12.405 -0.2925 -1.6397 -0.5963
 5138TIP3    H236906   5.129   4.286  12.393 -0.3341 -1.3319 -2.1468
 5139TIP3   OH236907   2.997   2.031   2.476 -0.0427  0.2843 -0.7141
 5139TIP3    H136908   3.034   2.054   2.391  2.7626  1.0428  0.5972
 5139TIP3    H236909   3.073   2.016   2.532 -1.7857 -0.7608  1.5513
 5140TIP3   OH236910   2.096   4.919  14.276 -0.1097 -0.2765  0.3282
 5140TIP3    H136911   2.007   4.888  14.257  0.0832 -0.9539  0.5106
 5140TIP3    H236912   2.152   4.863  14.223  0.1408  1.1595 -1.0105
 5141TIP3   OH236913   3.460   0.400  12.178  0.0085 -0.1813 -0.2881
 5141TIP3    H136914   3.476   0.475  12.121 -0.3156 -1.0432 -1.5639
 5141TIP3    H236915   3.370   0.374  12.159 -0.8594  0.7553  2.1783
 5142TIP3   OH236916   4.584   6.222   4.528 -0.3961  0.4425  0.1295
 5142TIP3    H136917   4.592   6.315   4.504 -0.1556 -0.5887 -4.7184
 5142TIP3    H236918   4.494   6.200   4.506 -0.3223 -0.6069  0.8420
 5143TIP3   OH236919   4.463   5.350   5.630 -0.0143 -0.3394 -0.1942
 5143TIP3    H136920   4.516   5.390   5.562 -2.0859 -1.5772 -2.7030
 5143TIP3    H236921   4.401   5.418   5.656  1.0455  0.2687  0.8507
 5144TIP3   OH236922   0.853   1.680   1.912 -0.2199 -0.1839  0.0590
 5144TIP3    H136923   0.934   1.637   1.885 -1.8118 -3.0515 -0.5059
 5144TIP3    H236924   0.801   1.686   1.832  0.4222  4.4054 -0.2752
 5145TIP3   OH236925   0.535   0.205   5.351  0.1802 -0.1225 -0.6843
 5145TIP3    H136926   0.542   0.212   5.447  0.2806 -0.7268 -0.6441
 5145TIP3    H236927   0.459   0.259   5.329 -0.4132 -0.7196 -0.1580
 5146TIP3   OH236928   2.345   0.463   3.828 -0.4609 -0.9614  0.2001
 5146TIP3    H136929   2.421   0.427   3.875 -1.2965  0.1787  2.5915
 5146TIP3    H236930   2.325   0.544   3.875 -3.2485 -1.3034 -0.2610
 5147TIP3   OH236931   2.061   6.039  15.830  0.4166 -0.2164 -0.0870
 5147TIP3    H136932   2.068   6.030  15.735  0.5394 -1.6078  0.0257
 5147TIP3    H236933   1.998   6.110  15.843 -0.6433 -0.8957 -1.2234
 5148TIP3   OH236934   6.217   6.216  13.019 -0.2919 -0.5282  0.0195
 5148TIP3    H136935   6.281   6.156  12.979  0.0744  0.3157 -0.6730
 5148TIP3    H236936   6.235   6.301  12.979  0.1818  0.3953  2.0748
 5149TIP3   OH236937   1.362   5.918  12.413 -0.3707 -0.1218 -0.0568
 5149TIP3    H136938   1.294   5.868  12.369 -0.0881  0.5954 -1.3773
 5149TIP3    H236939   1.440   5.864  12.407  0.0853  0.6646 -2.0316
 5150TIP3   OH236940   4.708   2.719   5.769 -0.1131  0.5892 -0.6614
 5150TIP3    H136941   4.751   2.668   5.701 -1.0673  1.0637 -1.6477
 5150TIP3    H236942   4.780   2.765   5.813  0.6405 -0.6769 -0.5061
 5151TIP3   OH236943   1.176   1.987   1.994  0.1210 -0.2323 -0.5316
 5151TIP3    H136944   1.101   1.970   2.051 -1.2700  1.4789 -1.7273
 5151TIP3    H236945   1.181   2.083   1.991  1.9796 -0.3179 -0.9748
 5152TIP3   OH236946   2.439   5.880  13.799 -0.6930 -0.1466  0.1863
 5152TIP3    H136947   2.356   5.915  13.832 -0.4803  0.3410  0.2194
 5152TIP3    H236948   2.485   5.850  13.877 -0.9400 -0.6448  0.1429
 5153TIP3   OH236949   4.817   0.837   5.656 -0.1540 -0.2818 -0.4996
 5153TIP3    H136950   4.851   0.924   5.637 -1.5807  0.7096  1.1857
 5153TIP3    H236951   4.895   0.784   5.674  0.7155  0.7079 -1.2326
 5154TIP3   OH236952   2.991   0.356   4.864  0.1482  0.5045  0.5215
 5154TIP3    H136953   2.986   0.302   4.785 -2.5099  1.8874 -0.3754
 5154TIP3    H236954   3.051   0.427   4.842 -0.7782  1.0224 -0.3856
 5155TIP3   OH236955   0.143   0.894  13.211  0.0275  0.2340 -0.1288
 5155TIP3    H136956   0.123   0.925  13.299 -1.9400  1.0804 -0.8391
 5155TIP3    H236957   0.183   0.808  13.225  0.0711  0.4998  1.5900
 5156TIP3   OH236958   6.789   0.282  12.926 -0.4861 -0.5911  0.3783
 5156TIP3    H136959   6.874   0.264  12.967 -0.9098 -1.4008  0.9263
 5156TIP3    H236960   6.766   0.199  12.883 -1.1182 -0.4511  0.4486
 5157TIP3   OH236961   5.396   5.515   1.861  0.2449 -0.0643 -0.0003
 5157TIP3    H136962   5.324   5.521   1.798  0.2736 -2.5400 -0.3484
 5157TIP3    H236963   5.473   5.501   1.806  0.8075  1.0994  0.4574
 5158TIP3   OH236964   3.817   0.103  15.901  0.1882  0.0393 -0.3208
 5158TIP3    H136965   3.780   0.098  15.813  2.1287  1.4220 -1.2921
 5158TIP3    H236966   3.892   0.044  15.899 -0.0253 -0.2850  0.5873
 5159TIP3   OH236967   1.202   3.411   4.590  0.3058  0.6544  0.2742
 5159TIP3    H136968   1.194   3.369   4.676  1.8113  0.0242  0.1422
 5159TIP3    H236969   1.150   3.355   4.531 -0.1356  0.6755  0.6404
 5160TIP3   OH236970   0.174   4.127   3.829 -0.0437 -0.5610 -0.5338
 5160TIP3    H136971   0.133   4.040   3.832 -0.4186 -0.4133 -1.1269
 5160TIP3    H236972   0.100   4.188   3.824  0.2295 -0.2577 -1.0450
 5161TIP3   OH236973   6.042   1.747  14.942  0.1014 -0.5034  0.6790
 5161TIP3    H136974   6.100   1.822  14.924  1.5558 -1.4738  1.1505
 5161TIP3    H236975   6.102   1.673  14.953 -1.2279 -1.4620  1.6476
 5162TIP3   OH236976   6.679   1.633   5.694 -0.8206  0.0582 -0.1913
 5162TIP3    H136977   6.737   1.707   5.715 -1.9390  0.4499  1.8192
 5162TIP3    H236978   6.614   1.671   5.635  0.0205  0.0154 -1.1770
 5163TIP3   OH236979   3.213   6.076   5.121 -0.0707 -0.1681 -0.1075
 5163TIP3    H136980   3.222   6.048   5.030  1.1391 -1.5332  0.3800
 5163TIP3    H236981   3.253   6.005   5.172  0.4841  1.1549  1.4060
 5164TIP3   OH236982   0.284   5.071   4.929  0.3426 -0.4942  0.1129
 5164TIP3    H136983   0.240   5.058   5.013  0.5088 -0.2962  0.2329
 5164TIP3    H236984   0.344   4.998   4.921  0.6153 -0.2975  0.3547
 5165TIP3   OH236985   4.347   1.076  16.907 -0.4284 -0.4643  0.0336
 5165TIP3    H136986   4.377   1.162  16.935  0.1968 -0.4855 -0.5338
 5165TIP3    H236987   4.261   1.066  16.948 -0.8229  0.7255 -0.4472
 5166TIP3   OH236988   4.215   5.199   2.016  0.3085  0.3849 -0.2010
 5166TIP3    H136989   4.252   5.152   1.942  0.3981  0.3161 -0.1127
 5166TIP3    H236990   4.287   5.206   2.079  1.0441  2.6947 -1.1648
 5167TIP3   OH236991   2.565   4.876  16.792 -0.1284 -0.1574 -0.2213
 5167TIP3    H136992   2.615   4.834  16.863 -1.1987  0.1372  0.7522
 5167TIP3    H236993   2.623   4.945  16.759  0.5172 -0.5091  0.1480
 5168TIP3   OH236994   2.927   2.309   3.196  1.2300  0.6320 -0.5417
 5168TIP3    H136995   2.879   2.235   3.158  2.1168 -0.1798 -0.1172
 5168TIP3    H236996   2.882   2.386   3.162 -1.8112 -0.0213  1.4814
 5169TIP3   OH236997   0.614   5.166  11.070 -0.1317 -0.4668 -0.0236
 5169TIP3    H136998   0.582   5.245  11.026  0.9053 -0.4721 -0.8395
 5169TIP3    H236999   0.570   5.166  11.155  1.0277  1.8487  0.6550
 5170TIP3   OH237000   0.682   0.392   0.078  0.1747 -0.1415  0.5946
 5170TIP3    H137001   0.777   0.391   0.089  0.4403  1.7447 -1.0515
 5170TIP3    H237002   0.649   0.343   0.153  2.4822 -2.1603  0.4326
 5171TIP3   OH237003   1.598   0.810  16.256  0.1500  0.9601  0.0499
 5171TIP3    H137004   1.613   0.867  16.180 -1.7900  2.4470  0.6834
 5171TIP3    H237005   1.630   0.861  16.330 -0.8040  0.8614  0.5375
 5172TIP3   OH237006   5.524   0.585   1.522  0.1545 -0.3970  0.3697
 5172TIP3    H137007   5.594   0.576   1.457 -1.7436 -0.8989 -1.7420
 5172TIP3    H237008   5.568   0.571   1.606  2.6840 -0.0379 -0.7849
 5173TIP3   OH237009   5.004   6.745  11.611 -0.0014 -0.1316  0.2576
 5173TIP3    H137010   5.052   6.728  11.530  1.6139  0.6349  0.9948
 5173TIP3    H237011   5.072   6.766  11.675 -1.3530  3.4514  0.8039
 5174TIP3   OH237012   2.968   5.235   1.660  0.0211  0.6205 -0.0139
 5174TIP3    H137013   2.880   5.245   1.623 -0.5900 -0.5479  1.0658
 5174TIP3    H237014   3.004   5.157   1.618  0.9159  1.5635 -1.0848
 5175TIP3   OH237015   0.308   5.787  15.243 -0.2816  0.2308  0.1119
 5175TIP3    H137016   0.287   5.694  15.246 -1.0142  0.3681 -0.5532
 5175TIP3    H237017   0.299   5.811  15.151 -1.9649  1.3695  0.5261
 5176TIP3   OH237018   3.432   0.313   3.952  0.6609  0.7729  0.0055
 5176TIP3    H137019   3.500   0.260   3.911  0.2574  1.5564 -1.7728
 5176TIP3    H237020   3.427   0.392   3.899 -0.9982  1.1464  0.6339
 5177TIP3   OH237021   3.443   6.527  16.483 -0.2135  0.1455  0.3764
 5177TIP3    H137022   3.483   6.538  16.570 -1.3822 -2.2035  1.3325
 5177TIP3    H237023   3.444   6.432  16.469 -2.7792  0.2205 -0.8081
 5178TIP3   OH237024   6.233   4.921  13.006  0.1816 -0.2065  0.2346
 5178TIP3    H137025   6.324   4.944  12.986  0.2652 -0.3055  0.4941
 5178TIP3    H237026   6.238   4.875  13.089 -0.3728  2.0520  1.6143
 5179TIP3   OH237027   0.247   5.701  13.571  0.7979 -0.1512 -0.4213
 5179TIP3    H137028   0.226   5.790  13.542  0.1926 -0.0367  0.3353
 5179TIP3    H237029   0.289   5.713  13.656 -2.7750 -0.7302  1.5828
 5180TIP3   OH237030   5.966   3.118  17.005 -0.1369 -0.3704 -0.1173
 5180TIP3    H137031   5.921   3.143  16.924 -3.1412 -0.8192  1.2865
 5180TIP3    H237032   5.965   3.023  17.005  3.7582 -0.5694 -1.4685
 5181TIP3   OH237033   6.094   0.580  16.313  0.4741  0.0446 -0.3345
 5181TIP3    H137034   6.160   0.553  16.377 -0.4942 -0.8407  0.3343
 5181TIP3    H237035   6.018   0.606  16.366 -0.3068 -0.5910 -1.1021
 5182TIP3   OH237036   6.440   5.769  15.685  0.2612 -0.3866 -0.6264
 5182TIP3    H137037   6.527   5.777  15.645  0.8538 -0.3215  0.6152
 5182TIP3    H237038   6.409   5.683  15.659  1.4575 -1.1367  0.3108
 5183TIP3   OH237039   2.585   1.264   0.615 -0.1298 -0.7398 -0.1438
 5183TIP3    H137040   2.507   1.271   0.670  0.7125 -0.8136  1.1219
 5183TIP3    H237041   2.631   1.188   0.649  0.3364 -0.8980 -1.0950
 5184TIP3   OH237042   2.051   2.133   4.247  0.0015 -0.7788  0.1629
 5184TIP3    H137043   1.978   2.113   4.189 -0.8014 -0.0974  0.9153
 5184TIP3    H237044   2.010   2.157   4.330  1.1120 -1.4177  0.9265
 5185TIP3   OH237045   5.761   2.459  16.128  0.2392  0.1488 -0.1139
 5185TIP3    H137046   5.771   2.554  16.126 -0.1588  0.3160  2.4678
 5185TIP3    H237047   5.684   2.442  16.074  0.9471  1.1483 -1.4949
 5186TIP3   OH237048   5.835   0.283  13.911 -0.9254 -0.6089  0.5857
 5186TIP3    H137049   5.909   0.303  13.967 -1.1529 -0.4375  0.8264
 5186TIP3    H237050   5.759   0.290  13.968 -0.9334 -3.5798  1.0873
 5187TIP3   OH237051   1.071   6.050   6.314  0.6074  0.3091  0.2204
 5187TIP3    H137052   1.031   5.963   6.316 -1.0267  1.0013 -0.4563
 5187TIP3    H237053   1.133   6.050   6.386 -0.9831 -0.6869  1.6496
 5188TIP3   OH237054   3.527   3.290   0.614 -0.1963 -0.1047  0.0339
 5188TIP3    H137055   3.621   3.287   0.628 -0.2939 -1.5987  0.4888
 5188TIP3    H237056   3.490   3.236   0.684 -1.3627  0.1011 -0.3961
 5189TIP3   OH237057   1.016   5.120  14.864 -0.2135  0.1196 -0.2966
 5189TIP3    H137058   0.992   5.207  14.897  1.7906  0.5311  0.2165
 5189TIP3    H237059   1.069   5.082  14.933 -0.1746 -1.1098 -0.9695
 5190TIP3   OH237060   1.370   3.075  14.402  0.1156 -0.1297  0.4226
 5190TIP3    H137061   1.300   3.128  14.440 -0.0999 -0.0384 -0.0942
 5190TIP3    H237062   1.419   3.137  14.348  0.0575 -0.3877  0.0753
 5191TIP3   OH237063   1.285   6.142   3.725 -0.2552 -0.1083 -0.4758
 5191TIP3    H137064   1.307   6.050   3.739 -1.8371 -0.3463  0.7069
 5191TIP3    H237065   1.334   6.188   3.794  0.3542 -0.0828 -0.9223
 5192TIP3   OH237066   6.080   4.058   4.702 -0.0862  0.4068  0.3254
 5192TIP3    H137067   6.034   3.974   4.709 -2.0243  1.5529  3.1291
 5192TIP3    H237068   6.171   4.034   4.684 -1.0280 -2.1278 -1.6335
 5193TIP3   OH237069   0.574   6.537   2.734  0.4964 -0.3002  0.0164
 5193TIP3    H137070   0.633   6.560   2.806 -0.6455 -0.4712  1.0413
 5193TIP3    H237071   0.576   6.612   2.676 -0.9306  1.2430  1.8216
 5194TIP3   OH237072   0.906   2.554   1.041 -0.5373  0.4612  0.3610
 5194TIP3    H137073   0.857   2.574   1.121 -0.6708  1.6646  0.0052
 5194TIP3    H237074   0.969   2.488   1.068 -0.0704  1.3775  1.6643
 5195TIP3   OH237075   3.838   4.104  16.114  0.3283  0.4446 -0.5152
 5195TIP3    H137076   3.768   4.164  16.143 -0.0006  1.0233 -2.3505
 5195TIP3    H237077   3.856   4.049  16.190 -0.8726  1.4775  0.5620
 5196TIP3   OH237078   0.352   1.258  16.064  0.2473 -0.3559 -0.5896
 5196TIP3    H137079   0.418   1.194  16.090 -2.1098 -2.3133  1.1264
 5196TIP3    H237080   0.356   1.326  16.131  0.3530 -0.6138 -0.3320
 5197TIP3   OH237081   2.620   1.710  12.768  0.0465  0.2339  0.2333
 5197TIP3    H137082   2.564   1.725  12.692  1.0446  0.3889 -0.4893
 5197TIP3    H237083   2.632   1.615  12.770 -1.0381  0.1087  0.9763
 5198TIP3   OH237084   3.757   4.031   0.159 -0.1607 -0.1931  0.1199
 5198TIP3    H137085   3.671   3.993   0.138 -0.8723  1.1686  0.4619
 5198TIP3    H237086   3.782   4.077   0.079 -0.4835  0.7203  0.5404
 5199TIP3   OH237087   1.335   6.805  12.251 -0.1585 -0.0149 -0.1796
 5199TIP3    H137088   1.320   6.717  12.215  0.0538 -0.1296  0.0152
 5199TIP3    H237089   1.259   6.855  12.220  0.1965 -0.0185 -1.0948
 5200TIP3   OH237090   1.681   3.983  16.596  0.2029  0.1424  0.1472
 5200TIP3    H137091   1.643   3.925  16.663 -0.3736  0.5189  0.1498
 5200TIP3    H237092   1.654   4.071  16.622  0.2123  0.3209 -0.4321
 5201TIP3   OH237093   3.331   5.455   1.966  0.1239 -0.4431  0.0774
 5201TIP3    H137094   3.248   5.445   2.013  1.8278  0.4580  3.6054
 5201TIP3    H237095   3.363   5.366   1.954  0.1117 -0.6847  1.6463
 5202TIP3   OH237096   1.549   0.712   5.548  0.4588 -0.2493 -0.2433
 5202TIP3    H137097   1.490   0.783   5.573 -0.7565 -0.9056 -1.1705
 5202TIP3    H237098   1.537   0.702   5.454 -0.1487 -2.3389  0.0176
 5203TIP3   OH237099   0.670   6.722  13.954 -0.5923  0.2497 -0.0680
 5203TIP3    H137100   0.635   6.633  13.959 -0.6540  0.3072  0.5266
 5203TIP3    H237101   0.676   6.739  13.860 -0.1983 -0.5265 -0.1955
 5204TIP3   OH237102   4.103   1.750  15.598  0.2929 -0.2114  0.0966
 5204TIP3    H137103   4.090   1.819  15.663 -0.0114 -0.3496  0.1857
 5204TIP3    H237104   4.063   1.672  15.637 -0.0261 -0.2591 -0.3176
 5205TIP3   OH237105   6.725   2.108  10.730  0.1230  0.1333  0.5051
 5205TIP3    H137106   6.695   2.017  10.722 -0.6324  0.4269 -0.0829
 5205TIP3    H237107   6.801   2.103  10.788 -0.9423 -0.6705  1.8981
 5206TIP3   OH237108   1.875   1.940   0.118 -0.3648 -0.1400  0.2661
 5206TIP3    H137109   1.942   1.877   0.145 -1.6954 -2.1017 -0.8105
 5206TIP3    H237110   1.838   1.972   0.200  1.9284  1.1419  0.9060
 5207TIP3   OH237111   3.660   1.523  11.911 -0.4773 -0.2919 -0.3396
 5207TIP3    H137112   3.642   1.521  12.005  0.1210  0.3002 -0.2054
 5207TIP3    H237113   3.573   1.531  11.871 -0.7573 -0.8553  0.1454
 5208TIP3   OH237114   5.371   5.157  11.683 -0.0674 -0.2969  0.5488
 5208TIP3    H137115   5.419   5.154  11.765 -1.3790  1.8957  1.4895
 5208TIP3    H237116   5.435   5.133  11.616  1.9143  1.0211  1.8877
 5209TIP3   OH237117   6.569   2.872   2.404  0.3354 -0.9302  0.3794
 5209TIP3    H137118   6.555   2.956   2.448 -0.3369 -1.5857  1.4467
 5209TIP3    H237119   6.593   2.896   2.314  2.8425  0.4765  1.3248
 5210TIP3   OH237120   5.340   1.995  17.214 -0.2121  0.1284  0.1478
 5210TIP3    H137121   5.270   1.930  17.222 -0.9006  0.9971  1.6187
 5210TIP3    H237122   5.352   2.007  17.120 -0.0954 -2.0696 -0.1697
 5211TIP3   OH237123   3.032   6.423   6.014  0.0503  0.2745  0.6960
 5211TIP3    H137124   2.941   6.443   5.990  0.4798 -0.6054 -2.0279
 5211TIP3    H237125   3.076   6.507   6.009 -0.3966  0.5292  0.9325
 5212TIP3   OH237126   6.750   5.636  13.722 -0.0063  0.4614  0.5260
 5212TIP3    H137127   6.659   5.609  13.731 -0.4331  1.0906 -1.3207
 5212TIP3    H237128   6.795   5.557  13.691 -0.5714  0.8641 -1.5035
 5213TIP3   OH237129   4.106   0.370  15.654 -0.2230 -0.4625 -0.2841
 5213TIP3    H137130   4.042   0.434  15.686 -1.9748 -1.7067 -1.0949
 5213TIP3    H237131   4.139   0.408  15.572 -1.1238 -0.4877 -0.6767
 5214TIP3   OH237132   1.624   2.113   1.917 -0.0598  0.0619  0.3280
 5214TIP3    H137133   1.647   2.022   1.932  0.1088  0.3079  1.6864
 5214TIP3    H237134   1.528   2.115   1.916 -0.0599 -0.2074 -0.2488
 5215TIP3   OH237135   2.849   1.063  17.201 -0.5285 -0.5530  0.8070
 5215TIP3    H137136   2.919   1.006  17.168 -0.6922 -1.0561  1.3137
 5215TIP3    H237137   2.820   1.021  17.282  0.4155  1.0546  2.0553
 5216TIP3   OH237138   2.748   6.104   1.847 -0.5841 -0.0825  0.2072
 5216TIP3    H137139   2.818   6.040   1.858  1.8542  2.6019  1.6782
 5216TIP3    H237140   2.681   6.079   1.911  0.2091 -1.2563  0.5872
 5217TIP3   OH237141   2.128   5.853  14.329  0.0007 -0.6189 -0.0793
 5217TIP3    H137142   2.079   5.817  14.403 -0.6441 -1.3800 -0.8571
 5217TIP3    H237143   2.197   5.788  14.312  1.3528  0.4728  1.0455
 5218TIP3   OH237144   0.592   4.084  12.037  0.8658 -0.1409  0.2189
 5218TIP3    H137145   0.536   4.136  12.095  0.5853 -0.1082 -0.0731
 5218TIP3    H237146   0.531   4.049  11.971  1.0315 -0.9343  0.4749
 5219TIP3   OH237147   2.602   1.996  15.438 -0.0631 -0.0680 -0.1780
 5219TIP3    H137148   2.582   2.049  15.516  0.7109  1.4591 -0.9646
 5219TIP3    H237149   2.682   1.949  15.461  0.3249  0.5977 -0.1445
 5220TIP3   OH237150   3.426   1.273   6.094 -0.0335  0.1901 -0.1590
 5220TIP3    H137151   3.483   1.340   6.132  0.0842 -1.0863  2.1230
 5220TIP3    H237152   3.345   1.321   6.072 -0.2697  1.0280  2.1622
 5221TIP3   OH237153   3.130   3.499   0.630 -0.1507 -0.0464 -0.3251
 5221TIP3    H137154   3.107   3.406   0.626  0.6952 -0.2138 -1.4132
 5221TIP3    H237155   3.215   3.501   0.672 -0.3086  0.2704 -0.0148
 5222TIP3   OH237156   3.772   5.225  14.635  0.2563 -0.1408 -0.0057
 5222TIP3    H137157   3.812   5.149  14.592 -0.5304  0.0292 -1.0790
 5222TIP3    H237158   3.683   5.197  14.657  0.9455 -0.5659  2.4996
 5223TIP3   OH237159   4.776   4.198  12.022  0.5229 -0.4421  0.3902
 5223TIP3    H137160   4.861   4.210  12.064  1.0255 -0.1868 -0.6678
 5223TIP3    H237161   4.722   4.156  12.088  0.4455  2.3420  2.2488
 5224TIP3   OH237162   4.280   6.627   6.052 -0.1223  0.0376  0.5402
 5224TIP3    H137163   4.269   6.568   6.127  2.3139  1.2003  1.9471
 5224TIP3    H237164   4.355   6.590   6.005  1.7470  2.0935  1.6967
 5225TIP3   OH237165   5.550   2.850   4.135 -0.6427 -0.0592  0.2173
 5225TIP3    H137166   5.548   2.809   4.048  0.6273 -1.7345  0.9225
 5225TIP3    H237167   5.458   2.866   4.156 -0.9798  0.3306 -1.3953
 5226TIP3   OH237168   3.925   5.373   3.708  0.3272 -0.1670 -0.0603
 5226TIP3    H137169   3.909   5.414   3.623 -1.7754  1.0843  0.8682
 5226TIP3    H237170   4.020   5.374   3.717  0.5916 -0.1743 -2.3003
 5227TIP3   OH237171   1.546   5.810   5.109 -0.3453  0.1720  0.1946
 5227TIP3    H137172   1.497   5.841   5.185 -0.5950  1.7267 -0.5610
 5227TIP3    H237173   1.494   5.738   5.074 -1.8135  1.3665 -0.1978
 5228TIP3   OH237174   3.162   4.685   1.248  0.0175 -0.3872 -0.3338
 5228TIP3    H137175   3.134   4.776   1.245 -2.2089 -1.0196 -1.5214
 5228TIP3    H237176   3.246   4.686   1.294 -0.8638  2.0114  1.4145
 5229TIP3   OH237177   3.834   5.926  13.922 -0.4932  0.4811  0.5604
 5229TIP3    H137178   3.741   5.941  13.909 -0.3477  0.7660 -0.2677
 5229TIP3    H237179   3.874   5.948  13.837  0.2433 -0.3520  0.6709
 5230TIP3   OH237180   3.080   0.079   0.072  0.2189 -0.3446 -0.4480
 5230TIP3    H137181   3.130   0.115  -0.001  0.4132  1.1942  0.4190
 5230TIP3    H237182   3.146   0.042   0.130  0.0551 -1.7003 -1.0677
 5231TIP3   OH237183   2.702   3.807  14.872  0.0036 -0.5484 -0.0006
 5231TIP3    H137184   2.700   3.746  14.798  1.2664 -3.6563  2.3180
 5231TIP3    H237185   2.794   3.835  14.877  0.2367 -1.4579  1.1538
 5232TIP3   OH237186   6.718   3.458  15.694 -0.2253  0.2362  0.0649
 5232TIP3    H137187   6.638   3.452  15.641 -0.6825  0.5601  0.6980
 5232TIP3    H237188   6.697   3.524  15.761  0.0037 -0.8190  1.2153
 5233TIP3   OH237189   3.140   3.329  14.611  0.1011  0.2741  0.2108
 5233TIP3    H137190   3.065   3.330  14.552  0.6539  0.5946 -0.5122
 5233TIP3    H237191   3.108   3.367  14.692 -0.9211 -1.0391  0.4476
 5234TIP3   OH237192   2.358   6.550  12.823 -0.5391  0.1023 -0.5408
 5234TIP3    H137193   2.442   6.507  12.804  0.4062  1.3148  0.6651
 5234TIP3    H237194   2.330   6.512  12.906 -0.1181  1.1542  0.1045
 5235TIP3   OH237195   3.371   5.796   3.598 -0.0056 -0.3507 -0.0395
 5235TIP3    H137196   3.308   5.762   3.534  0.6444 -3.2454  0.7192
 5235TIP3    H237197   3.456   5.781   3.559  0.3545 -0.8175  0.9027
 5236TIP3   OH237198   4.098   0.583  13.059 -0.4482  0.5264  0.3247
 5236TIP3    H137199   4.173   0.640  13.071 -1.3225  1.7081  0.3443
 5236TIP3    H237200   4.050   0.620  12.985 -0.1502 -1.1820 -0.7711
 5237TIP3   OH237201   6.204   1.388  10.763  0.3170  0.2853  0.2121
 5237TIP3    H137202   6.130   1.424  10.714 -1.0383 -2.5576 -0.0594
 5237TIP3    H237203   6.280   1.403  10.706 -0.7173 -0.2234 -1.3844
 5238TIP3   OH237204   3.123   4.859  12.951  0.7220  0.1403 -0.4681
 5238TIP3    H137205   3.044   4.806  12.941  1.7980 -1.3768 -1.2508
 5238TIP3    H237206   3.113   4.928  12.885 -0.9964  1.4027  0.9987
 5239TIP3   OH237207   2.643   4.475  16.864  0.4025  0.0634  0.0300
 5239TIP3    H137208   2.717   4.433  16.821  0.1729  0.7353 -1.0586
 5239TIP3    H237209   2.593   4.403  16.902 -1.0307 -0.9581 -3.4164
 5240TIP3   OH237210   1.692   5.791  14.860 -0.0924 -0.0434 -0.6885
 5240TIP3    H137211   1.697   5.829  14.948  1.5749  0.0534 -0.7974
 5240TIP3    H237212   1.630   5.718  14.870  0.7490 -0.6015  0.7945
 5241TIP3   OH237213   4.495   6.325  11.639  0.7934  0.1297 -0.2442
 5241TIP3    H137214   4.552   6.249  11.652 -0.3465 -0.9387 -1.2049
 5241TIP3    H237215   4.504   6.345  11.546 -2.7816 -2.1781 -1.3097
 5242TIP3   OH237216   6.425   6.028   0.259 -0.3411  1.0916  0.1949
 5242TIP3    H137217   6.467   6.096   0.207 -0.2624  2.2476  1.6956
 5242TIP3    H237218   6.392   6.074   0.336 -1.4239 -0.3666  0.6460
 5243TIP3   OH237219   1.716   3.659   0.321  0.4022  0.7710  0.0358
 5243TIP3    H137220   1.627   3.680   0.349  0.9629  1.5533  1.3094
 5243TIP3    H237221   1.754   3.744   0.298  1.1354  0.5717  0.4984
 5244TIP3   OH237222   2.324   3.451  15.006 -0.0640 -0.0375 -0.3057
 5244TIP3    H137223   2.288   3.487  14.925 -2.0091 -0.2051  0.4160
 5244TIP3    H237224   2.269   3.374  15.024  1.1862 -0.7842  0.4879
 5245TIP3   OH237225   4.513   0.778   4.112 -0.1438  0.1678  0.2182
 5245TIP3    H137226   4.426   0.817   4.110  0.4319  1.5134 -0.4343
 5245TIP3    H237227   4.527   0.754   4.203  0.1338  3.2448  1.0989
 5246TIP3   OH237228   6.452   2.063  15.488  0.1594  0.1536  0.0861
 5246TIP3    H137229   6.410   2.068  15.574 -0.4201 -0.9411 -0.1182
 5246TIP3    H237230   6.496   1.978  15.487 -0.7540 -0.3414 -1.0886
 5247TIP3   OH237231   1.774   5.570  12.584  0.4089 -0.5190 -0.6274
 5247TIP3    H137232   1.803   5.623  12.509  0.5079  0.9495  0.3888
 5247TIP3    H237233   1.843   5.582  12.649 -0.6064 -0.1384  0.4152
 5248TIP3   OH237234   3.317   6.500  12.572  0.4832  0.2253 -0.0152
 5248TIP3    H137235   3.384   6.444  12.612  0.5761  0.1381 -0.2817
 5248TIP3    H237236   3.252   6.514  12.640 -0.0487 -1.0331 -0.2327
 5249TIP3   OH237237   3.753   0.853   3.739 -0.3532  0.1009  0.2977
 5249TIP3    H137238   3.841   0.828   3.711 -0.1942  0.9470  0.0088
 5249TIP3    H237239   3.743   0.943   3.707 -1.0798  0.2333  0.8905
 5250TIP3   OH237240   4.429   5.297  10.906  0.7501  0.0406 -0.0764
 5250TIP3    H137241   4.469   5.321  10.823  0.7485 -0.6490 -0.2824
 5250TIP3    H237242   4.400   5.206  10.894  1.5703 -0.3791  0.9623
 5251TIP3   OH237243   5.425   3.775  12.560  0.1009 -0.2570 -0.2920
 5251TIP3    H137244   5.437   3.865  12.528  3.2329 -0.6960 -0.6802
 5251TIP3    H237245   5.456   3.778  12.651  1.3744 -1.1637 -0.6833
 5252TIP3   OH237246   1.744   5.762  11.782  0.6646 -0.4075  0.0203
 5252TIP3    H137247   1.678   5.717  11.730  0.5373 -0.6150  0.3607
 5252TIP3    H237248   1.823   5.709  11.771  0.5823 -0.5713  0.2097
 5253TIP3   OH237249   6.824   0.682  16.712  0.2837 -0.1264 -0.1872
 5253TIP3    H137250   6.779   0.700  16.630  0.2237 -1.2111 -0.3966
 5253TIP3    H237251   6.896   0.745  16.715 -0.2202  0.4769 -0.6603
 5254TIP3   OH237252   3.132   3.772  12.291 -0.2291  0.6898 -0.0249
 5254TIP3    H137253   3.067   3.840  12.309 -2.4751 -1.3295 -0.0808
 5254TIP3    H237254   3.146   3.777  12.197 -3.7584 -1.6221 -0.8392
 5255TIP3   OH237255   1.075   2.931   4.005 -0.0072  0.2480 -0.0000
 5255TIP3    H137256   1.051   2.838   4.008  1.5050 -0.2103 -1.1003
 5255TIP3    H237257   1.040   2.967   4.087 -3.7478 -0.4544 -1.0735
 5256TIP3   OH237258   2.968   2.881  14.367  0.0576  0.1666  0.4784
 5256TIP3    H137259   2.999   2.964  14.331 -0.1619 -0.2653 -0.7700
 5256TIP3    H237260   2.946   2.829  14.290 -1.4533 -0.4250  1.2689
 5257TIP3   OH237261   4.193   3.109  11.998  0.1734 -0.3285 -0.3113
 5257TIP3    H137262   4.244   3.190  11.993  1.0250 -0.8393 -0.1121
 5257TIP3    H237263   4.108   3.132  11.961  1.1153  0.0815 -2.3392
 5258TIP3   OH237264   5.001   5.913  16.375  0.1679  0.1406  0.5063
 5258TIP3    H137265   4.938   5.981  16.353 -0.0575 -0.5324 -1.0553
 5258TIP3    H237266   4.948   5.835  16.392  0.5204 -0.2998 -0.3184
 5259TIP3   OH237267   6.597   5.708  14.224 -0.5298 -0.3498 -0.2149
 5259TIP3    H137268   6.545   5.783  14.255  0.8945 -0.0579  1.6450
 5259TIP3    H237269   6.630   5.736  14.138 -1.3393  0.4739 -0.2758
 5260TIP3   OH237270   3.905   3.025   1.551 -0.3007 -0.5235  0.2607
 5260TIP3    H137271   3.937   3.076   1.476 -0.4580  0.1702  0.6568
 5260TIP3    H237272   3.843   2.963   1.512  0.5353 -1.0004 -0.3390
 5261TIP3   OH237273   3.074   3.042  13.458 -0.1503  0.7423 -1.0838
 5261TIP3    H137274   3.112   2.989  13.388  1.0829  0.5745 -0.3169
 5261TIP3    H237275   3.144   3.050  13.523 -0.2762  3.3479 -1.1664
 5262TIP3   OH237276   3.167   1.732   1.659  0.1734 -0.3206 -0.1962
 5262TIP3    H137277   3.205   1.819   1.643  1.1112 -0.8704 -1.0464
 5262TIP3    H237278   3.080   1.751   1.695  1.0876  0.9701  1.5056
 5263TIP3   OH237279   0.887   0.472  13.732  0.0842 -0.1366 -0.1635
 5263TIP3    H137280   0.922   0.441  13.649  1.7628  3.3776 -0.9551
 5263TIP3    H237281   0.805   0.516  13.710  0.8717  1.4102 -0.1715
 5264TIP3   OH237282   5.928   4.122  12.342 -0.0441 -0.4116 -0.1185
 5264TIP3    H137283   5.871   4.060  12.388  2.0730 -2.0144  0.5444
 5264TIP3    H237284   5.997   4.142  12.405  0.1335  1.4764 -0.8694
 5265TIP3   OH237285   6.108   2.343  16.613  0.0526  0.0212  0.3407
 5265TIP3    H137286   6.099   2.366  16.706  2.3587 -0.9009  0.8714
 5265TIP3    H237287   6.079   2.421  16.566  2.7693  2.2189  1.9531
 5266TIP3   OH237288   2.739   6.378  11.256 -0.0986 -0.5787  0.0205
 5266TIP3    H137289   2.762   6.471  11.251  1.4377 -0.9059  0.5891
 5266TIP3    H237290   2.679   6.364  11.183 -0.5826  0.9263  0.1116
 5267TIP3   OH237291   2.767   1.543   1.492 -0.0163 -0.3572  0.0318
 5267TIP3    H137292   2.743   1.521   1.402  1.2592 -0.7640 -0.2293
 5267TIP3    H237293   2.815   1.467   1.523  1.5635  0.6920  0.2642
 5268TIP3   OH237294   3.658   0.770  14.086  0.0787  0.0336  0.5374
 5268TIP3    H137295   3.595   0.708  14.121  0.9664 -0.7835  0.7276
 5268TIP3    H237296   3.662   0.840  14.151 -0.7128  0.1499  0.4625
 5269TIP3   OH237297   5.752   3.142  13.612 -0.3232  0.4160 -1.1228
 5269TIP3    H137298   5.707   3.141  13.696 -1.0955 -0.8540 -1.5233
 5269TIP3    H237299   5.725   3.061  13.569  1.0863  0.4039 -2.0585
 5270TIP3   OH237300   2.106   4.376  13.920  0.3705 -0.8528 -0.0718
 5270TIP3    H137301   2.075   4.289  13.948 -1.4979 -0.7026 -1.4897
 5270TIP3    H237302   2.026   4.423  13.897  1.4591  0.8326 -0.5510
 5271TIP3   OH237303   5.135   1.559   6.024  0.5040 -0.5001 -0.1101
 5271TIP3    H137304   5.114   1.650   6.001  1.0948 -0.2837  0.2004
 5271TIP3    H237305   5.148   1.560   6.119  3.1001 -0.3594 -0.3900
 5272TIP3   OH237306   5.071   4.502  14.371  0.2149 -0.1892  0.3001
 5272TIP3    H137307   5.105   4.579  14.417  1.0397 -0.6195  0.4349
 5272TIP3    H237308   4.980   4.495  14.400  0.5890 -0.1954  1.5563
 5273TIP3   OH237309   1.051   0.949   3.728  0.2002 -0.4086 -0.3990
 5273TIP3    H137310   1.003   0.879   3.772 -0.1812  0.1416  0.0769
 5273TIP3    H237311   1.049   1.022   3.790  1.6114 -0.3484 -0.3829
 5274TIP3   OH237312   0.320   3.490  16.903 -0.4204  0.3616 -0.1148
 5274TIP3    H137313   0.353   3.405  16.932  3.6829  2.7880  3.8095
 5274TIP3    H237314   0.238   3.502  16.950  0.4774 -0.3931  1.7539
 5275TIP3   OH237315   1.744   2.583  11.415  0.2167  0.0292 -0.0917
 5275TIP3    H137316   1.715   2.540  11.334  1.9580  0.3396 -0.9227
 5275TIP3    H237317   1.806   2.521  11.454  0.1744  0.3417  0.4775
 5276TIP3   OH237318   0.584   5.724   1.845  0.9803 -0.2517 -0.0217
 5276TIP3    H137319   0.529   5.657   1.885 -0.8099  0.7521 -0.6535
 5276TIP3    H237320   0.602   5.786   1.917 -1.1159  0.8538 -0.3593
 5277TIP3   OH237321   4.267   0.174  12.540  0.3353  0.2360 -0.0154
 5277TIP3    H137322   4.337   0.232  12.511  1.5248 -0.3804  1.5031
 5277TIP3    H237323   4.278   0.095  12.487  0.1743  0.5048 -0.4535
 5278TIP3   OH237324   1.485   3.659   1.494 -0.2294 -0.0919  0.3433
 5278TIP3    H137325   1.561   3.717   1.489  1.5639 -2.3858 -2.1914
 5278TIP3    H237326   1.415   3.707   1.450  0.9261  0.6287 -0.7952
 5279TIP3   OH237327   6.257   4.963  10.899  1.0792  0.3790 -0.3687
 5279TIP3    H137328   6.173   4.953  10.854  1.3281  0.4396 -0.8517
 5279TIP3    H237329   6.308   4.887  10.871  0.0350 -1.5978  2.5677
 5280TIP3   OH237330   4.611   6.108  11.928 -0.6366 -0.2334  0.8534
 5280TIP3    H137331   4.588   6.019  11.901  0.6306  0.2447 -2.2155
 5280TIP3    H237332   4.699   6.100  11.965  0.8114 -0.0110 -2.2018
 5281TIP3   OH237333   4.125   3.384  15.623 -0.5447 -0.1174  0.2641
 5281TIP3    H137334   4.212   3.364  15.659 -0.1998 -0.3623 -0.6912
 5281TIP3    H237335   4.128   3.478  15.603 -0.5069 -0.1257  0.2329
 5282TIP3   OH237336   4.791   1.294   4.921  0.2265 -0.3172 -0.6638
 5282TIP3    H137337   4.835   1.329   4.844 -0.8390 -2.4690 -2.3610
 5282TIP3    H237338   4.852   1.230   4.958  0.3798  0.0685 -0.2431
 5283TIP3   OH237339   0.827   1.480   1.356  0.0538  0.2798 -0.6077
 5283TIP3    H137340   0.867   1.504   1.439 -0.0010 -0.0990 -0.4710
 5283TIP3    H237341   0.897   1.440   1.305  0.1312  0.6712 -0.8143
 5284TIP3   OH237342   3.449   1.512   5.533 -0.0376  0.2412  0.4144
 5284TIP3    H137343   3.500   1.585   5.497  2.0184 -0.7390  1.1548
 5284TIP3    H237344   3.443   1.530   5.626 -0.6949  0.1231  0.3983
 5285TIP3   OH237345   6.198   2.356  12.912  0.2380  0.0553  0.8940
 5285TIP3    H137346   6.234   2.268  12.922 -1.2234 -0.6276  0.3532
 5285TIP3    H237347   6.191   2.390  13.002  1.6314 -0.0004  1.0503
 5286TIP3   OH237348   5.852   1.327   1.827  0.1613 -0.3585 -0.4469
 5286TIP3    H137349   5.792   1.328   1.752  0.4740 -2.2691 -0.7598
 5286TIP3    H237350   5.799   1.361   1.899  0.5483  3.9993 -1.8997
 5287TIP3   OH237351   0.043   2.885  11.497 -0.0926 -0.2694  0.1158
 5287TIP3    H137352  -0.046   2.852  11.514 -0.4048  1.4279  2.2524
 5287TIP3    H237353   0.039   2.977  11.523  2.3412 -0.1957  0.3818
 5288TIP3   OH237354   6.520   4.554  10.584 -0.0607  0.9167 -0.0702
 5288TIP3    H137355   6.442   4.528  10.533  0.3228 -0.0359 -0.1997
 5288TIP3    H237356   6.486   4.614  10.650 -0.8672  0.7308 -0.2944
 5289TIP3   OH237357   4.042   6.820  11.904 -0.3451  0.5691  0.1080
 5289TIP3    H137358   4.046   6.814  11.809 -1.1496  2.4653 -0.1020
 5289TIP3    H237359   4.129   6.796  11.934 -0.5060 -1.5604 -0.9646
 5290TIP3   OH237360   6.175   0.802  13.816  0.1571  0.5684 -0.2594
 5290TIP3    H137361   6.229   0.874  13.847  1.0857  0.8435 -2.3374
 5290TIP3    H237362   6.097   0.804  13.871  1.1134  1.7883  1.1151
 5291TIP3   OH237363   3.589   3.848  11.866  0.1883  0.4142  0.2740
 5291TIP3    H137364   3.578   3.760  11.831  1.8541  1.1085 -2.2948
 5291TIP3    H237365   3.573   3.839  11.960  1.8657 -2.9343  0.3922
 5292TIP3   OH237366   2.302   3.658  11.443  0.1791  0.0917 -0.1911
 5292TIP3    H137367   2.325   3.571  11.476 -0.0717  0.3636  0.7365
 5292TIP3    H237368   2.337   3.719  11.509 -0.2180  0.6586 -0.4939
 5293TIP3   OH237369   1.625   5.882   4.840  0.8409  0.0615 -0.2985
 5293TIP3    H137370   1.608   5.887   4.934  0.6654  0.7057 -0.3626
 5293TIP3    H237371   1.720   5.873   4.833  0.7667 -1.2311 -0.0248
 5294TIP3   OH237372   1.027   4.497   2.856  0.1413  0.1712  0.1284
 5294TIP3    H137373   1.107   4.448   2.871  0.6194  0.8291 -0.2397
 5294TIP3    H237374   0.957   4.433   2.868  0.6851 -0.2585  1.1010
 5295TIP3   OH237375   3.064   4.935  15.191 -0.0700 -0.0214  0.3816
 5295TIP3    H137376   3.067   4.859  15.248  1.1289 -1.3329 -1.3295
 5295TIP3    H237377   3.141   4.987  15.215 -0.2647  0.0906  0.7764
 5296TIP3   OH237378   5.620   5.237  15.712 -0.9542 -0.7745  0.2991
 5296TIP3    H137379   5.669   5.255  15.632  0.5717 -0.4044  1.2964
 5296TIP3    H237380   5.576   5.320  15.733 -0.0414 -0.3949  0.7305
 5297TIP3   OH237381   3.058   2.691   3.505 -0.2533 -0.1812 -0.7736
 5297TIP3    H137382   3.088   2.680   3.595 -1.7328  0.4544 -0.1775
 5297TIP3    H237383   3.098   2.772   3.476 -0.7372  0.2473 -0.2595
 5298TIP3   OH237384   4.792   6.554  12.498 -0.0578  0.2500  0.8260
 5298TIP3    H137385   4.718   6.579  12.553  0.6653  0.8687  1.5422
 5298TIP3    H237386   4.863   6.538  12.560  0.2273 -1.0587  0.2099
 5299TIP3   OH237387   0.846   1.715  11.359 -0.1194  0.0997 -0.4294
 5299TIP3    H137388   0.838   1.688  11.450  1.4242  1.8906  0.2974
 5299TIP3    H237389   0.865   1.634  11.311  0.6602 -0.6373  1.0751
 5300TIP3   OH237390   4.443   2.176   0.327 -0.2259  0.4755 -0.1418
 5300TIP3    H137391   4.435   2.189   0.422 -0.7534 -2.0997  0.2382
 5300TIP3    H237392   4.536   2.162   0.313 -0.1016  1.1825 -0.0879
 5301TIP3   OH237393   4.913   0.467  15.958  1.0493  0.4857 -0.0664
 5301TIP3    H137394   4.837   0.427  15.915  0.3737  2.2876 -0.6632
 5301TIP3    H237395   4.919   0.422  16.043  0.1476 -0.6121 -0.5586
 5302TIP3   OH237396   3.811   6.024   0.247  0.5461 -0.6973  0.0149
 5302TIP3    H137397   3.800   6.043   0.153  1.7250 -0.7577 -0.1518
 5302TIP3    H237398   3.729   6.054   0.287  0.9937  1.6799 -0.6909
 5303TIP3   OH237399   2.159   3.808  14.312  0.7588 -0.1429  0.1530
 5303TIP3    H137400   2.109   3.821  14.232  1.8562 -2.6100 -1.0560
 5303TIP3    H237401   2.230   3.873  14.307 -0.8160  1.6970  0.6675
 5304TIP3   OH237402   2.715   3.069  16.167 -0.1303 -0.0545  0.2543
 5304TIP3    H137403   2.713   2.974  16.182  0.8831 -0.2478 -0.6750
 5304TIP3    H237404   2.796   3.098  16.209 -1.0843  0.6376  1.6746
 5305TIP3   OH237405   3.863   1.285  15.852  0.0424 -0.2449  0.2101
 5305TIP3    H137406   3.837   1.310  15.763 -0.6023 -2.2210 -0.2142
 5305TIP3    H237407   3.950   1.247  15.841  1.1295  1.9105  0.8803
 5306TIP3   OH237408   5.755   0.534  13.738  0.1618  0.1865  0.4995
 5306TIP3    H137409   5.736   0.479  13.662 -2.8615  0.2976  1.0393
 5306TIP3    H237410   5.758   0.473  13.812  1.3373  0.2786  0.5420
 5307TIP3   OH237411   2.455   5.623   3.472 -0.0355  0.4451 -0.3283
 5307TIP3    H137412   2.451   5.566   3.548 -1.2052 -1.0031 -1.4176
 5307TIP3    H237413   2.545   5.654   3.470  0.3448 -0.5049  0.9159
 5308TIP3   OH237414   0.061   4.490   6.468  0.1368 -0.0093  0.2949
 5308TIP3    H137415  -0.001   4.464   6.537 -0.9224  0.6848 -0.3743
 5308TIP3    H237416   0.054   4.421   6.402 -0.0745  0.1665  0.1315
 5309TIP3   OH237417   5.955   4.528  14.553  0.6120 -0.1304 -0.0464
 5309TIP3    H137418   5.899   4.601  14.527 -0.0132 -0.3992  0.5362
 5309TIP3    H237419   5.900   4.451  14.542  0.9201 -0.4119  0.3852
 5310TIP3   OH237420   4.043   1.894   0.157 -0.1099  0.1981  0.1494
 5310TIP3    H137421   4.120   1.941   0.189  0.8247 -0.3094 -1.2244
 5310TIP3    H237422   3.988   1.882   0.234  0.2888  2.2532  0.7959
 5311TIP3   OH237423   3.577   5.107  16.525  0.1914  0.2366 -0.6335
 5311TIP3    H137424   3.665   5.130  16.555 -0.0794 -1.1006  1.3351
 5311TIP3    H237425   3.521   5.122  16.601 -0.9206 -1.0830 -1.1503
 5312TIP3   OH237426   3.594   0.022   0.200  0.2647 -0.8257  0.4619
 5312TIP3    H137427   3.683   0.051   0.182  0.6893 -1.6215  1.1791
 5312TIP3    H237428   3.590  -0.067   0.165 -0.3886 -0.6435  0.0526
 5313TIP3   OH237429   2.990   5.731  13.212 -0.1794  0.0627 -0.0873
 5313TIP3    H137430   2.972   5.637  13.216  1.7268 -0.3485  0.1536
 5313TIP3    H237431   2.997   5.750  13.119 -0.5729 -0.0251 -0.1382
 5314TIP3   OH237432   5.387   4.170   3.311  0.2299  0.3524 -0.3517
 5314TIP3    H137433   5.433   4.236   3.362 -1.2534  0.2092  1.2543
 5314TIP3    H237434   5.452   4.102   3.294  1.0185  0.8726  0.5242
 5315TIP3   OH237435   1.631   5.373  15.191  0.4801 -0.0391 -0.1053
 5315TIP3    H137436   1.698   5.441  15.203 -1.8162  2.1852  0.8911
 5315TIP3    H237437   1.573   5.408  15.124 -0.7017 -1.0939  0.3304
 5316TIP3   OH237438   2.543   3.180  11.565  0.6056  0.5882  0.1952
 5316TIP3    H137439   2.545   3.220  11.478 -2.6025 -0.1803 -0.3594
 5316TIP3    H237440   2.567   3.089  11.551 -1.1480  0.1509 -0.1665
 5317TIP3   OH237441   1.866   4.516   4.801 -0.3353 -0.8009  0.4180
 5317TIP3    H137442   1.878   4.503   4.896 -1.9888 -1.5172  0.5743
 5317TIP3    H237443   1.828   4.433   4.771 -2.1216  0.2546 -0.4065
 5318TIP3   OH237444   4.601   2.381  11.413 -0.0940 -0.3106 -0.0157
 5318TIP3    H137445   4.593   2.325  11.336  2.3989 -1.8379  0.7500
 5318TIP3    H237446   4.581   2.324  11.487 -0.9250  0.7421  0.6046
 5319TIP3   OH237447   6.501   5.236  15.124 -0.6633 -0.0945 -0.1008
 5319TIP3    H137448   6.537   5.264  15.040 -1.7452  0.0756 -0.5199
 5319TIP3    H237449   6.559   5.166  15.153  1.4511  1.7563  0.4181
 5320TIP3   OH237450   0.398   0.717  15.220  0.2559 -0.1664  0.4868
 5320TIP3    H137451   0.325   0.769  15.187  1.2162  0.9953  0.0893
 5320TIP3    H237452   0.371   0.691  15.308 -2.2280 -3.0669 -0.9268
 5321TIP3   OH237453   2.797   5.787  14.850 -0.0975  0.4562  0.0985
 5321TIP3    H137454   2.783   5.879  14.870 -0.1226  1.0529 -2.3684
 5321TIP3    H237455   2.810   5.784  14.756 -1.2274 -2.1895 -0.0874
 5322TIP3   OH237456   6.266   4.180   2.745 -0.3882  0.3779  0.0828
 5322TIP3    H137457   6.286   4.182   2.838  0.7169  1.0049 -0.1600
 5322TIP3    H237458   6.177   4.144   2.741 -0.4959  0.4535  1.3725
 5323TIP3   OH237459   5.733   5.167  16.503  0.3714  0.1135  0.2784
 5323TIP3    H137460   5.800   5.197  16.441 -1.6116 -0.0901 -2.1489
 5323TIP3    H237461   5.732   5.072  16.492  0.6024 -0.0209  1.3337
 5324TIP3   OH237462   2.392   3.315  11.036 -0.0582 -0.3615 -0.2500
 5324TIP3    H137463   2.480   3.350  11.050  0.8069 -3.0065  1.8429
 5324TIP3    H237464   2.406   3.222  11.019 -2.4760 -0.8775  0.2257
 5325TIP3   OH237465   0.275   1.888  14.588 -0.1476 -0.0807  0.5468
 5325TIP3    H137466   0.262   1.981  14.573  0.8654 -0.0003  0.0560
 5325TIP3    H237467   0.197   1.859  14.634 -0.8588  0.8327 -0.0666
 5326TIP3   OH237468   2.244   4.207   0.046  0.2643  0.2367  0.5516
 5326TIP3    H137469   2.203   4.234   0.128 -0.2537 -1.2770  0.8309
 5326TIP3    H237470   2.317   4.151   0.074  1.0275  0.9215 -0.0028
 5327TIP3   OH237471   1.638   5.038   1.818 -0.0051 -0.0048  0.0979
 5327TIP3    H137472   1.582   5.100   1.772  0.5269  0.1418 -0.3524
 5327TIP3    H237473   1.591   4.955   1.812 -0.4245  0.2229  0.1774
 5328TIP3   OH237474   4.642   4.136   3.559  0.8363 -0.2706 -0.0649
 5328TIP3    H137475   4.615   4.218   3.517  0.2557 -1.2798 -1.7082
 5328TIP3    H237476   4.725   4.114   3.518  0.9832 -0.5322  0.3636
 5329TIP3   OH237477   3.273   2.574  12.598  0.3822  0.5840  0.2096
 5329TIP3    H137478   3.282   2.502  12.536 -1.1172 -0.3980  1.0506
 5329TIP3    H237479   3.356   2.577  12.645  1.7370  1.6887 -2.1210
 5330TIP3   OH237480   4.813   4.056  13.093  0.1596  0.2887  0.5053
 5330TIP3    H137481   4.760   3.983  13.063 -2.7233  2.2446  0.4706
 5330TIP3    H237482   4.901   4.038  13.060 -0.8763 -2.1611 -1.1213
 5331TIP3   OH237483   4.960   0.180   0.811 -0.2501 -0.2649  0.3598
 5331TIP3    H137484   4.983   0.252   0.870 -1.2157 -0.6540  1.2413
 5331TIP3    H237485   4.915   0.222   0.738 -0.5067  0.0736  0.7083
 5332TIP3   OH237486   2.235   4.499   3.590  0.2107  0.6634 -0.6991
 5332TIP3    H137487   2.179   4.421   3.590  0.3771  0.4856 -2.9269
 5332TIP3    H237488   2.174   4.572   3.597 -0.1408  0.4033 -0.9882
 5333TIP3   OH237489   6.356   0.330   1.931  0.2004 -0.2615  0.3053
 5333TIP3    H137490   6.313   0.277   1.998 -0.7479  0.6164  0.4164
 5333TIP3    H237491   6.309   0.414   1.933 -1.4409 -0.9120 -2.9561
 5334TIP3   OH237492   2.495   4.275   1.843 -0.3803  0.4637 -0.3513
 5334TIP3    H137493   2.590   4.267   1.855 -0.5883 -0.5758  0.8222
 5334TIP3    H237494   2.461   4.294   1.931 -1.2475  1.1206 -0.8091
 5335TIP3   OH237495   4.226   5.375   6.262 -0.4863 -0.4020 -0.0091
 5335TIP3    H137496   4.315   5.346   6.240 -0.0416 -0.2438  1.4648
 5335TIP3    H237497   4.176   5.294   6.272 -1.3273 -0.4844 -3.7404
 5336TIP3   OH237498   6.642   4.892   5.110 -0.4523 -0.1673  0.4364
 5336TIP3    H137499   6.657   4.978   5.151 -0.6693  0.2996 -0.4537
 5336TIP3    H237500   6.721   4.843   5.130 -0.3565  0.2069  1.0221
 5337TIP3   OH237501   3.708   4.256  16.459 -0.2168 -0.2018  0.3584
 5337TIP3    H137502   3.724   4.262  16.364  2.5299 -3.4309  0.4119
 5337TIP3    H237503   3.787   4.292  16.499 -1.6226  1.7522  1.5794
 5338TIP3   OH237504   2.939   0.505  12.816 -0.2381 -0.2158  0.0227
 5338TIP3    H137505   2.966   0.582  12.867 -2.7193  1.5931 -1.1473
 5338TIP3    H237506   3.019   0.454  12.805  1.6538  2.4064  0.5191
 5339TIP3   OH237507   5.073   5.813   5.593  0.1499 -0.9707 -0.4510
 5339TIP3    H137508   5.017   5.855   5.658 -1.1431 -1.9064 -0.9330
 5339TIP3    H237509   5.120   5.886   5.552 -0.2314 -0.2286  0.3955
 5340TIP3   OH237510   0.327   6.740  12.894 -0.3879 -0.1444  0.1171
 5340TIP3    H137511   0.419   6.752  12.917 -0.7336  0.5233  1.2196
 5340TIP3    H237512   0.329   6.708  12.804  0.9524 -0.8917  0.3801
 5341TIP3   OH237513   0.809   3.278  10.925  0.3125  0.5518 -0.2236
 5341TIP3    H137514   0.841   3.368  10.919  0.6883  0.4416  0.0833
 5341TIP3    H237515   0.838   3.236  10.845 -0.7831  0.9857 -0.8718
 5342TIP3   OH237516   5.668   4.085   0.166 -0.1587  0.5304 -0.1642
 5342TIP3    H137517   5.594   4.084   0.105  0.1444 -1.0460 -0.5525
 5342TIP3    H237518   5.745   4.094   0.109 -0.0036  1.4427  0.1820
 5343TIP3   OH237519   4.674   1.864  10.982  0.0970 -0.2378 -0.0344
 5343TIP3    H137520   4.665   1.866  10.887 -0.8943 -1.4300  0.0095
 5343TIP3    H237521   4.585   1.853  11.015  0.4155  0.2264  1.0462
 5344TIP3   OH237522   3.399   5.716  14.758 -0.5537 -0.4455 -0.1652
 5344TIP3    H137523   3.473   5.773  14.778 -0.3647 -1.2703  1.7389
 5344TIP3    H237524   3.357   5.756  14.682  2.2053 -0.3355 -1.7510
 5345TIP3   OH237525   4.375   1.939   5.716  0.1878 -0.6544  0.1017
 5345TIP3    H137526   4.353   1.858   5.671  0.5504  0.0108 -1.3291
 5345TIP3    H237527   4.293   1.968   5.756 -1.0192  0.4161 -2.9046
 5346TIP3   OH237528   3.133   5.532   2.800 -0.8189  0.0889 -0.0530
 5346TIP3    H137529   3.096   5.468   2.861 -0.2027 -0.5599 -0.3385
 5346TIP3    H237530   3.081   5.523   2.721 -0.0116 -0.9114 -0.4979
 5347TIP3   OH237531   3.027   0.795   4.285  0.4396 -0.3951 -0.4729
 5347TIP3    H137532   3.094   0.730   4.261 -0.1779 -0.3936 -2.3940
 5347TIP3    H237533   3.012   0.844   4.204 -0.8487  0.5650  0.3155
 5348TIP3   OH237534   3.209   2.494   5.394  0.0236 -0.0450  0.8172
 5348TIP3    H137535   3.297   2.487   5.359  0.7574  0.8288  2.3891
 5348TIP3    H237536   3.195   2.588   5.408 -1.2417 -0.1460  0.3893
 5349TIP3   OH237537   5.119   3.118  15.342  0.0936  0.1005  0.6473
 5349TIP3    H137538   5.179   3.192  15.331  0.2381  0.0678  1.1894
 5349TIP3    H237539   5.163   3.061  15.406  0.5231 -1.0210 -0.6038
 5350TIP3   OH237540   5.619   1.574   2.503  0.5379  0.5804 -0.3883
 5350TIP3    H137541   5.632   1.652   2.556  0.7732  0.3940 -0.1667
 5350TIP3    H237542   5.549   1.597   2.442 -0.4296  0.4736  0.6518
 5351TIP3   OH237543   2.892   4.801  15.030  0.4816 -0.5394  0.2634
 5351TIP3    H137544   2.859   4.720  15.069  0.1510  0.1197  1.3831
 5351TIP3    H237545   2.958   4.833  15.092 -0.2716  0.6833  0.4651
 5352TIP3   OH237546   0.877   5.407  15.517 -0.4145  0.2581 -0.2606
 5352TIP3    H137547   0.888   5.313  15.534 -0.1887 -0.2987 -3.0747
 5352TIP3    H237548   0.945   5.428  15.453 -0.6061  2.3167  0.1534
 5353TIP3   OH237549   5.405   4.523  16.488 -0.0834  0.3713 -0.5044
 5353TIP3    H137550   5.455   4.605  16.487 -0.7664  0.7927 -1.4971
 5353TIP3    H237551   5.376   4.511  16.397  1.7511 -2.0631 -0.8988
 5354TIP3   OH237552   5.703   2.240   3.365 -0.1365 -0.0307 -0.5738
 5354TIP3    H137553   5.767   2.180   3.326 -1.6747 -1.6914 -0.6834
 5354TIP3    H237554   5.742   2.267   3.448  0.2887 -1.8338 -0.1505
 5355TIP3   OH237555   1.638   1.568   0.448  0.0954  0.7972  0.2180
 5355TIP3    H137556   1.555   1.612   0.467 -0.2168 -0.0049  0.7877
 5355TIP3    H237557   1.660   1.523   0.529  1.6230  1.8078  0.4024
 5356TIP3   OH237558   4.950   1.869  16.008 -0.5501 -0.3720  0.1306
 5356TIP3    H137559   4.886   1.894  16.074 -1.0477 -1.3190  0.0195
 5356TIP3    H237560   5.000   1.798  16.049  1.4429  1.2909  0.7922
 5357TIP3   OH237561   3.692   3.273   4.717  0.6674 -0.6298 -0.1269
 5357TIP3    H137562   3.772   3.316   4.745  0.9918  0.6384 -2.6668
 5357TIP3    H237563   3.719   3.216   4.645 -0.6596 -0.2071 -1.0126
 5358TIP3   OH237564   6.010   1.330   3.477  0.2821  0.0660 -0.3480
 5358TIP3    H137565   6.005   1.407   3.421  0.3379 -0.2781 -0.8375
 5358TIP3    H237566   6.060   1.358   3.553  0.6383  0.4024 -0.7039
 5359TIP3   OH237567   0.326   6.438   1.677 -0.3232  0.1701  0.0389
 5359TIP3    H137568   0.281   6.476   1.602  0.9317  0.6544 -0.4974
 5359TIP3    H237569   0.259   6.434   1.745 -1.3859  0.0703 -0.9754
 5360TIP3   OH237570   0.428   5.309   5.580  0.3414  0.7494 -0.0628
 5360TIP3    H137571   0.459   5.341   5.665 -0.5933  0.1193  0.5323
 5360TIP3    H237572   0.336   5.286   5.595  0.0773  0.9015 -1.3257
 5361TIP3   OH237573   5.938   2.972  11.305 -0.9151  0.3608  0.2894
 5361TIP3    H137574   5.982   2.919  11.239  0.0150  0.1709  1.0368
 5361TIP3    H237575   5.891   3.039  11.255 -2.9235 -1.6997 -0.7240
 5362TIP3   OH237576   6.165   6.786  12.964  0.5185  0.1667 -0.2067
 5362TIP3    H137577   6.153   6.820  12.876 -0.2371  0.4028 -0.0244
 5362TIP3    H237578   6.250   6.742  12.962  1.0562  1.2100 -0.7117
 5363TIP3   OH237579   6.199   0.995  13.370 -0.1299 -0.4563  0.8072
 5363TIP3    H137580   6.170   1.067  13.426  1.0147  0.8499 -0.2092
 5363TIP3    H237581   6.142   0.922  13.394 -1.8237  0.9701  1.3780
 5364TIP3   OH237582   4.653   2.672  10.670 -0.2030 -0.4349 -0.3376
 5364TIP3    H137583   4.718   2.637  10.610 -0.3955  0.1192 -0.8761
 5364TIP3    H237584   4.599   2.597  10.693  0.0481 -0.7082 -0.6248
 5365TIP3   OH237585   2.000   6.563   3.494  0.0542 -0.1327  0.0843
 5365TIP3    H137586   1.957   6.636   3.450  0.4732  0.8551  1.2505
 5365TIP3    H237587   1.940   6.537   3.564  0.3708 -0.1894  0.3419
 5366TIP3   OH237588   1.626   4.734  12.501  0.1836  0.0368  0.1078
 5366TIP3    H137589   1.551   4.675  12.509  0.9644 -0.9034  0.8381
 5366TIP3    H237590   1.641   4.742  12.407 -0.3771 -0.3624 -0.0207
 5367TIP3   OH237591   2.320   5.127   4.297  0.6238  0.2185 -0.2075
 5367TIP3    H137592   2.388   5.182   4.259  1.8161 -1.7997 -1.1746
 5367TIP3    H237593   2.323   5.047   4.245 -2.4934  0.0154 -0.2586
 5368TIP3   OH237594   2.406   6.044   0.652 -0.4079 -0.0492  0.4466
 5368TIP3    H137595   2.453   6.030   0.570 -0.4635  1.4703  0.1207
 5368TIP3    H237596   2.321   6.078   0.624 -0.1900  1.1033  1.1347
 5369TIP3   OH237597   2.239   3.920   5.511 -0.3482  0.0456  0.0925
 5369TIP3    H137598   2.228   3.955   5.599  0.6200  0.0434  0.2274
 5369TIP3    H237599   2.239   3.997   5.454  1.4174  0.2826  0.3518
 5370TIP3   OH237600   0.605   3.290  11.701  0.4060  0.0430 -0.2185
 5370TIP3    H137601   0.679   3.274  11.644  0.7490 -0.1735  0.2755
 5370TIP3    H237602   0.632   3.254  11.786 -0.8032 -1.3471 -0.3748
 5371TIP3   OH237603   1.364   5.061   5.770  0.4494 -0.1475 -0.1097
 5371TIP3    H137604   1.272   5.085   5.784  0.2052 -1.8212  1.5658
 5371TIP3    H237605   1.361   4.987   5.710  0.6832 -0.3895  0.1759
 5372TIP3   OH237606   2.067   3.200   2.905  0.2611  0.3169  0.2176
 5372TIP3    H137607   2.122   3.279   2.903 -0.2574  0.6797 -0.4969
 5372TIP3    H237608   2.045   3.185   2.813  0.0702 -0.4635  0.3882
 5373TIP3   OH237609   4.797   5.708   3.765  0.4220 -0.0466  0.5836
 5373TIP3    H137610   4.847   5.731   3.686  0.1883 -1.7529 -0.1075
 5373TIP3    H237611   4.775   5.792   3.804  0.8911  0.8478 -0.9653
 5374TIP3   OH237612   3.796   1.367  13.470  0.4582  0.7410 -0.2096
 5374TIP3    H137613   3.852   1.309  13.419 -0.5955  0.5042 -1.1289
 5374TIP3    H237614   3.794   1.328  13.558  0.2427 -0.2934 -0.6630
 5375TIP3   OH237615   1.901   3.847   4.548  0.2416  0.1482 -0.1385
 5375TIP3    H137616   1.854   3.764   4.555 -1.5470  1.2381  1.4467
 5375TIP3    H237617   1.992   3.824   4.567 -0.5160 -1.1709  2.2652
 5376TIP3   OH237618   1.508   6.340   2.758  0.0453 -0.4990  0.4471
 5376TIP3    H137619   1.537   6.256   2.721  0.0940 -0.3795  0.2164
 5376TIP3    H237620   1.422   6.355   2.719 -0.2447 -0.7518  0.9758
 5377TIP3   OH237621   3.086   2.954  11.966 -0.1888  0.1736  0.5338
 5377TIP3    H137622   3.110   2.920  12.052  0.0873 -3.3822 -0.7763
 5377TIP3    H237623   2.995   2.926  11.954 -0.3323  0.9215 -0.2095
 5378TIP3   OH237624   5.002   6.234   3.258 -0.5830  0.2619  0.0446
 5378TIP3    H137625   5.025   6.238   3.165  0.0103  2.7726  0.2296
 5378TIP3    H237626   5.073   6.280   3.303 -1.2217 -0.2686  1.6709
 5379TIP3   OH237627   4.010   4.107   2.320 -0.1326  0.3644  0.1178
 5379TIP3    H137628   3.919   4.121   2.294 -0.1943 -1.2061 -0.6400
 5379TIP3    H237629   4.061   4.157   2.256 -0.4386  1.0370  0.3871
 5380TIP3   OH237630   5.053   2.587  16.185 -0.0774 -0.0396  0.2904
 5380TIP3    H137631   4.972   2.563  16.230  0.4291 -0.6657  0.8960
 5380TIP3    H237632   5.118   2.595  16.255  0.0764  1.8694 -0.0275
 5381TIP3   OH237633   5.432   0.135  15.595 -0.2640 -0.1339  0.0255
 5381TIP3    H137634   5.358   0.193  15.580  1.9483  3.2732  1.2069
 5381TIP3    H237635   5.458   0.104  15.508 -1.5655  0.5740 -0.6266
 5382TIP3   OH237636   0.352   3.149  14.462 -0.1711  0.0692  0.1860
 5382TIP3    H137637   0.298   3.074  14.435 -0.0796 -0.1202  0.5242
 5382TIP3    H237638   0.393   3.179  14.381  1.2800 -1.4238  0.3025
 5383TIP3   OH237639   4.874   4.544   4.236  0.5102  0.1149  0.1013
 5383TIP3    H137640   4.928   4.518   4.311  1.5541  0.5890 -0.4619
 5383TIP3    H237641   4.890   4.475   4.171 -0.5985 -0.4370  0.3842
 5384TIP3   OH237642   3.584   1.259   5.482 -0.0540 -0.2142  0.3168
 5384TIP3    H137643   3.548   1.346   5.501 -0.9206 -0.1013 -1.6751
 5384TIP3    H237644   3.668   1.277   5.441 -0.3733 -0.3037 -0.3786
 5385TIP3   OH237645   4.841   2.413   2.483  0.2214  0.3362  0.3860
 5385TIP3    H137646   4.866   2.321   2.478  1.5061  0.7044 -0.3052
 5385TIP3    H237647   4.921   2.461   2.465 -0.6621  1.5886 -0.3443
 5386TIP3   OH237648   6.699   2.957   5.005  0.1345  0.1418 -0.4541
 5386TIP3    H137649   6.680   2.929   5.094 -1.2300 -0.6815 -0.9785
 5386TIP3    H237650   6.622   3.006   4.977  0.7078  0.7327 -1.0603
 5387TIP3   OH237651   5.999   0.339   0.737 -0.2906 -0.4725 -0.1744
 5387TIP3    H137652   6.052   0.396   0.793 -0.9285 -1.0942  1.1182
 5387TIP3    H237653   5.909   0.356   0.766 -0.6756 -0.5651 -1.2671
 5388TIP3   OH237654   2.378   3.574  13.595 -0.2572 -0.2456  0.0299
 5388TIP3    H137655   2.397   3.652  13.646 -0.3391 -1.6081  2.2711
 5388TIP3    H237656   2.327   3.606  13.521 -0.7306  1.7552  1.1430
 5389TIP3   OH237657   2.305   0.460  15.271  0.2039 -0.2457  0.4677
 5389TIP3    H137658   2.306   0.550  15.238 -1.2503 -0.5104 -0.3803
 5389TIP3    H237659   2.377   0.457  15.333  1.6617  0.9128 -1.0498
 5390TIP3   OH237660   1.667   5.589  14.202 -0.3178 -0.3101 -0.4125
 5390TIP3    H137661   1.706   5.502  14.197  1.8167  0.6644 -2.2315
 5390TIP3    H237662   1.740   5.647  14.223 -1.2831  1.2720 -1.2351
 5391TIP3   OH237663   6.245   6.120   2.182  0.3838 -0.1343  0.2297
 5391TIP3    H137664   6.330   6.165   2.186 -1.0712  2.9530 -0.1970
 5391TIP3    H237665   6.208   6.146   2.097 -0.0906 -3.3315 -0.6499
 5392TIP3   OH237666   1.067   3.342  16.831 -0.1892 -0.3074  0.2767
 5392TIP3    H137667   1.035   3.367  16.744  0.5995  1.0745  0.3491
 5392TIP3    H237668   1.110   3.421  16.864 -0.1214 -0.9384  1.7648
 5393TIP3   OH237669   2.579   4.176   1.293  0.0929  0.1231 -0.3088
 5393TIP3    H137670   2.608   4.108   1.232  0.1165 -0.0943 -0.0568
 5393TIP3    H237671   2.606   4.144   1.379  0.8672  0.8432 -0.2637
 5394TIP3   OH237672   1.488   5.362  16.755  0.9791 -0.1545  0.3540
 5394TIP3    H137673   1.475   5.368  16.850 -1.5579 -0.6283  0.1203
 5394TIP3    H237674   1.500   5.453  16.727  0.4568  0.1243  1.0097
 5395TIP3   OH237675   0.638   1.929  16.343  0.6502 -0.7271  0.1860
 5395TIP3    H137676   0.554   1.967  16.370  0.0331 -0.3677 -2.0097
 5395TIP3    H237677   0.704   1.985  16.384 -0.1158 -1.5679  2.7064
 5396TIP3   OH237678   0.480   2.154  14.312 -0.1934  0.1039  0.0804
 5396TIP3    H137679   0.446   2.235  14.273 -1.4155  0.0712  1.0077
 5396TIP3    H237680   0.405   2.095  14.315  0.1819 -0.3450  1.2514
 5397TIP3   OH237681   0.044   2.191   1.308 -0.0033  1.2738  0.0966
 5397TIP3    H137682  -0.018   2.131   1.351  0.0136  1.5714  0.5427
 5397TIP3    H237683  -0.010   2.241   1.246  0.2624 -0.3868 -1.5798
 5398TIP3   OH237684   2.474   5.030  15.733 -0.3476 -0.1053 -0.3077
 5398TIP3    H137685   2.380   5.013  15.739 -0.2722 -0.1848  0.7917
 5398TIP3    H237686   2.515   4.944  15.740 -0.1588  0.0148  0.0649
 5399TIP3   OH237687   5.037   4.269   3.556  0.0562  0.0750 -0.2446
 5399TIP3    H137688   5.112   4.228   3.599 -0.9493 -2.8841 -1.0479
 5399TIP3    H237689   5.063   4.360   3.543  3.2997 -0.7055 -0.0652
 5400TIP3   OH237690   6.536   3.000   6.291 -0.3425  0.4844 -0.1657
 5400TIP3    H137691   6.502   3.022   6.377 -0.0373  0.6511 -0.0862
 5400TIP3    H237692   6.586   3.077   6.264 -1.5303  0.9666 -1.0691
 5401TIP3   OH237693   3.743   1.916  16.261  0.1074 -0.0530  0.0826
 5401TIP3    H137694   3.777   1.858  16.193  1.0621  1.0158 -0.3946
 5401TIP3    H237695   3.732   1.860  16.338  0.1894 -1.0246 -0.5998
 5402TIP3   OH237696   2.215   1.191   4.073  0.4144  0.1823  0.0876
 5402TIP3    H137697   2.250   1.178   3.985  1.1453 -0.5643  0.4751
 5402TIP3    H237698   2.134   1.240   4.059  0.9030  0.7439 -0.9371
 5403TIP3   OH237699   2.651   3.177   6.044 -0.2660 -0.2041  0.3521
 5403TIP3    H137700   2.620   3.090   6.020  1.0886 -0.3529 -1.0505
 5403TIP3    H237701   2.683   3.214   5.961  1.3468  0.6834  1.3169
 5404TIP3   OH237702   0.267   4.419   3.736 -0.1963  0.1704  0.2518
 5404TIP3    H137703   0.267   4.339   3.788 -0.8012  0.3330  0.5124
 5404TIP3    H237704   0.217   4.481   3.788  0.4895  0.8023  0.1688
 5405TIP3   OH237705   5.935   3.096  16.424  0.4880  0.0490  0.1098
 5405TIP3    H137706   5.847   3.102  16.461  1.3682  2.2251  2.1183
 5405TIP3    H237707   5.986   3.049  16.489  0.5316 -2.8398 -1.8507
 5406TIP3   OH237708   4.915   3.515  13.277  0.2691 -0.0553 -0.5152
 5406TIP3    H137709   5.009   3.515  13.263  0.1585  1.4917 -1.4566
 5406TIP3    H237710   4.878   3.488  13.192 -0.1674  0.8255 -0.6135
 5407TIP3   OH237711   5.838   2.875  15.394  0.1739  0.7022 -0.2002
 5407TIP3    H137712   5.785   2.918  15.326 -1.7880 -0.0951  0.7478
 5407TIP3    H237713   5.848   2.785  15.364 -0.4848  0.4123  0.4353
 5408TIP3   OH237714   4.867   6.488  16.147  0.2317  0.3689 -0.5070
 5408TIP3    H137715   4.955   6.488  16.111 -0.2104  1.5306 -1.7001
 5408TIP3    H237716   4.819   6.424  16.094  0.2846 -0.0506 -0.0512
 5409TIP3   OH237717   3.391   5.368  15.290  0.3205  0.0214  0.7342
 5409TIP3    H137718   3.432   5.290  15.328 -0.1088 -0.2164  0.7224
 5409TIP3    H237719   3.461   5.433  15.286  0.0600  0.5842  3.3690
 5410TIP3   OH237720   4.851   0.910  10.571  0.0961 -0.3161  0.5587
 5410TIP3    H137721   4.807   0.844  10.626 -0.1064  0.8240  1.8257
 5410TIP3    H237722   4.942   0.909  10.600  0.4197 -1.0512 -0.4478
 5411TIP3   OH237723   6.251   0.104   1.748  0.0705  0.0014  0.1559
 5411TIP3    H137724   6.281   0.134   1.662  0.2826 -0.4719  0.0639
 5411TIP3    H237725   6.308   0.151   1.811  0.0981  0.1374  0.0308
 5412TIP3   OH237726   6.006   5.047  12.980  0.2757 -0.2663 -0.2144
 5412TIP3    H137727   6.095   5.013  12.973  0.1912 -0.7318  0.8198
 5412TIP3    H237728   6.018   5.138  13.008  0.4232 -0.8828  1.9105
 5413TIP3   OH237729   0.184   0.740   1.534  0.2966  0.0279 -0.2450
 5413TIP3    H137730   0.231   0.727   1.616  0.6782  0.1447 -0.4448
 5413TIP3    H237731   0.250   0.728   1.466 -0.4365 -2.1770 -0.6536
 5414TIP3   OH237732   2.330   3.935  13.045  0.3529 -0.6342 -0.0366
 5414TIP3    H137733   2.412   3.935  13.094  0.4515 -0.5788 -0.2003
 5414TIP3    H237734   2.357   3.942  12.953  0.1141  0.6910 -0.0167
 5415TIP3   OH237735   1.478   4.071   6.449 -0.1603  0.4239  0.2567
 5415TIP3    H137736   1.489   4.005   6.381  1.4841  1.9944 -1.1175
 5415TIP3    H237737   1.440   4.024   6.523 -0.1999 -1.7591 -1.0739
 5416TIP3   OH237738   5.777   6.052   3.428  0.0878  0.5616  0.0207
 5416TIP3    H137739   5.727   6.098   3.360  0.3121 -0.8081 -1.1230
 5416TIP3    H237740   5.711   6.005   3.478 -0.1429  2.0459  1.1946
 5417TIP3   OH237741   6.744   0.006  12.860  0.2980 -0.7364  0.9604
 5417TIP3    H137742   6.769  -0.027  12.773 -0.5944 -1.2840  0.8990
 5417TIP3    H237743   6.652   0.031  12.850  0.4936  0.2075  1.4683
 5418TIP3   OH237744   5.183   0.852  16.797 -0.4216  0.5080  0.4989
 5418TIP3    H137745   5.277   0.856  16.814 -0.0922  1.6801 -1.3327
 5418TIP3    H237746   5.152   0.779  16.851  1.7861 -0.8916  0.0078
 5419TIP3   OH237747   3.199   1.338  15.670 -0.1439 -0.4694 -0.3131
 5419TIP3    H137748   3.239   1.425  15.673  1.2956 -1.1084 -0.3795
 5419TIP3    H237749   3.134   1.344  15.600 -1.1050  0.9610  0.6462
 5420TIP3   OH237750   3.317   1.340   6.487  0.0729  0.3055 -0.0867
 5420TIP3    H137751   3.398   1.378   6.454  0.1923 -1.4198 -1.9835
 5420TIP3    H237752   3.262   1.415   6.508  1.4226  1.5024 -0.6575
 5421TIP3   OH237753   0.668   2.665   1.517  0.4913 -0.2351 -0.2223
 5421TIP3    H137754   0.610   2.740   1.504 -0.1274 -0.9037 -1.4799
 5421TIP3    H237755   0.737   2.698   1.574 -1.1585  0.5477  1.4198
 5422TIP3   OH237756   4.506   1.726   4.454 -0.0257 -0.0761  0.3809
 5422TIP3    H137757   4.416   1.709   4.426  0.6163 -0.9114 -1.2815
 5422TIP3    H237758   4.519   1.819   4.435  0.2084 -0.4888 -1.7149
 5423TIP3   OH237759   4.397   2.561   4.943 -0.1683 -0.0999  0.0201
 5423TIP3    H137760   4.402   2.469   4.970  0.2021 -0.3365 -0.8240
 5423TIP3    H237761   4.352   2.558   4.859 -0.3737  0.5203  0.1066
 5424TIP3   OH237762   2.740   2.132   3.105 -0.1694 -0.5233  0.3387
 5424TIP3    H137763   2.653   2.171   3.099 -0.8033 -1.6462  1.4295
 5424TIP3    H237764   2.734   2.053   3.050 -0.7560 -2.0110  2.3788
 5425TIP3   OH237765   3.725   0.997   4.954  0.1413 -0.2383  0.5391
 5425TIP3    H137766   3.731   1.092   4.965  1.1301  0.0918 -2.0863
 5425TIP3    H237767   3.813   0.965   4.973  0.6019 -0.2124 -1.3744
 5426TIP3   OH237768   0.727   3.949   1.260 -0.0863 -0.4442 -0.1931
 5426TIP3    H137769   0.812   3.978   1.228  0.0360 -0.5064  0.0713
 5426TIP3    H237770   0.747   3.889   1.332 -0.3583 -0.0955  0.1794
 5427TIP3   OH237771   1.047   2.628  15.894  0.0202 -0.1066 -0.2557
 5427TIP3    H137772   1.112   2.563  15.871 -1.0383 -0.9185 -1.0662
 5427TIP3    H237773   0.963   2.581  15.887 -0.6704  0.9749  0.4704
 5428TIP3   OH237774   4.297   4.571   4.585  0.4167  0.6020 -0.0446
 5428TIP3    H137775   4.321   4.520   4.508 -0.0149 -0.9960  0.8286
 5428TIP3    H237776   4.243   4.642   4.551 -0.4827 -0.5661 -1.1405
 5429TIP3   OH237777   1.447   3.170   1.770  0.7288  0.3345  0.3430
 5429TIP3    H137778   1.473   3.152   1.680  0.6180  1.4714  0.0778
 5429TIP3    H237779   1.521   3.140   1.823  0.1430 -1.8556  0.0274
 5430TIP3   OH237780   6.313   4.392  15.220  0.3079  0.7211  0.2106
 5430TIP3    H137781   6.408   4.391  15.229  0.3537  1.9178  0.0450
 5430TIP3    H237782   6.291   4.484  15.205 -0.6543  0.1632 -2.1894
 5431TIP3   OH237783   4.269   5.508   0.215  0.0126 -0.0291 -0.6501
 5431TIP3    H137784   4.267   5.469   0.303 -2.7137 -1.0569 -1.0635
 5431TIP3    H237785   4.191   5.562   0.211  0.3779  0.4350 -2.2932
 5432TIP3   OH237786   2.693   2.350  11.466 -0.1765 -0.0089  0.0740
 5432TIP3    H137787   2.679   2.261  11.433 -1.1773 -0.3674  1.3794
 5432TIP3    H237788   2.776   2.345  11.513  0.0343 -0.1137 -0.3061
 5433TIP3   OH237789   5.046   0.997   2.482  0.4242 -0.7263 -0.3653
 5433TIP3    H137790   5.128   1.032   2.518  0.3917 -0.0639 -0.9239
 5433TIP3    H237791   5.074   0.928   2.421  0.7450  1.2291 -2.5499
 5434TIP3   OH237792   5.839   6.109   0.834  0.3492 -0.3767 -0.3268
 5434TIP3    H137793   5.769   6.172   0.814  0.0164 -0.6290  0.0376
 5434TIP3    H237794   5.821   6.082   0.924  1.3935  0.1806  0.0694
 5435TIP3   OH237795   1.987   5.527   2.405  0.1645 -0.0400  0.4124
 5435TIP3    H137796   1.941   5.611   2.411 -1.5471 -0.7659 -1.3732
 5435TIP3    H237797   1.918   5.461   2.418  0.8681 -1.1636 -1.2364
 5436TIP3   OH237798   0.678   2.949   2.242 -0.6768 -0.0349 -0.1949
 5436TIP3    H137799   0.643   3.037   2.255  0.7165  0.7285 -1.3404
 5436TIP3    H237800   0.764   2.952   2.283 -0.0467 -0.4208 -1.4541
 5437TIP3   OH237801   4.467   5.427   0.978  0.5457  0.0972  0.2112
 5437TIP3    H137802   4.496   5.493   0.915 -1.2939  1.7957  1.0251
 5437TIP3    H237803   4.390   5.466   1.019  0.1712 -2.0433  1.6847
 5438TIP3   OH237804   0.920   4.113   3.910  0.1885 -0.1311  0.0932
 5438TIP3    H137805   0.872   4.175   3.856  0.1205  0.2547  0.5923
 5438TIP3    H237806   0.859   4.090   3.981  0.7151  0.3202  0.7024
 5439TIP3   OH237807   4.392   5.644   4.513 -0.4924  0.5030 -0.1415
 5439TIP3    H137808   4.455   5.572   4.509  0.3234  1.1343  0.7918
 5439TIP3    H237809   4.348   5.642   4.428  1.1380  0.3621 -1.0315
 5440TIP3   OH237810   5.858   5.503  11.902  0.1830 -0.2355 -0.3226
 5440TIP3    H137811   5.826   5.414  11.884  1.0650 -0.6575  0.1018
 5440TIP3    H237812   5.893   5.498  11.991  1.1367  0.2674 -0.6471
 5441TIP3   OH237813   3.553   0.161  14.998  0.2811  0.4170  0.0456
 5441TIP3    H137814   3.537   0.082  15.050 -1.1985  1.1312  0.7481
 5441TIP3    H237815   3.466   0.187  14.967  1.0333  0.3874 -2.2764
 5442TIP3   OH237816   3.017   0.563  14.094 -0.1146 -0.1116  0.5917
 5442TIP3    H137817   2.947   0.498  14.085 -0.6784  0.3900  1.2461
 5442TIP3    H237818   2.980   0.629  14.152  0.3089  0.9948 -0.3686
 5443TIP3   OH237819   3.427   5.581   2.219  0.2903 -0.2145  0.2268
 5443TIP3    H137820   3.405   5.544   2.134  1.1051  0.2946 -0.2180
 5443TIP3    H237821   3.364   5.652   2.232 -1.3120 -1.7061  1.1062
 5444TIP3   OH237822   4.102   6.392   0.996  0.1278  0.2004 -0.0112
 5444TIP3    H137823   4.163   6.331   0.955 -1.3239 -1.4725  0.1856
 5444TIP3    H237824   4.110   6.375   1.090 -0.9549 -0.3657 -0.0144
 5445TIP3   OH237825   0.813   3.500  16.664  0.3779  0.0006 -0.5714
 5445TIP3    H137826   0.855   3.539  16.740 -1.2207  1.7222 -0.5048
 5445TIP3    H237827   0.741   3.448  16.700 -0.2627  0.6636 -0.8635
 5446TIP3   OH237828   1.147   1.734  11.203 -0.1464  0.2048  0.5220
 5446TIP3    H137829   1.140   1.817  11.157  0.5951 -0.5434 -1.0193
 5446TIP3    H237830   1.062   1.692  11.192  0.0105  0.0529 -0.1507
 5447TIP3   OH237831   3.041   2.508  14.661 -0.2705  0.3102 -0.7905
 5447TIP3    H137832   3.081   2.423  14.640 -0.0079  0.1647  0.2508
 5447TIP3    H237833   3.110   2.557  14.704 -1.4260 -0.2957  1.9229
 5448TIP3   OH237834   4.885   1.796   4.977 -0.6366  1.7560 -0.6428
 5448TIP3    H137835   4.816   1.831   5.034  1.7739  2.4768  2.1011
 5448TIP3    H237836   4.891   1.859   4.905 -2.4740  1.9281 -0.6873
 5449TIP3   OH237837   3.904   2.980   4.608  0.6706 -0.2764 -0.6396
 5449TIP3    H137838   3.859   2.896   4.601 -2.6622  1.1085  1.6640
 5449TIP3    H237839   3.967   2.968   4.679 -0.9760 -0.4550  0.8441
 5450TIP3   OH237840   0.463   2.435   4.369 -0.0884 -0.3939  0.2782
 5450TIP3    H137841   0.394   2.370   4.355 -1.0855  0.4367  1.1687
 5450TIP3    H237842   0.433   2.512   4.319  1.4691 -0.8222 -1.4351
 5451TIP3   OH237843   0.961   4.842   4.702  0.3290  0.1286  0.0089
 5451TIP3    H137844   0.920   4.818   4.786 -0.2479  1.0961  0.0221
 5451TIP3    H237845   0.888   4.875   4.649  0.1602 -2.9038 -1.8864
 5452TIP3   OH237846   0.546   3.711   5.687  0.6059 -0.0377  0.0526
 5452TIP3    H137847   0.589   3.651   5.749  1.5870  0.4896 -0.0884
 5452TIP3    H237848   0.588   3.795   5.703 -0.4962  0.5418 -0.0089
 5453TIP3   OH237849   4.061   6.275   1.251  0.0665 -0.0264  0.3055
 5453TIP3    H137850   4.090   6.332   1.323  0.7808  1.4575 -1.1071
 5453TIP3    H237851   3.967   6.291   1.243  0.1620  0.5370  0.2869
 5454TIP3   OH237852   1.332   2.597  14.536 -0.4645  0.1938 -0.0833
 5454TIP3    H137853   1.338   2.680  14.488 -0.0831 -0.5315 -1.3324
 5454TIP3    H237854   1.402   2.543  14.498  0.1438 -0.2564  1.6174
 5455TIP3   OH237855   1.673   1.281   0.234  0.1978  0.6902  0.0095
 5455TIP3    H137856   1.728   1.244   0.303  0.5184  2.6441  0.8889
 5455TIP3    H237857   1.729   1.279   0.156  0.4887  0.0742  0.2299
 5456TIP3   OH237858   3.904   0.570  12.131 -0.2694  0.1150  0.6457
 5456TIP3    H137859   3.822   0.617  12.146 -0.4724 -0.8348  2.8424
 5456TIP3    H237860   3.932   0.542  12.218  2.2076  0.0758 -0.0968
 5457TIP3   OH237861   3.764   3.237   0.729  0.0692 -0.2661  0.3833
 5457TIP3    H137862   3.825   3.203   0.794 -0.1221  0.4027  0.9296
 5457TIP3    H237863   3.778   3.332   0.730  0.4309 -0.2907 -0.9362
 5458TIP3   OH237864   0.802   6.384   5.164  0.3325  0.1308 -0.1217
 5458TIP3    H137865   0.754   6.400   5.082 -0.2627  0.3223  0.2590
 5458TIP3    H237866   0.743   6.416   5.233  1.3378  1.1206  0.3041
 5459TIP3   OH237867   4.743   2.554  14.343 -0.5025  0.0574  0.9599
 5459TIP3    H137868   4.802   2.557  14.418  0.2278 -1.5085  0.4941
 5459TIP3    H237869   4.729   2.460  14.328  0.2511  0.2810 -1.5099
 5460TIP3   OH237870   5.500   6.084  13.357  0.5610  0.2484  0.0451
 5460TIP3    H137871   5.542   6.149  13.414  2.6680 -2.0168  1.2680
 5460TIP3    H237872   5.422   6.057  13.405  0.5808  0.6807  0.3306
 5461TIP3   OH237873   0.164   2.322  10.984  0.4027 -0.3737 -0.4906
 5461TIP3    H137874   0.227   2.278  10.928  1.4981 -0.4933  0.7825
 5461TIP3    H237875   0.130   2.254  11.041 -0.0387 -0.0904 -0.4015
 5462TIP3   OH237876   5.618   3.215   2.868  0.2896 -0.6795 -0.0278
 5462TIP3    H137877   5.631   3.249   2.780  0.5775 -1.3280 -0.2423
 5462TIP3    H237878   5.697   3.240   2.916 -0.0212 -0.0155  0.1577
 5463TIP3   OH237879   3.714   4.345  11.406 -0.3883 -0.1035 -0.0062
 5463TIP3    H137880   3.715   4.342  11.311 -0.7370  1.1565 -0.0606
 5463TIP3    H237881   3.657   4.418  11.428  1.6506  1.2759  1.1083
 5464TIP3   OH237882   4.291   4.771   0.444 -0.1679  0.0473 -0.4970
 5464TIP3    H137883   4.256   4.743   0.359  0.1997  0.1555 -0.6846
 5464TIP3    H237884   4.384   4.786   0.428  0.0966 -0.8326  0.1425
 5465TIP3   OH237885   0.512   5.635  13.446 -0.6369  0.5161  0.0231
 5465TIP3    H137886   0.480   5.548  13.471  0.7359  0.6026  2.3722
 5465TIP3    H237887   0.588   5.618  13.390  1.0633  0.0799  2.3530
 5466TIP3   OH237888   4.925   2.053  11.664  0.3067 -0.3690  0.4641
 5466TIP3    H137889   4.850   2.030  11.609  1.0600  0.6340 -1.0539
 5466TIP3    H237890   4.992   2.084  11.603  1.1467  0.9321  1.9515
 5467TIP3   OH237891   3.202   2.149  11.124 -0.1041  0.0961 -0.2907
 5467TIP3    H137892   3.205   2.193  11.039  0.3717 -1.4571 -1.1141
 5467TIP3    H237893   3.132   2.085  11.116 -0.9109  0.7710  0.9539
 5468TIP3   OH237894   0.965   4.364  15.541  0.3701 -0.5872  0.3399
 5468TIP3    H137895   1.022   4.411  15.480  0.9922  0.7947  1.8950
 5468TIP3    H237896   0.945   4.429  15.609 -4.1583 -0.5247 -0.7195
 5469TIP3   OH237897   1.097   5.090  11.611 -0.4320  0.0121  0.2284
 5469TIP3    H137898   1.030   5.155  11.586 -1.8800 -1.9546 -1.3873
 5469TIP3    H237899   1.149   5.078  11.531 -0.2593 -0.8629  0.4620
 5470TIP3   OH237900   3.733   6.202   4.630 -0.3231 -0.0418 -0.2788
 5470TIP3    H137901   3.799   6.261   4.666 -0.4639  0.0091 -0.1015
 5470TIP3    H237902   3.776   6.160   4.556  0.2247 -0.6915  0.3925
 5471TIP3   OH237903   0.363   4.534   5.020 -0.2976 -0.3218 -0.1114
 5471TIP3    H137904   0.402   4.595   5.083 -1.2775  0.9493 -0.6918
 5471TIP3    H237905   0.435   4.479   4.991  0.3594 -0.3112  1.4110
 5472TIP3   OH237906   1.396   1.306   4.500  0.4003  0.1894  0.4071
 5472TIP3    H137907   1.483   1.329   4.467  0.5091  0.0216  0.5777
 5472TIP3    H237908   1.374   1.378   4.559  0.4252  0.2294  0.3685
 5473TIP3   OH237909   0.152   1.548  12.774  0.4085 -0.4730  0.3011
 5473TIP3    H137910   0.160   1.548  12.678  1.8027  0.7996  0.3796
 5473TIP3    H237911   0.191   1.631  12.801  2.2396 -1.8278  2.1444
 5474TIP3   OH237912   5.959   1.010   4.069  0.4586 -0.3253 -0.4556
 5474TIP3    H137913   5.874   0.992   4.030  0.7305 -0.2399 -1.0942
 5474TIP3    H237914   5.943   1.005   4.163 -0.4304  0.5437 -0.5482
 5475TIP3   OH237915   6.621   1.610  17.285  0.2919 -0.5041  0.0058
 5475TIP3    H137916   6.612   1.661  17.365 -0.1742 -2.9825  1.6345
 5475TIP3    H237917   6.712   1.581  17.285  0.4000 -0.1844 -0.5969
 5476TIP3   OH237918   5.057   4.481   4.430  0.0904  0.4449 -0.0623
 5476TIP3    H137919   5.023   4.500   4.518 -2.6104  0.1240 -0.9724
 5476TIP3    H237920   5.107   4.559   4.407 -0.9966  1.4743  0.9085
 5477TIP3   OH237921   5.567   2.205   1.071  0.0885 -0.4618 -0.0251
 5477TIP3    H137922   5.489   2.223   1.018  0.0016 -1.0230 -0.0952
 5477TIP3    H237923   5.608   2.129   1.028  0.7547 -0.0796 -0.0753
 5478TIP3   OH237924   0.923   2.971  15.228 -0.3561  0.1332  0.1575
 5478TIP3    H137925   0.889   2.940  15.144 -0.9013  0.4115  0.2728
 5478TIP3    H237926   0.891   3.061  15.236  0.2751  0.3474  0.3463
 5479TIP3   OH237927   3.965   2.592   1.948  0.1957 -0.3109 -0.2187
 5479TIP3    H137928   3.876   2.627   1.958 -0.3686 -0.7827 -2.8392
 5479TIP3    H237929   3.966   2.514   2.004 -1.3008 -0.7039 -0.6855
 5480TIP3   OH237930   5.194   1.405  12.209  0.6119 -0.1588  0.1680
 5480TIP3    H137931   5.283   1.372  12.207  0.3921 -0.9264  1.7873
 5480TIP3    H237932   5.139   1.328  12.223 -0.0947  0.5662  1.6348
 5481TIP3   OH237933   5.596   4.071  11.533  0.2431  0.1424  0.0271
 5481TIP3    H137934   5.527   4.129  11.502 -0.0187  0.0608  0.4502
 5481TIP3    H237935   5.550   3.995  11.567  0.4820  0.4772  1.1458
 5482TIP3   OH237936   3.875   6.772  13.254 -0.0142 -0.3337 -0.5038
 5482TIP3    H137937   3.814   6.710  13.213  0.2492 -1.1859  0.3288
 5482TIP3    H237938   3.832   6.796  13.337  0.7278 -0.9058  0.0677
 5483TIP3   OH237939   6.470   0.215  11.250 -0.0565 -0.3636 -0.5998
 5483TIP3    H137940   6.530   0.141  11.260  0.1665 -0.3867 -1.9311
 5483TIP3    H237941   6.517   0.278  11.196 -0.1364  0.9086  0.7357
 5484TIP3   OH237942   4.297   1.955   0.247 -0.1138 -0.3455 -0.3806
 5484TIP3    H137943   4.342   2.035   0.272 -0.2106 -0.2777 -0.4255
 5484TIP3    H237944   4.357   1.913   0.185 -0.3245 -0.0129 -0.8233
 5485TIP3   OH237945   0.867   3.195   2.790  0.7445 -0.1076 -0.1432
 5485TIP3    H137946   0.859   3.121   2.851  2.0082 -0.4021 -0.3113
 5485TIP3    H237947   0.778   3.229   2.782  0.1383 -1.5777 -0.0185
 5486TIP3   OH237948   4.882   1.357  16.798  0.9560  0.0866  0.1015
 5486TIP3    H137949   4.900   1.371  16.705 -0.6694  2.6169  0.0450
 5486TIP3    H237950   4.811   1.293  16.800  1.1411 -0.1356 -0.3722
 5487TIP3   OH237951   5.279   0.277  13.214 -0.0218  0.2686  0.0579
 5487TIP3    H137952   5.235   0.310  13.292 -1.2873  0.6589 -0.7827
 5487TIP3    H237953   5.305   0.188  13.236 -2.2577 -0.3961  0.2447
 5488TIP3   OH237954   5.857   6.150   5.191 -0.4989  0.2714  0.2599
 5488TIP3    H137955   5.926   6.109   5.139 -1.0483 -0.9348  0.4504
 5488TIP3    H237956   5.792   6.178   5.127 -1.0151 -0.9057  0.2415
 5489TIP3   OH237957   2.648   1.126  15.045  0.5970 -1.3777  0.1560
 5489TIP3    H137958   2.678   1.040  15.015  0.3761 -0.8915 -1.5744
 5489TIP3    H237959   2.557   1.113  15.069  0.4328 -1.5502 -0.5366
 5490TIP3   OH237960   2.266   2.658   2.017  0.2601 -0.4388 -0.3430
 5490TIP3    H137961   2.248   2.629   2.107  1.0226 -1.2522 -0.4447
 5490TIP3    H237962   2.250   2.581   1.963  2.1092 -0.6558 -0.6419
 5491TIP3   OH237963   5.032   1.678   0.663  0.3755 -0.2578  0.2036
 5491TIP3    H137964   4.990   1.763   0.653  1.0382 -0.0618 -1.3685
 5491TIP3    H237965   5.041   1.646   0.573  0.5121 -1.8065  0.7438
 5492TIP3   OH237966   3.726   3.518   5.552  0.1693 -0.0279 -0.5911
 5492TIP3    H137967   3.755   3.448   5.609 -2.5496  0.4987  1.6465
 5492TIP3    H237968   3.806   3.552   5.513  2.0151 -1.4136  1.7446
 5493TIP3   OH237969   5.530   5.172   0.408 -0.0141 -0.7556 -0.0624
 5493TIP3    H137970   5.471   5.147   0.479 -0.3726 -1.1441 -0.4842
 5493TIP3    H237971   5.604   5.113   0.416  0.0920 -0.5898  0.1777
 5494TIP3   OH237972   4.363   2.000  13.356  0.2132  0.2198  0.1759
 5494TIP3    H137973   4.417   1.922  13.369 -0.3782  0.0448  1.7463
 5494TIP3    H237974   4.274   1.972  13.374 -0.2377  0.8840 -0.8841
 5495TIP3   OH237975   0.984   1.161  10.983 -0.1491  0.8400  0.4221
 5495TIP3    H137976   0.924   1.233  11.002  0.0393  0.9300  0.6788
 5495TIP3    H237977   1.021   1.184  10.898 -1.0970  0.3630 -0.1362
 5496TIP3   OH237978   2.017   0.162   3.545 -0.1965 -0.0757  0.3325
 5496TIP3    H137979   1.981   0.192   3.462 -2.4756 -1.2787  0.7883
 5496TIP3    H237980   1.984   0.225   3.609 -0.9163 -0.7586  0.6590
 5497TIP3   OH237981   2.923   6.209  12.011  0.5291  0.2268  0.1227
 5497TIP3    H137982   2.848   6.267  12.005  0.4312  0.2648  1.3784
 5497TIP3    H237983   2.998   6.263  11.985  0.0454 -0.1212 -2.2562
 5498TIP3   OH237984   6.045   3.355  14.252 -0.2830 -0.2735 -0.6231
 5498TIP3    H137985   6.130   3.345  14.209  0.4164  0.4611  0.5230
 5498TIP3    H237986   5.984   3.375  14.181  1.0096  1.9247 -1.2287
 5499TIP3   OH237987   6.673   3.147  15.950  0.4151 -0.1351 -0.0247
 5499TIP3    H137988   6.704   3.225  15.996  0.2042 -0.7334  1.1650
 5499TIP3    H237989   6.608   3.108  16.009 -0.6686 -0.3414 -1.3093
 5500TIP3   OH237990   4.516   4.296   2.212 -0.4054  0.1195 -0.4818
 5500TIP3    H137991   4.516   4.310   2.307 -1.5588 -0.1893 -0.4230
 5500TIP3    H237992   4.481   4.378   2.176  0.3543  0.3690 -0.6768
 5501TIP3   OH237993   0.272   5.550   2.193  0.4103  0.5746 -0.4200
 5501TIP3    H137994   0.286   5.458   2.172 -0.1502  0.7220 -1.5333
 5501TIP3    H237995   0.180   5.566   2.173  0.1683  1.0700  1.0081
 5502TIP3   OH237996   6.321   2.912   1.763  0.3377  0.5146 -0.0844
 5502TIP3    H137997   6.407   2.882   1.735 -0.0521  1.5390 -2.6691
 5502TIP3    H237998   6.338   2.990   1.815  0.9998  0.2992  0.0234
 5503TIP3   OH237999   4.529   0.992   1.692 -0.0113 -0.8002  0.2703
 5503TIP3    H138000   4.607   1.043   1.671  0.8936 -1.5877  1.5419
 5503TIP3    H238001   4.462   1.058   1.712 -0.0279 -0.0941 -1.8378
 5504TIP3   OH238002   5.255   6.016  14.284 -0.1231 -0.1767  0.8762
 5504TIP3    H138003   5.293   5.992  14.199 -0.4228 -0.4219  0.8093
 5504TIP3    H238004   5.161   6.013  14.269 -0.1947  1.6349  0.6939
 5505TIP3   OH238005   1.174   2.138   2.348 -0.7142 -0.5373  0.3772
 5505TIP3    H138006   1.178   2.042   2.348 -1.0797 -0.7012  3.9992
 5505TIP3    H238007   1.265   2.165   2.338 -0.4159 -1.3237  0.8707
 5506TIP3   OH238008   4.305   3.347  11.943 -0.5253  0.3796  0.8592
 5506TIP3    H138009   4.226   3.382  11.901 -0.0233  1.0365  0.4448
 5506TIP3    H238010   4.376   3.403  11.911  0.1770 -0.4710  0.8828
 5507TIP3   OH238011   4.546   5.501   2.085  0.2731 -0.0849 -0.5939
 5507TIP3    H138012   4.487   5.457   2.023  1.6335 -1.1890 -1.1520
 5507TIP3    H238013   4.491   5.567   2.127 -1.1127 -0.4219 -1.7884
 5508TIP3   OH238014   0.102   4.329   5.971 -0.2470 -0.4588  0.2107
 5508TIP3    H138015   0.115   4.261   5.904  1.0228 -1.1285  1.1011
 5508TIP3    H238016   0.011   4.355   5.961 -0.2626 -0.9846 -1.3633
 5509TIP3   OH238017   3.276   4.361  15.506  0.8703  0.0795  0.5528
 5509TIP3    H138018   3.350   4.309  15.477  0.0368 -1.7720  1.5920
 5509TIP3    H238019   3.256   4.419  15.433  2.0438 -0.8226 -0.5060
 5510TIP3   OH238020   2.520   3.922  12.790  0.1410  0.1284 -0.0230
 5510TIP3    H138021   2.509   4.014  12.766 -0.6829  0.0692  0.0968
 5510TIP3    H238022   2.458   3.875  12.735  0.3754 -0.3298  0.0986
 5511TIP3   OH238023   2.870   4.044   3.829  0.1691  0.5011 -0.3285
 5511TIP3    H138024   2.897   4.027   3.738 -0.4229  0.1213 -0.4397
 5511TIP3    H238025   2.953   4.052   3.877  0.4987 -0.5093 -0.6866
 5512TIP3   OH238026   2.324   5.152  11.734 -0.3226 -0.0699 -0.0680
 5512TIP3    H138027   2.320   5.241  11.697 -2.7462 -0.1429 -0.1296
 5512TIP3    H238028   2.285   5.097  11.667 -1.5931 -0.7204  1.1578
 5513TIP3   OH238029   2.647   4.469   2.874  0.5219  0.1327 -0.2227
 5513TIP3    H138030   2.688   4.486   2.789  1.6874 -0.8621  0.0993
 5513TIP3    H238031   2.691   4.389   2.906 -2.3170 -1.5727 -0.2284
 5514TIP3   OH238032   2.907   4.378  15.421  0.4071 -0.1515  0.3841
 5514TIP3    H138033   2.824   4.413  15.454 -0.3085 -0.5237 -0.9519
 5514TIP3    H238034   2.968   4.388  15.494 -0.2942  1.9653  0.7449
 5515TIP3   OH238035   2.710   1.750   5.436  0.2439 -0.3738 -0.1901
 5515TIP3    H138036   2.751   1.687   5.376  0.2797 -0.5096 -0.0227
 5515TIP3    H238037   2.779   1.771   5.499 -0.3832 -1.7466  1.0012
 5516TIP3   OH238038   5.256   2.453   1.687 -0.0505  0.3894 -0.4855
 5516TIP3    H138039   5.262   2.422   1.777  0.6806  2.5906  0.2734
 5516TIP3    H238040   5.296   2.383   1.636  1.0242 -0.1932  1.0801
 5517TIP3   OH238041   1.244   2.333  16.870 -1.0328 -0.2594  0.2142
 5517TIP3    H138042   1.284   2.320  16.955 -0.4678 -0.0708 -0.0220
 5517TIP3    H238043   1.298   2.283  16.809  0.0607  1.6086 -0.4219
 5518TIP3   OH238044   4.244   1.695  16.577 -0.1465  0.3661  0.3373
 5518TIP3    H138045   4.177   1.746  16.532 -1.0372 -0.3508  0.8165
 5518TIP3    H238046   4.208   1.606  16.581  1.6237 -0.4739 -1.0330
 5519TIP3   OH238047   4.025   6.305   0.611 -0.0625  0.5346  0.2854
 5519TIP3    H138048   4.035   6.236   0.546  1.2503  2.0811 -1.2385
 5519TIP3    H238049   3.959   6.364   0.574 -1.5003 -0.0299  1.7724
 5520TIP3   OH238050   2.315   5.125  14.406 -0.1388  0.0360  0.4747
 5520TIP3    H138051   2.258   5.183  14.456 -0.9481  1.3565 -1.8435
 5520TIP3    H238052   2.255   5.074  14.351  0.8255  0.8545 -1.4107
 5521TIP3   OH238053   2.937   4.364  11.964  0.1575  0.5088 -0.5438
 5521TIP3    H138054   2.940   4.432  11.897  0.2522  2.8368  1.6574
 5521TIP3    H238055   3.021   4.372  12.009 -0.9749  1.0073  1.6115
 5522TIP3   OH238056   5.715   0.433   2.549 -0.9768  0.5341 -0.0950
 5522TIP3    H138057   5.780   0.443   2.620 -0.1950 -1.7992 -0.3963
 5522TIP3    H238058   5.733   0.507   2.491  0.8962  0.4249  0.2547
 5523TIP3   OH238059   2.092   0.370   2.286  0.1664 -0.0370 -0.0869
 5523TIP3    H138060   2.159   0.397   2.349  1.6418 -0.3299 -1.4641
 5523TIP3    H238061   2.016   0.346   2.340  0.9686  0.8422  1.4872
 5524TIP3   OH238062   0.937   0.456   1.514  0.2088  0.4422 -0.2370
 5524TIP3    H138063   0.994   0.404   1.457  1.4597  1.7673 -0.2570
 5524TIP3    H238064   0.901   0.393   1.576  2.5858 -0.3414  0.4673
 5525TIP3   OH238065   6.036   2.362   1.909  0.7258  0.5400 -0.3746
 5525TIP3    H138066   6.013   2.359   1.816  3.0110  0.8792 -1.0071
 5525TIP3    H238067   6.086   2.282   1.924 -1.1393 -0.4266  1.0654
 5526TIP3   OH238068   3.489   6.314  16.743  0.0780  0.4739  0.1628
 5526TIP3    H138069   3.422   6.383  16.744 -2.3746 -1.7467 -0.2071
 5526TIP3    H238070   3.502   6.291  16.835  0.3766  0.9191  0.2358
 5527TIP3   OH238071   0.685   4.667   6.199  0.1147 -0.0790 -0.1389
 5527TIP3    H138072   0.764   4.665   6.253  0.1844 -2.6727 -0.2145
 5527TIP3    H238073   0.685   4.755   6.161  3.0987 -0.0493 -0.3360
 5528TIP3   OH238074   6.773   5.060   2.892  0.1011  0.5078  0.2560
 5528TIP3    H138075   6.813   4.978   2.921  0.5458  0.9674  0.9827
 5528TIP3    H238076   6.705   5.033   2.831  1.1797 -0.3219 -0.6230
 5529TIP3   OH238077   6.793   0.701  12.325  0.2825  0.3444  0.3724
 5529TIP3    H138078   6.784   0.789  12.288 -1.0260  1.0872  2.2959
 5529TIP3    H238079   6.713   0.689  12.376  0.0553 -2.3241 -0.4823
 5530TIP3   OH238080   0.625   2.447  13.774 -0.0710 -0.1185  0.3549
 5530TIP3    H138081   0.603   2.400  13.693 -0.3893  0.1086  0.3074
 5530TIP3    H238082   0.563   2.414  13.839 -0.7831  0.7537  0.1442
 5531TIP3   OH238083   0.882   5.818   1.319 -0.6108  0.4925 -0.3737
 5531TIP3    H138084   0.909   5.900   1.361 -0.7534  0.3574 -0.0182
 5531TIP3    H238085   0.962   5.765   1.319 -1.1859 -0.5057  2.0769
 5532TIP3   OH238086   1.976   4.242  11.462 -0.2003  0.2151  0.5917
 5532TIP3    H138087   1.946   4.213  11.548  0.6331  1.6884  1.4245
 5532TIP3    H238088   1.913   4.206  11.400 -0.5137 -1.3148  1.7654
 5533TIP3   OH238089   6.727   3.117  16.727  0.4387 -0.4763 -0.2017
 5533TIP3    H138090   6.715   3.075  16.812  0.1890 -0.8047 -0.3908
 5533TIP3    H238091   6.744   3.043  16.667 -0.2193 -0.3282 -0.5805
 5534TIP3   OH238092   1.576   1.798   3.742  0.2461 -0.1108 -0.3994
 5534TIP3    H138093   1.659   1.822   3.700  2.0416 -2.5352  1.4978
 5534TIP3    H238094   1.574   1.850   3.822 -0.6751  0.7690 -0.9710
 5535TIP3   OH238095   2.301   1.110  12.374  0.1204  0.2032 -0.1127
 5535TIP3    H138096   2.332   1.072  12.292 -0.5751 -0.9472  0.1235
 5535TIP3    H238097   2.302   1.037  12.436 -1.8602  0.3763  0.2102
 5536TIP3   OH238098   4.814   1.495  13.477 -0.0419 -0.4971 -0.0850
 5536TIP3    H138099   4.897   1.456  13.448 -0.1024  0.0018 -0.9810
 5536TIP3    H238100   4.812   1.480  13.571  0.7090 -1.1873 -0.1655
 5537TIP3   OH238101   2.678   3.915   2.091 -0.0675  0.4086 -0.1408
 5537TIP3    H138102   2.600   3.921   2.146  0.7025  2.8951  0.8502
 5537TIP3    H238103   2.748   3.891   2.152  0.1118 -1.1073 -0.8951
 5538TIP3   OH238104   1.676   3.391   2.638  0.2723  0.2813  0.3314
 5538TIP3    H138105   1.736   3.367   2.708  1.0292  0.3622 -0.2779
 5538TIP3    H238106   1.723   3.370   2.557  1.2392  4.2569 -0.3181
 5539TIP3   OH238107   5.111   1.415  14.993 -0.1130  0.4187 -0.0634
 5539TIP3    H138108   5.183   1.424  14.930 -0.3414 -0.9158 -0.5415
 5539TIP3    H238109   5.155   1.403  15.078  0.1928  1.5525 -0.0311
 5540TIP3   OH238110   0.861   2.044  13.892  0.0018 -0.5203  0.0076
 5540TIP3    H138111   0.885   2.076  13.806 -0.2931  0.7673  0.3829
 5540TIP3    H238112   0.771   2.076  13.906 -0.5098 -1.9426  0.2107
 5541TIP3   OH238113   0.483   2.718   0.674 -0.0829  0.0280  0.4645
 5541TIP3    H138114   0.435   2.798   0.652  1.1070  1.2006  1.8856
 5541TIP3    H238115   0.526   2.693   0.593 -2.2394 -0.4783 -0.5774
 5542TIP3   OH238116   1.185   4.047   4.762 -0.3855 -0.2577  1.0686
 5542TIP3    H138117   1.112   4.030   4.703 -1.2920 -0.5049  2.2200
 5542TIP3    H238118   1.233   3.964   4.767  0.8936  0.3138 -0.8580
 5543TIP3   OH238119   2.579   1.554   4.298  0.1292 -0.3817  0.2313
 5543TIP3    H138120   2.637   1.515   4.363 -2.9306 -0.8805  2.8877
 5543TIP3    H238121   2.534   1.479   4.258 -1.3474  0.0684  0.9643
 5544TIP3   OH238122   2.027   5.192  11.496 -0.3397 -0.1525 -0.2596
 5544TIP3    H138123   2.099   5.170  11.437  0.6760 -1.6023  1.4228
 5544TIP3    H238124   1.961   5.231  11.439  1.6995  1.1898 -1.9037
 5545TIP3   OH238125   2.334   2.035  12.503  0.0090 -0.2052 -0.2798
 5545TIP3    H138126   2.429   2.032  12.487 -0.0489  0.7964 -0.9143
 5545TIP3    H238127   2.310   1.944  12.522  1.1516 -0.4160  0.2375
 5546TIP3   OH238128   4.775   1.469  15.274 -0.7368  0.1494 -0.1637
 5546TIP3    H138129   4.800   1.533  15.208 -2.2719  0.7117 -0.2241
 5546TIP3    H238130   4.856   1.420  15.291  0.8937  3.0250  0.9812
 5547TIP3   OH238131   6.325   2.182  14.584  0.5024 -0.1358  0.0726
 5547TIP3    H138132   6.290   2.109  14.533 -0.3996 -0.0379  0.5476
 5547TIP3    H238133   6.392   2.143  14.640  4.0053  0.1939 -3.4426
 5548TIP3   OH238134   2.655   5.398  11.745 -0.4319  0.4568 -0.4116
 5548TIP3    H138135   2.570   5.441  11.758 -0.3244  0.5873 -0.1280
 5548TIP3    H238136   2.704   5.458  11.690 -1.2666 -0.5781 -2.4066
 5549TIP3   OH238137   5.956   3.314   0.347 -0.1585 -0.8939 -0.3057
 5549TIP3    H138138   5.862   3.308   0.367 -0.1236 -0.0227  0.1505
 5549TIP3    H238139   5.968   3.404   0.318  0.6194 -0.8924  0.0186
 5550TIP3   OH238140   5.971   3.842   5.005 -0.5621  0.0659  0.2174
 5550TIP3    H138141   5.902   3.890   4.960 -0.7641  0.8740  1.3517
 5550TIP3    H238142   6.001   3.777   4.941 -2.2411 -0.1881 -0.3435
 5551TIP3   OH238143   6.513   1.266   3.440 -0.1456 -0.0519  0.0323
 5551TIP3    H138144   6.511   1.173   3.415 -0.9984 -0.3400  1.0946
 5551TIP3    H238145   6.466   1.310   3.369  1.2063 -0.2737 -1.0291
 5552TIP3   OH238146   4.261   2.785  13.676  0.7892  0.0025  0.2012
 5552TIP3    H138147   4.237   2.741  13.757  2.8540 -1.4175  0.1048
 5552TIP3    H238148   4.179   2.788  13.625  0.0785 -1.5811  1.1910
 5553TIP3   OH238149   1.648   6.580   2.704  0.5441 -0.7465 -0.0841
 5553TIP3    H138150   1.607   6.599   2.620 -0.7569 -1.6087  0.3235
 5553TIP3    H238151   1.594   6.511   2.742 -0.0777  0.9071  2.2987
 5554TIP3   OH238152   3.726   0.737  17.122 -0.1649  0.5373 -0.0957
 5554TIP3    H138153   3.637   0.767  17.101  0.3136  1.9749 -0.1151
 5554TIP3    H238154   3.735   0.750  17.216 -1.2048 -3.0303  0.6728
 5555TIP3   OH238155   3.603   4.196   0.349 -0.2552  0.0475  0.2642
 5555TIP3    H138156   3.615   4.206   0.443  0.2594  1.2232  0.0836
 5555TIP3    H238157   3.658   4.121   0.326 -0.9789 -0.7262  1.0037
 5556TIP3   OH238158   1.875   4.158  13.814  0.2236 -0.3639  0.2568
 5556TIP3    H138159   1.917   4.127  13.733 -1.6204  2.4682 -2.0047
 5556TIP3    H238160   1.840   4.079  13.855 -0.7319 -1.7720 -2.9539
 5557TIP3   OH238161   3.907   4.379   4.866 -0.2746  0.9245 -0.5559
 5557TIP3    H138162   3.879   4.337   4.785  0.1348 -0.5789  0.0470
 5557TIP3    H238163   3.986   4.331   4.893 -0.4131  1.3655  0.7413
 5558TIP3   OH238164   0.246   1.147  11.768  0.0699  0.5669 -0.7397
 5558TIP3    H138165   0.326   1.135  11.818 -0.2838  1.1800 -0.0084
 5558TIP3    H238166   0.237   1.242  11.761  0.5192  0.5257 -2.6448
 5559TIP3   OH238167   6.209   6.709   2.787  0.1219  0.0477  0.3520
 5559TIP3    H138168   6.189   6.619   2.762 -0.4599 -0.8088  3.4764
 5559TIP3    H238169   6.298   6.705   2.823  1.1303  1.3135 -1.8151
 5560TIP3   OH238170   0.184   0.204  16.394  0.1236 -0.2009  0.1021
 5560TIP3    H138171   0.257   0.150  16.424 -0.2767 -0.7459  0.1004
 5560TIP3    H238172   0.112   0.143  16.381 -0.3866  0.3534  0.2559
 5561TIP3   OH238173   5.706   1.976   4.379 -0.7112  0.3052  0.4562
 5561TIP3    H138174   5.746   2.043   4.435 -2.4464  2.1264 -0.3640
 5561TIP3    H238175   5.625   1.954   4.423  0.2520 -2.0575  1.2011
 5562TIP3   OH238176   2.203   1.965   3.201  0.2361 -0.2196 -0.3853
 5562TIP3    H138177   2.255   1.996   3.127  0.0211 -0.4792 -0.6496
 5562TIP3    H238178   2.131   1.916   3.160  0.7045 -1.2685  0.0368
 5563TIP3   OH238179   4.801   5.969  15.598 -0.0509  0.0841  0.2302
 5563TIP3    H138180   4.757   5.893  15.559  0.9855 -0.7943  0.7234
 5563TIP3    H238181   4.753   5.983  15.680  0.9626 -1.3123  1.1096
 5564TIP3   OH238182   5.862   4.181  15.668 -0.3339  0.4158 -0.1915
 5564TIP3    H138183   5.934   4.172  15.730 -1.3521  3.5872  1.6889
 5564TIP3    H238184   5.783   4.178  15.722 -1.4246  0.4697 -1.7100
 5565TIP3   OH238185   3.200   3.213  11.918 -0.5412  0.0954 -0.1807
 5565TIP3    H138186   3.175   3.288  11.970 -1.4434 -0.7096  0.5795
 5565TIP3    H238187   3.123   3.156  11.919 -0.8037  0.2575 -2.8220
 5566TIP3   OH238188   2.020   5.691   5.279 -0.4252 -0.7362  0.8809
 5566TIP3    H138189   2.046   5.660   5.366  0.1313 -1.6092  0.4114
 5566TIP3    H238190   2.083   5.652   5.219 -0.3221  0.4948  0.1494
 5567TIP3   OH238191   5.937   4.929  13.347 -0.2554 -0.2597 -0.0096
 5567TIP3    H138192   5.994   4.944  13.422 -0.9922  0.7537  0.3739
 5567TIP3    H238193   5.917   5.016  13.314  2.1371 -0.7112 -3.0664
 5568TIP3   OH238194   2.812   0.437  13.373 -0.7740 -0.2222 -0.0647
 5568TIP3    H138195   2.775   0.519  13.406 -0.6369 -0.3307  0.3749
 5568TIP3    H238196   2.827   0.452  13.280 -1.6061 -0.0603 -0.1781
 5569TIP3   OH238197   1.770   6.735  16.360  0.2470 -0.3582 -0.4659
 5569TIP3    H138198   1.810   6.738  16.273 -0.3738 -1.5221 -0.8206
 5569TIP3    H238199   1.841   6.755  16.420  0.3536  1.9797 -1.2899
 5570TIP3   OH238200   4.944   2.399   1.338 -0.0723 -0.1342 -0.6052
 5570TIP3    H138201   4.909   2.462   1.275  1.4547  1.4373  0.0156
 5570TIP3    H238202   4.941   2.446   1.422 -1.8456 -2.0848  0.5144
 5571TIP3   OH238203   2.988   0.562   2.067 -0.4376 -0.6516  0.5257
 5571TIP3    H138204   3.058   0.498   2.077 -0.9822 -1.1592  1.1194
 5571TIP3    H238205   3.027   0.632   2.014  0.9560 -0.2685  1.9827
 5572TIP3   OH238206   0.114   0.101  17.174 -0.0979  0.2107 -0.3733
 5572TIP3    H138207   0.079   0.188  17.155 -0.9046  1.0449  3.8731
 5572TIP3    H238208   0.036   0.045  17.183  0.2689 -0.3543 -0.6625
 5573TIP3   OH238209   1.593   1.020  17.043  0.2007  0.5394  0.0613
 5573TIP3    H138210   1.656   1.047  16.976 -0.8334  1.2576 -0.6477
 5573TIP3    H238211   1.550   0.944  17.004  1.3468 -0.6348  0.9995
 5574TIP3   OH238212   4.319   1.176   0.229  0.1990 -0.5088 -0.0828
 5574TIP3    H138213   4.396   1.121   0.242 -1.3003 -2.5768  0.6335
 5574TIP3    H238214   4.262   1.155   0.303 -0.6996  1.6756 -0.0633
 5575TIP3   OH238215   2.190   2.162   5.291  0.1177 -0.4918  0.0135
 5575TIP3    H138216   2.106   2.144   5.249  0.2839  0.3201 -0.6832
 5575TIP3    H238217   2.167   2.210   5.371 -0.0253  2.3233 -1.5568
 5576TIP3   OH238218   6.053   3.156  16.151 -0.3575  0.1774  0.4001
 5576TIP3    H138219   5.984   3.171  16.086  0.0563  1.1567  0.1853
 5576TIP3    H238220   6.006   3.154  16.234 -0.7805 -0.2274  0.1599
 5577TIP3   OH238221   6.217   3.934  11.907  0.1891 -0.2314 -0.5421
 5577TIP3    H138222   6.137   3.886  11.883  0.1629  0.6639 -2.4976
 5577TIP3    H238223   6.186   4.019  11.937  0.3846  0.4870 -2.2540
 5578TIP3   OH238224   0.491   2.206  16.213 -0.1076  0.0760 -0.3893
 5578TIP3    H138225   0.532   2.289  16.190 -0.4955 -0.0323 -1.5536
 5578TIP3    H238226   0.531   2.143  16.153  0.8969 -0.7786  1.1247
 5579TIP3   OH238227   6.750   5.294  15.902 -0.5415 -0.4273  0.1998
 5579TIP3    H138228   6.830   5.321  15.947 -2.0211  0.5548  2.4656
 5579TIP3    H238229   6.765   5.203  15.879  1.4079 -0.1185  0.0533
 5580TIP3   OH238230   3.637   2.413   2.176  0.0586  0.3057 -0.4674
 5580TIP3    H138231   3.567   2.381   2.234 -0.9567  0.1745 -1.7313
 5580TIP3    H238232   3.705   2.346   2.183 -0.1961  0.1094  0.2971
 5581TIP3   OH238233   0.456   2.243   1.773 -0.1566  0.3050 -0.7623
 5581TIP3    H138234   0.405   2.187   1.715  2.0776 -0.0172 -2.5680
 5581TIP3    H238235   0.501   2.304   1.715  1.8852  0.2193  0.6135
 5582TIP3   OH238236   0.333   3.499  11.877  0.2555 -0.0552 -0.3493
 5582TIP3    H138237   0.317   3.574  11.935  0.2899 -1.0587  0.9889
 5582TIP3    H238238   0.401   3.531  11.817  1.9213  0.3197  1.6041
 5583TIP3   OH238239   6.202   5.227  16.172  0.0261  0.0417 -0.2753
 5583TIP3    H138240   6.280   5.226  16.227 -1.1133  2.0126  1.5634
 5583TIP3    H238241   6.135   5.184  16.225 -0.7566  0.7115 -0.6917
 5584TIP3   OH238242   5.593   0.249  11.994  0.3053 -0.1628  0.0904
 5584TIP3    H138243   5.620   0.184  12.058  0.0821 -0.0317  0.3173
 5584TIP3    H238244   5.514   0.289  12.030 -0.6878 -1.1172 -0.9422
 5585TIP3   OH238245   5.178   0.047  11.125 -0.2375  0.1505  0.4800
 5585TIP3    H138246   5.130  -0.002  11.191 -0.9123 -0.1369 -0.1995
 5585TIP3    H238247   5.268   0.014  11.130 -0.3116  0.0419  1.1525
 5586TIP3   OH238248   3.962   1.042   5.939 -0.2481 -0.6783  0.0870
 5586TIP3    H138249   3.895   1.093   5.984 -0.2692 -1.0434  0.4771
 5586TIP3    H238250   4.021   1.108   5.902 -0.7020 -0.3591 -0.0781
 5587TIP3   OH238251   1.862   4.431   3.376  0.1738 -0.1302 -0.8057
 5587TIP3    H138252   1.795   4.403   3.438  0.7531 -0.1196 -0.1579
 5587TIP3    H238253   1.942   4.387   3.405  0.3350 -0.5825 -1.8953
 5588TIP3   OH238254   4.453   2.323   6.484 -0.0979 -0.9631 -0.3772
 5588TIP3    H138255   4.499   2.399   6.520 -0.8500 -1.2495  1.3218
 5588TIP3    H238256   4.443   2.264   6.559 -0.1352 -2.4465 -1.5092
 5589TIP3   OH238257   0.012   5.048   3.714  0.3896 -0.2334 -0.2287
 5589TIP3    H138258   0.073   5.059   3.787  0.1120 -0.8433  0.1004
 5589TIP3    H238259   0.064   5.069   3.636  1.1718 -1.2306  0.0009
 5590TIP3   OH238260   2.780   6.176   0.013  0.4999  0.1694  0.0283
 5590TIP3    H138261   2.789   6.092   0.058  0.7385 -1.1765 -2.3461
 5590TIP3    H238262   2.843   6.172  -0.059 -1.4903  1.1394 -1.8996
 5591TIP3   OH238263   2.125   4.870   0.039 -0.1837  0.0840 -0.1321
 5591TIP3    H138264   2.095   4.818  -0.036 -0.5848 -0.3319  0.3078
 5591TIP3    H238265   2.145   4.955   0.002 -1.0278  0.0892 -0.6079
 5592TIP3   OH238266   0.029   3.406   2.983 -0.3970 -0.2254  0.0962
 5592TIP3    H138267   0.065   3.410   3.072 -0.6540  1.2966  0.1637
 5592TIP3    H238268  -0.011   3.320   2.977  0.4412 -0.7155  1.1314
 5593TIP3   OH238269   5.839   5.191   0.686  0.4015 -0.1132  0.3844
 5593TIP3    H138270   5.851   5.101   0.654  1.1073  0.8097 -2.1644
 5593TIP3    H238271   5.926   5.218   0.714 -0.0782 -0.6551  2.6154
 5594TIP3   OH238272   5.236   3.355   1.255 -0.5230 -0.1029 -0.1202
 5594TIP3    H138273   5.182   3.324   1.329  0.6292 -1.1461  0.3082
 5594TIP3    H238274   5.325   3.355   1.289 -0.0750  0.2351 -1.2620
 5595TIP3   OH238275   2.060   1.813  16.892 -0.0622 -0.0617  0.4368
 5595TIP3    H138276   2.031   1.744  16.832 -0.8542  0.0457  0.6937
 5595TIP3    H238277   2.117   1.868  16.839  1.2980 -1.3803  0.4313
 5596TIP3   OH238278   5.841   1.982  15.488  0.2180 -0.0185 -0.1099
 5596TIP3    H138279   5.748   1.966  15.504  0.5327 -0.3817  1.4726
 5596TIP3    H238280   5.850   2.077  15.491 -0.4847  0.2247 -2.7741
 5597TIP3   OH238281   5.040   3.589   3.215 -0.0926  0.2995  0.8671
 5597TIP3    H138282   5.064   3.497   3.225  1.6052  0.8313  2.1690
 5597TIP3    H238283   5.104   3.624   3.154 -0.8484  0.6152  0.2259
 5598TIP3   OH238284   5.149   1.560  11.900 -0.8067 -0.2846 -0.6042
 5598TIP3    H138285   5.183   1.507  11.972 -1.5530  0.2094  0.1299
 5598TIP3    H238286   5.195   1.643  11.908  0.5478 -0.8481 -1.9061
 5599TIP3   OH238287   1.845   0.151  14.938  0.4365  0.0370 -0.6048
 5599TIP3    H138288   1.913   0.218  14.950  0.2338  0.2898 -0.8624
 5599TIP3    H238289   1.781   0.192  14.880 -0.0411 -0.1223 -0.1993
 5600TIP3   OH238290   5.540   3.552   5.783 -0.5181 -0.6312  0.5819
 5600TIP3    H138291   5.565   3.642   5.805 -1.8670  0.0052 -0.3420
 5600TIP3    H238292   5.542   3.506   5.866  1.5199 -0.1090  0.8753
 5601TIP3   OH238293   1.810   0.891   1.068 -0.0373  0.6360 -0.0946
 5601TIP3    H138294   1.724   0.928   1.085 -0.8699 -0.6457 -1.2720
 5601TIP3    H238295   1.834   0.847   1.150 -0.6151  0.7720  0.1508
 5602TIP3   OH238296   6.013   1.208  16.383  0.3221  0.1161  0.0735
 5602TIP3    H138297   5.983   1.163  16.304  1.2160 -0.1670 -0.1191
 5602TIP3    H238298   6.046   1.137  16.439  4.1947  0.6244 -1.2810
 5603TIP3   OH238299   2.460   0.348  11.787 -0.3138  0.0009  0.1483
 5603TIP3    H138300   2.538   0.336  11.733  0.3989 -0.5906  1.2632
 5603TIP3    H238301   2.491   0.338  11.877 -1.4465  1.0371  0.6924
 5604TIP3   OH238302   6.582   0.442  14.273 -0.0289  0.0137 -0.5643
 5604TIP3    H138303   6.640   0.518  14.274 -1.3244  1.1002 -2.0451
 5604TIP3    H238304   6.636   0.370  14.242  0.9510  0.5927 -0.2272
 5605TIP3   OH238305   6.576   6.244   1.694 -0.6648 -0.0650 -0.4352
 5605TIP3    H138306   6.503   6.191   1.724 -1.1070  1.4463  1.3948
 5605TIP3    H238307   6.545   6.287   1.615 -2.1673  1.2428  0.7966
 5606TIP3   OH238308   6.157   3.198  12.428  0.6388 -0.3712  0.1448
 5606TIP3    H138309   6.127   3.289  12.430 -0.4978 -0.6213 -2.2321
 5606TIP3    H238310   6.237   3.200  12.376 -1.4795 -1.0955 -3.5193
 5607TIP3   OH238311   0.047   0.625  15.367 -0.3411  0.9272  0.8727
 5607TIP3    H138312   0.125   0.643  15.419  1.0467 -3.1318  0.5791
 5607TIP3    H238313   0.081   0.601  15.280 -2.0038  0.3719  0.3211
 5608TIP3   OH238314   0.931   2.011   2.551 -0.2726 -0.1847  0.2740
 5608TIP3    H138315   0.840   1.987   2.539 -0.1978 -1.0742  1.2988
 5608TIP3    H238316   0.962   2.034   2.463 -1.6320  0.7745  0.0107
 5609TIP3   OH238317   3.987   4.007   4.133 -0.7056 -0.3791 -0.6163
 5609TIP3    H138318   3.924   4.041   4.069 -0.7190 -0.2486 -0.5335
 5609TIP3    H238319   3.986   3.912   4.119 -2.3502 -0.5940  0.6746
 5610TIP3   OH238320   0.598   0.165   2.540 -0.3746  0.1547  0.4525
 5610TIP3    H138321   0.678   0.192   2.585 -0.4853  0.8688  0.2227
 5610TIP3    H238322   0.531   0.166   2.608 -0.4917  0.9978  0.3355
 5611TIP3   OH238323   6.687   2.944   0.050  0.2404  0.0510 -0.2136
 5611TIP3    H138324   6.668   3.014   0.113 -1.2849 -0.2220 -0.3332
 5611TIP3    H238325   6.757   2.980  -0.004 -0.3542  1.4270 -0.1290
 5612TIP3   OH238326   4.231   2.344   1.376 -0.4578  0.0643  0.0405
 5612TIP3    H138327   4.182   2.402   1.318 -1.5192 -0.5866  0.2662
 5612TIP3    H238328   4.249   2.397   1.454 -0.0354  0.5727 -0.3927
 5613TIP3   OH238329   2.386   0.499   0.903  0.2014 -0.2716  0.2952
 5613TIP3    H138330   2.442   0.555   0.957  0.3066 -1.1026  1.0767
 5613TIP3    H238331   2.339   0.444   0.966 -1.8462  0.6841 -0.3151
 5614TIP3   OH238332   5.235   2.747  13.119  0.1947 -0.0424  0.3669
 5614TIP3    H138333   5.277   2.661  13.123  1.0626  0.3866  0.6755
 5614TIP3    H238334   5.307   2.808  13.099 -0.5608  0.4992 -0.8023
 5615TIP3   OH238335   2.250   4.462  11.700  0.9737  0.2467  0.0038
 5615TIP3    H138336   2.283   4.409  11.773  0.2530 -2.1701 -1.3080
 5615TIP3    H238337   2.275   4.413  11.622 -0.5584  1.4067 -1.2705
 5616TIP3   OH238338   0.754   4.874  10.679  0.0681  0.2825 -0.0993
 5616TIP3    H138339   0.820   4.844  10.616  1.2012  0.3348  1.0117
 5616TIP3    H238340   0.716   4.794  10.714  1.4535  0.1472  1.1820
 5617TIP3   OH238341   5.911   0.608   1.094  0.0925  0.0216 -0.2534
 5617TIP3    H138342   5.958   0.675   1.142  1.3960 -2.1132  1.6110
 5617TIP3    H238343   5.839   0.656   1.051  1.1441  2.6136  0.6705
 5618TIP3   OH238344   6.115   6.390  10.898 -0.6511 -0.1097 -0.3048
 5618TIP3    H138345   6.102   6.480  10.869 -1.5776  0.1704  0.9109
 5618TIP3    H238346   6.174   6.352  10.833  3.1343  2.5391  1.2377
 5619TIP3   OH238347   2.045   0.690  15.420 -0.1183 -0.0631  0.0423
 5619TIP3    H138348   1.960   0.649  15.407 -0.4037  0.8305 -0.9967
 5619TIP3    H238349   2.109   0.621  15.401 -0.5860 -0.0260 -1.8182
 5620TIP3   OH238350   5.095   0.490  13.788  0.1015  0.2365 -0.5791
 5620TIP3    H138351   5.040   0.501  13.711  1.2584  1.2454 -1.3077
 5620TIP3    H238352   5.120   0.398  13.787  2.5341  0.7561 -3.2316
 5621TIP3   OH238353   1.414   3.656  16.119  1.1816  0.3585  0.2154
 5621TIP3    H138354   1.421   3.590  16.050  2.3565  1.0572 -0.3833
 5621TIP3    H238355   1.504   3.689  16.128  0.4201  2.8847 -0.5475
 5622TIP3   OH238356   3.940   6.692   0.369  0.2572  0.1382  0.1720
 5622TIP3    H138357   3.946   6.716   0.276  1.8794  0.2916  0.2995
 5622TIP3    H238358   4.019   6.641   0.386 -0.1953 -0.1847  1.3927
 5623TIP3   OH238359   2.833   3.133   2.732  0.8053  0.2558  1.1213
 5623TIP3    H138360   2.810   3.222   2.760 -0.4323  0.2306  0.2774
 5623TIP3    H238361   2.755   3.102   2.686  1.4049 -1.0928  0.9772
 5624TIP3   OH238362   2.212   0.757  12.102 -0.1882 -0.1058  0.1905
 5624TIP3    H138363   2.243   0.743  12.012 -1.2764 -0.2851 -0.1658
 5624TIP3    H238364   2.233   0.675  12.147 -0.7293 -0.4862 -0.2270
 5625TIP3   OH238365   1.108   2.309   5.850 -0.2866  0.1049 -0.0108
 5625TIP3    H138366   1.151   2.310   5.936 -0.3531  0.0735  0.0229
 5625TIP3    H238367   1.074   2.398   5.840 -0.7240 -0.0313  0.2220
 5626TIP3   OH238368   6.435   4.116  15.030 -0.6011  0.3591 -0.0106
 5626TIP3    H138369   6.467   4.203  15.010 -0.1601  0.6757  1.8787
 5626TIP3    H238370   6.508   4.072  15.074 -1.1039 -0.6554 -0.1394
 5627TIP3   OH238371   3.510   2.379  12.901 -0.0352 -0.2350 -0.0388
 5627TIP3    H138372   3.519   2.425  12.818 -0.4154  1.6296  0.9201
 5627TIP3    H238373   3.418   2.388  12.925 -0.3214 -2.2056 -0.1767
 5628TIP3   OH238374   3.528   2.180  16.958  0.2949 -0.4289  0.0168
 5628TIP3    H138375   3.455   2.129  16.924  0.8771 -3.5763  2.8971
 5628TIP3    H238376   3.491   2.224  17.035  0.7943  0.2784 -0.1414
 5629TIP3   OH238377   1.430   4.946  14.769 -1.0785  0.2236  0.0100
 5629TIP3    H138378   1.383   4.928  14.850  1.0140  1.1280  1.5134
 5629TIP3    H238379   1.434   5.042  14.764  1.0592  0.2125  0.3035
 5630TIP3   OH238380   2.561   2.726  16.319 -0.1257  0.5769  0.4204
 5630TIP3    H138381   2.629   2.774  16.365 -1.4616  0.5128  2.5911
 5630TIP3    H238382   2.502   2.696  16.388 -1.0302 -1.4907 -1.1636
 5631TIP3   OH238383   3.611   0.009   1.407 -0.4970  0.4671  0.9905
 5631TIP3    H138384   3.636  -0.064   1.463  0.5516  0.5583  0.6531
 5631TIP3    H238385   3.532   0.044   1.448  0.1704  0.4514  2.3538
 5632TIP3   OH238386   4.089   5.907   3.894 -0.5800  0.6741  0.7088
 5632TIP3    H138387   4.019   5.953   3.847  0.0318  0.0333 -0.8906
 5632TIP3    H238388   4.158   5.896   3.829 -0.3032 -1.6339  1.3011
 5633TIP3   OH238389   1.838   6.159   0.194  0.2049 -0.2109 -0.8384
 5633TIP3    H138390   1.894   6.213   0.140  1.7210 -1.1149 -0.2321
 5633TIP3    H238391   1.763   6.137   0.138  0.5122  0.9101 -1.7080
 5634TIP3   OH238392   5.023   6.714  17.260  0.9325  0.0937 -0.2895
 5634TIP3    H138393   5.117   6.731  17.259  0.6876  1.5190 -0.5033
 5634TIP3    H238394   4.983   6.801  17.263 -0.3808 -0.4986 -0.1937
 5635TIP3   OH238395   4.179   3.073   5.140 -0.7879  0.9560  0.5915
 5635TIP3    H138396   4.223   3.156   5.162 -1.5415  1.7384 -0.7723
 5635TIP3    H238397   4.116   3.061   5.211  0.5156  0.5931  1.7609
 5636TIP3   OH238398   2.478   6.490  11.133  0.4580 -0.3568  0.2444
 5636TIP3    H138399   2.538   6.532  11.070 -2.6286 -0.5650 -3.1809
 5636TIP3    H238400   2.492   6.396  11.121 -0.6291 -0.4127 -0.7684
 5637TIP3   OH238401   6.318   3.585   3.813  0.5477  0.3817  0.2186
 5637TIP3    H138402   6.297   3.663   3.761  1.8123  0.4450 -0.2141
 5637TIP3    H238403   6.412   3.590   3.828  0.9447 -1.8774 -1.1700
 5638TIP3   OH238404   6.722   1.362   5.801 -0.9397 -0.5889  0.6572
 5638TIP3    H138405   6.698   1.441   5.751 -0.5553  0.0468  1.4478
 5638TIP3    H238406   6.818   1.368   5.809 -0.9402 -0.9936  0.9697
 5639TIP3   OH238407   0.192   1.306   4.039 -0.1391 -0.2421 -0.3593
 5639TIP3    H138408   0.162   1.386   4.082 -1.4939 -0.2741 -1.1950
 5639TIP3    H238409   0.281   1.326   4.011  0.7535 -0.1534  2.2204
 5640TIP3   OH238410   0.052   4.111  14.858  0.0712 -0.4278  0.5868
 5640TIP3    H138411   0.027   4.036  14.913  1.8218 -0.3469  1.5612
 5640TIP3    H238412   0.123   4.077  14.802  0.0855  0.1988  0.2156
 5641TIP3   OH238413   0.505   0.182  16.118  0.3292 -0.5964  0.2112
 5641TIP3    H138414   0.511   0.133  16.201  0.6496 -1.0163 -0.0551
 5641TIP3    H238415   0.508   0.274  16.145  1.2032 -0.7338  0.6217
 5642TIP3   OH238416   6.496   6.521   3.543 -0.1777  0.5230 -0.4635
 5642TIP3    H138417   6.458   6.439   3.573  1.6053 -0.9514 -1.9911
 5642TIP3    H238418   6.579   6.527   3.591 -1.0419  2.3952  0.9438
 5643TIP3   OH238419   1.688   0.171   3.087 -0.1467 -0.4959 -0.1210
 5643TIP3    H138420   1.607   0.218   3.067 -0.0314  0.0489  0.6603
 5643TIP3    H238421   1.664   0.079   3.083 -0.3743 -0.3996 -1.7003
 5644TIP3   OH238422   0.127   1.142   1.952 -0.3979 -0.0986 -0.2394
 5644TIP3    H138423   0.210   1.095   1.944  1.3086  2.4741  1.2293
 5644TIP3    H238424   0.107   1.140   2.046 -1.4354  0.2825 -0.4363
 5645TIP3   OH238425   3.577   6.506   1.730  0.3672  0.3478 -0.0105
 5645TIP3    H138426   3.528   6.585   1.753 -1.2772 -0.1107 -1.6049
 5645TIP3    H238427   3.527   6.435   1.771  1.7008  0.0810  1.2176
 5646TIP3   OH238428   4.679   6.240   2.479  0.2518 -0.3397 -0.3089
 5646TIP3    H138429   4.643   6.268   2.564 -0.1174  1.0265 -0.8810
 5646TIP3    H238430   4.635   6.158   2.460 -1.4066  0.4814 -0.2220
 5647TIP3   OH238431   0.716   1.485   5.695  0.3152  0.3768  0.0971
 5647TIP3    H138432   0.697   1.569   5.654 -1.0190  0.9403  1.7056
 5647TIP3    H238433   0.756   1.508   5.779 -0.9431 -0.5130  0.9802
 5648TIP3   OH238434   5.980   6.771   5.094  0.9053  0.4142 -0.0626
 5648TIP3    H138435   6.062   6.813   5.120  0.2916  1.1914  0.6738
 5648TIP3    H238436   5.921   6.844   5.074 -0.6851  0.0313  2.7604
 5649TIP3   OH238437   3.187   1.084  13.173 -0.4352  0.1318 -0.1824
 5649TIP3    H138438   3.267   1.105  13.222  0.1270 -1.4128 -0.3762
 5649TIP3    H238439   3.120   1.075  13.241 -0.1466  0.1284  0.1075
 5650TIP3   OH238440   3.691   1.327   4.011  0.0738  0.0170 -0.2800
 5650TIP3    H138441   3.750   1.262   3.974  0.3468 -0.3058  0.6866
 5650TIP3    H238442   3.701   1.317   4.106 -1.7694 -0.2683 -0.0837
 5651TIP3   OH238443   2.341   4.945  13.762 -0.3563 -0.5490 -0.0480
 5651TIP3    H138444   2.424   4.989  13.743 -0.5357  0.3743  1.2183
 5651TIP3    H238445   2.341   4.869  13.704  1.2871 -0.4588 -0.2221
 5652TIP3   OH238446   0.427   2.138  12.774  0.2086 -0.1951 -0.0390
 5652TIP3    H138447   0.331   2.146  12.771  0.2758  1.1002  0.2873
 5652TIP3    H238448   0.443   2.062  12.829 -0.6298 -1.3352 -1.3210
 5653TIP3   OH238449   2.230   3.053  17.305 -0.5544 -0.1321  0.0642
 5653TIP3    H138450   2.224   3.140  17.265 -1.0588 -0.4689 -0.6103
 5653TIP3    H238451   2.315   3.054  17.350  0.0980  0.2297 -1.1167
 5654TIP3   OH238452   3.430   1.208  16.357  0.6249  0.0229 -0.1472
 5654TIP3    H138453   3.394   1.125  16.389  3.6063 -1.8785 -1.2977
 5654TIP3    H238454   3.357   1.250  16.311 -1.2941 -1.3332  1.5149
 5655TIP3   OH238455   3.721   2.752  12.416  0.2589 -0.2046  0.3347
 5655TIP3    H138456   3.734   2.844  12.439  2.0258 -0.6581  1.3297
 5655TIP3    H238457   3.643   2.752  12.361 -0.9512  1.6510  1.9019
 5656TIP3   OH238458   5.884   2.703  15.109  0.1957  0.4511 -0.2261
 5656TIP3    H138459   5.902   2.654  15.029 -1.5062  0.1769 -0.4761
 5656TIP3    H238460   5.899   2.795  15.085  0.9885  0.2681 -0.4589
 5657TIP3   OH238461   3.538   5.873  11.287 -0.2897 -0.0453  0.2608
 5657TIP3    H138462   3.625   5.867  11.249 -0.0570 -1.0406  0.9203
 5657TIP3    H238463   3.488   5.802  11.247 -0.5770  0.0539  0.4340
 5658TIP3   OH238464   4.373   6.783  10.658 -0.2751  0.6541 -0.3676
 5658TIP3    H138465   4.324   6.812  10.735  0.2776  0.5419  0.0338
 5658TIP3    H238466   4.436   6.853  10.641  0.6842 -0.0274  0.2614
 5659TIP3   OH238467   5.061   1.743   1.395  0.1838  0.0918 -0.1041
 5659TIP3    H138468   5.121   1.691   1.341 -0.1718 -0.4249 -0.0012
 5659TIP3    H238469   5.117   1.777   1.466  0.3736 -0.3257 -0.0491
 5660TIP3   OH238470   0.826   6.409  15.454 -0.0266  0.5176 -0.2025
 5660TIP3    H138471   0.853   6.435  15.366  2.0992 -1.6894 -0.3481
 5660TIP3    H238472   0.743   6.364  15.442 -1.4465  3.0732 -0.5314
 5661TIP3   OH238473   2.358   3.819  13.731 -0.0839  0.5235  0.0328
 5661TIP3    H138474   2.275   3.771  13.742  0.2341 -1.2249 -3.6209
 5661TIP3    H238475   2.332   3.905  13.697 -0.4522  0.4683  0.1710
 5662TIP3   OH238476   1.679   1.134  11.140 -0.1541  0.6520 -0.3374
 5662TIP3    H138477   1.718   1.221  11.152 -0.8726  1.2177 -1.9037
 5662TIP3    H238478   1.644   1.135  11.051  2.2787 -2.2407 -1.4980
 5663TIP3   OH238479   4.214   1.259  17.111 -0.1884  0.1068 -0.3078
 5663TIP3    H138480   4.126   1.279  17.142 -0.3070  1.0002 -1.1611
 5663TIP3    H238481   4.220   1.302  17.025  1.6329  1.4676  0.4247
 5664TIP3   OH238482   5.322   4.880  17.095 -0.3003  0.3714  0.3936
 5664TIP3    H138483   5.401   4.887  17.040 -1.0372 -0.1427 -0.7577
 5664TIP3    H238484   5.293   4.970  17.106  1.5124  0.7914  2.4875
 5665TIP3   OH238485   3.565   0.894  15.595  0.7399  0.1141  0.8430
 5665TIP3    H138486   3.590   0.934  15.511 -1.3566 -2.4057 -1.1227
 5665TIP3    H238487   3.648   0.861  15.630  1.4967  0.0908 -0.8564
 5666TIP3   OH238488   5.175   0.781  12.800  0.9240  0.0520  0.4721
 5666TIP3    H138489   5.270   0.784  12.809  0.8378  0.4986  1.3310
 5666TIP3    H238490   5.144   0.741  12.881  0.3459  0.3720  0.4172
 5667TIP3   OH238491   1.451   0.317   5.044  0.2235  0.2383 -0.3467
 5667TIP3    H138492   1.422   0.233   5.078 -1.7752  0.9139 -0.2159
 5667TIP3    H238493   1.414   0.322   4.956  1.9281  0.2144 -1.1043
 5668TIP3   OH238494   2.512   2.989   1.221 -0.2952 -0.4269  0.1186
 5668TIP3    H138495   2.457   2.917   1.252 -1.5264  1.3560  2.4150
 5668TIP3    H238496   2.452   3.046   1.173  0.5909 -0.7003 -1.3728
 5669TIP3   OH238497   3.717   4.413  11.959  0.4663  0.0953 -0.0382
 5669TIP3    H138498   3.790   4.474  11.950  0.4805  0.2791  1.0995
 5669TIP3    H238499   3.640   4.470  11.970  0.3569 -0.0907  0.1766
 5670TIP3   OH238500   2.775   1.900   2.125 -0.4987 -0.1146 -0.3414
 5670TIP3    H138501   2.734   1.959   2.062 -1.9571 -0.2844  0.4083
 5670TIP3    H238502   2.785   1.953   2.204 -0.2682 -0.3979 -0.1788
 5671TIP3   OH238503   5.789   4.471  11.752  0.4873 -0.1598  0.0998
 5671TIP3    H138504   5.828   4.384  11.759 -0.6630 -0.7096 -0.0923
 5671TIP3    H238505   5.737   4.481  11.832  0.3077  0.1862 -0.0567
 5672TIP3   OH238506   1.646   3.916   1.427 -0.0577 -0.6268  0.3193
 5672TIP3    H138507   1.636   3.977   1.354 -0.8787 -1.4810 -0.3040
 5672TIP3    H238508   1.726   3.866   1.407 -0.2624 -0.8347  0.0211
 5673TIP3   OH238509   1.710   2.625   2.474 -0.2938  0.0798 -0.4262
 5673TIP3    H138510   1.795   2.651   2.507  0.3545 -0.9087 -1.2316
 5673TIP3    H238511   1.648   2.653   2.541  0.6183  1.1152  0.0159
 5674TIP3   OH238512   4.480   0.822  13.681  0.0263 -0.4771  0.7298
 5674TIP3    H138513   4.513   0.865  13.602  1.5836  0.8849  2.0315
 5674TIP3    H238514   4.391   0.795  13.659  0.6142 -0.6814 -1.6627
 5675TIP3   OH238515   4.890   0.375  16.242 -0.2334  0.0005  0.0931
 5675TIP3    H138516   4.969   0.350  16.290  0.4931 -1.0301 -1.5254
 5675TIP3    H238517   4.828   0.304  16.258  0.1164 -0.4981 -0.6640
 5676TIP3   OH238518   0.222   6.769  10.977  0.9030 -0.0390  0.4572
 5676TIP3    H138519   0.232   6.677  10.953 -0.1872  0.1309 -0.7158
 5676TIP3    H238520   0.306   6.809  10.954 -0.0037  0.0965 -3.1360
 5677TIP3   OH238521   2.155   0.201  11.866 -0.0983 -0.5195 -0.1760
 5677TIP3    H138522   2.232   0.257  11.869  1.1672 -2.1875 -0.3343
 5677TIP3    H238523   2.085   0.259  11.835  0.8732  1.2343  0.7607
 5678TIP3   OH238524   3.443   3.428   4.555  0.8651 -0.2156 -0.1200
 5678TIP3    H138525   3.519   3.449   4.500  0.9741  0.0533  0.1319
 5678TIP3    H238526   3.478   3.369   4.622  0.7129 -0.6182 -0.3864
 5679TIP3   OH238527   0.605   6.801  12.917  0.0352  0.5613 -0.3944
 5679TIP3    H138528   0.605   6.817  12.822  2.0953 -0.6250 -0.6809
 5679TIP3    H238529   0.676   6.856  12.950 -1.3722  1.7986  0.6905
 5680TIP3   OH238530   0.401   6.413   2.935 -0.2106 -0.6580 -0.0388
 5680TIP3    H138531   0.458   6.364   2.995  0.0891  1.2914  1.3440
 5680TIP3    H238532   0.459   6.439   2.863 -0.0188 -1.0041 -0.0121
 5681TIP3   OH238533   6.696   5.770   0.130 -0.7153  0.3682 -0.2784
 5681TIP3    H138534   6.743   5.849   0.157  0.6101 -0.6585  0.5953
 5681TIP3    H238535   6.685   5.778   0.036 -1.1623  1.8744 -0.1092
 5682TIP3   OH238536   3.036   4.635  10.933 -0.0798  0.2415  0.1329
 5682TIP3    H138537   3.077   4.637  10.846  0.7270  0.5348  0.5080
 5682TIP3    H238538   2.954   4.682  10.922  0.8815  1.9508 -0.0598
 5683TIP3   OH238539   6.399   5.436   1.479  0.0652 -0.1851  0.5151
 5683TIP3    H138540   6.361   5.498   1.541 -0.9679 -0.7298  0.4510
 5683TIP3    H238541   6.357   5.352   1.499  0.6372 -0.6370 -0.1051
 5684TIP3   OH238542   0.035   0.753   0.513 -0.4851  0.0016 -0.7941
 5684TIP3    H138543  -0.011   0.836   0.500 -0.2944  0.0292 -1.3090
 5684TIP3    H238544  -0.025   0.686   0.481  0.7678  0.2086 -3.8934
 5685TIP3   OH238545   4.231   5.734  14.684 -0.3066 -0.0327  0.2767
 5685TIP3    H138546   4.158   5.748  14.743 -0.6558 -0.4905 -0.0322
 5685TIP3    H238547   4.215   5.647  14.646 -1.1590  1.0096 -1.9489
 5686TIP3   OH238548   4.437   3.452  15.904 -0.2910  0.4211 -0.2083
 5686TIP3    H138549   4.481   3.466  15.988 -0.6557  1.1505 -0.1272
 5686TIP3    H238550   4.344   3.462  15.923 -0.5375 -1.2930 -0.3403
 5687TIP3   OH238551   3.291   0.417   3.179  0.0796 -0.0436 -0.2318
 5687TIP3    H138552   3.306   0.335   3.226 -0.9182  0.6709  1.4243
 5687TIP3    H238553   3.256   0.390   3.094 -1.0812 -1.3483  0.6147
 5688TIP3   OH238554   3.559   0.284   1.465  0.4722 -0.3142 -0.0903
 5688TIP3    H138555   3.618   0.358   1.483 -0.8298  0.6275  0.4715
 5688TIP3    H238556   3.615   0.218   1.424  1.4727  1.3934 -1.6201
 5689TIP3   OH238557   4.341   3.988   0.742  0.2737 -0.6362  0.4127
 5689TIP3    H138558   4.388   3.929   0.684 -1.1632 -2.0132  0.5773
 5689TIP3    H238559   4.404   4.056   0.763  1.9383 -1.9841  0.0272
 5690TIP3   OH238560   3.660   3.094  16.504 -0.2351 -0.4706  0.3530
 5690TIP3    H138561   3.597   3.136  16.447 -0.8020 -0.1493  1.1890
 5690TIP3    H238562   3.663   3.150  16.582 -0.2955 -1.4569  1.0828
 5691TIP3   OH238563   0.783   2.902  11.649 -0.2944 -0.1968  0.7914
 5691TIP3    H138564   0.811   2.864  11.566  2.1643  1.1569  0.9197
 5691TIP3    H238565   0.689   2.920  11.636 -0.6107 -2.4630 -0.6692
 5692TIP3   OH238566   0.049   0.972   1.626  0.4961  0.3781  0.3880
 5692TIP3    H138567   0.093   0.892   1.597 -0.2154  0.3051 -0.5121
 5692TIP3    H238568   0.121   1.031   1.650  1.0550 -0.0778 -0.1340
 5693TIP3   OH238569   2.155   4.096  12.110 -0.2465  0.1324  0.0522
 5693TIP3    H138570   2.087   4.143  12.158 -1.4164 -0.8363 -0.5823
 5693TIP3    H238571   2.114   4.072  12.027  1.4471  1.0077 -1.1003
 5694TIP3   OH238572   3.640   0.177  15.466 -0.2698  0.5075 -0.1768
 5694TIP3    H138573   3.590   0.113  15.516  0.5723 -1.0864 -1.2797
 5694TIP3    H238574   3.717   0.194  15.520 -0.6991  0.9080  0.3098
 5695TIP3   OH238575   3.764   4.043  12.317 -1.1008 -0.1007 -0.4933
 5695TIP3    H138576   3.697   4.069  12.380 -3.2044 -1.4041 -2.0596
 5695TIP3    H238577   3.741   4.089  12.236 -1.3561 -2.0542 -1.6180
 5696TIP3   OH238578   0.676   6.330  12.016  0.0543 -0.0773  0.4788
 5696TIP3    H138579   0.638   6.301  12.099 -1.8788 -1.1298 -0.6970
 5696TIP3    H238580   0.733   6.258  11.989 -0.3727 -0.3268  0.2444
 5697TIP3   OH238581   2.384   4.787   1.439 -0.4412  0.5776 -0.7473
 5697TIP3    H138582   2.335   4.711   1.408  1.2591 -1.0035  0.1812
 5697TIP3    H238583   2.472   4.753   1.456  0.4169  2.7975 -0.3650
 5698TIP3   OH238584   4.644   2.545  17.150  0.4435 -0.0181 -0.5964
 5698TIP3    H138585   4.714   2.607  17.173  0.0739  0.6083 -1.1349
 5698TIP3    H238586   4.564   2.598  17.149  0.0602 -0.5871 -0.6791
 5699TIP3   OH238587   6.334   2.282  16.504 -0.0578 -0.6579 -0.0750
 5699TIP3    H138588   6.247   2.304  16.539  1.1530  2.3434  1.4881
 5699TIP3    H238589   6.343   2.188  16.519 -3.2403 -1.2210 -0.9305
 5700TIP3   OH238590   0.492   3.882  16.935  0.0678 -1.1182  0.4500
 5700TIP3    H138591   0.530   3.795  16.922  0.8151 -0.6864 -0.3607
 5700TIP3    H238592   0.547   3.940  16.883 -0.4555 -0.1614  0.9389
 5701TIP3   OH238593   4.137   5.543  14.541  0.0134  0.0495  0.0229
 5701TIP3    H138594   4.222   5.549  14.497  0.3643  0.0914  0.7056
 5701TIP3    H238595   4.075   5.579  14.477  0.4549 -0.2948 -0.6087
 5702TIP3   OH238596   4.346   4.177  16.731  0.2308  0.0857  0.3033
 5702TIP3    H138597   4.274   4.121  16.759 -2.6137  3.6488  0.8259
 5702TIP3    H238598   4.353   4.243  16.800  1.1553  2.2576 -1.7353
 5703TIP3   OH238599   3.039   4.848   4.889 -0.0667  0.4555  0.2239
 5703TIP3    H138600   2.944   4.854   4.876 -0.4653 -1.3285  1.8858
 5703TIP3    H238601   3.063   4.763   4.853  1.4113  1.8688 -2.4250
 5704TIP3   OH238602   5.561   1.274  13.201  0.3556 -0.2318  0.0479
 5704TIP3    H138603   5.645   1.281  13.247  0.8529  2.3351 -1.0590
 5704TIP3    H238604   5.583   1.290  13.109 -1.2954 -0.0735 -0.3521
 5705TIP3   OH238605   0.470   4.600  14.130  0.2031 -0.6520  0.4091
 5705TIP3    H138606   0.389   4.612  14.080 -1.0167 -0.4402  2.3292
 5705TIP3    H238607   0.457   4.519  14.178  0.7958 -0.1939  1.3628
 5706TIP3   OH238608   1.907   1.356   5.444 -0.1804 -0.1645 -0.2179
 5706TIP3    H138609   1.864   1.414   5.382  0.2140  0.1731 -0.1792
 5706TIP3    H238610   1.902   1.402   5.528  0.1973 -0.1462 -0.2017
 5707TIP3   OH238611   4.037   5.126  14.242 -0.2372  0.7926  0.0718
 5707TIP3    H138612   3.948   5.128  14.210  0.2591 -1.8202 -1.8561
 5707TIP3    H238613   4.082   5.195  14.194 -0.5593 -0.0185 -1.4736
 5708TIP3   OH238614   0.745   3.112   1.059  0.1092  0.1501  0.2085
 5708TIP3    H138615   0.825   3.149   1.096  0.1749  2.1822 -1.7159
 5708TIP3    H238616   0.674   3.163   1.099 -0.2447 -1.4672  1.7136
 5709TIP3   OH238617   6.019   4.329   3.034  0.1141 -0.1847 -0.5615
 5709TIP3    H138618   5.948   4.296   3.089 -0.1821 -1.7777 -1.8423
 5709TIP3    H238619   6.099   4.300   3.079  0.0829  2.2812  1.3070
 5710TIP3   OH238620   4.201   6.483  13.290 -0.3391 -0.5774 -0.0649
 5710TIP3    H138621   4.200   6.414  13.355  0.3635  0.0349  0.6163
 5710TIP3    H238622   4.190   6.564  13.340  1.2038 -0.0163 -0.5710
 5711TIP3   OH238623   3.885   5.109   2.947  0.2072  0.1653  0.0253
 5711TIP3    H138624   3.801   5.072   2.973  0.1383  0.7271  0.6174
 5711TIP3    H238625   3.921   5.044   2.887 -0.2923 -0.4560  0.3745
 5712TIP3   OH238626   6.287   4.486   0.583  0.4301 -0.3604 -0.2085
 5712TIP3    H138627   6.342   4.490   0.505  1.0778 -0.1394  0.2507
 5712TIP3    H238628   6.205   4.527   0.557 -0.0987 -2.0484 -1.3652
 5713TIP3   OH238629   5.085   0.937   5.367  0.1896 -0.1145  0.3778
 5713TIP3    H138630   5.141   0.900   5.298  0.4492 -2.2782  1.6658
 5713TIP3    H238631   4.997   0.933   5.331  0.2323 -1.8883  0.3700
 5714TIP3   OH238632   4.600   4.258   4.851  0.3849  0.2233  0.8425
 5714TIP3    H138633   4.544   4.331   4.824  2.4353  1.3165 -0.8013
 5714TIP3    H238634   4.664   4.298   4.910  0.5493 -0.5918  1.2168
 5715TIP3   OH238635   6.254   1.294   0.971 -0.1240  0.1741 -0.1677
 5715TIP3    H138636   6.334   1.317   1.018 -0.5262  0.7870  0.2231
 5715TIP3    H238637   6.278   1.215   0.921  0.7421  0.3972 -0.1266
 5716TIP3   OH238638   4.675   1.254  14.989  0.1124 -0.5151 -0.2656
 5716TIP3    H138639   4.603   1.238  15.051 -0.1100 -2.4837 -0.9671
 5716TIP3    H238640   4.656   1.340  14.952 -0.6028  0.0156  1.2241
 5717TIP3   OH238641   5.725   6.200  15.713 -0.0611 -0.2074 -0.1627
 5717TIP3    H138642   5.648   6.219  15.659 -0.3603 -2.7703 -0.8001
 5717TIP3    H238643   5.690   6.155  15.790  0.7198 -1.0482 -0.2691
 5718TIP3   OH238644   6.390   4.830   5.019 -0.1293  0.1728 -0.4014
 5718TIP3    H138645   6.461   4.870   5.070 -0.2498 -2.1628  1.7875
 5718TIP3    H238646   6.310   4.858   5.064 -0.2293 -2.0350  0.9199
 5719TIP3   OH238647   3.163   2.203  16.448  0.2255 -0.1345  0.7738
 5719TIP3    H138648   3.238   2.260  16.460  0.5729  0.1344 -2.0026
 5719TIP3    H238649   3.195   2.116  16.471  0.8101  0.2449  1.4280
 5720TIP3   OH238650   2.058   4.625  13.380 -0.6181 -0.0538  0.0599
 5720TIP3    H138651   2.038   4.557  13.444 -0.1347 -0.0277  0.2386
 5720TIP3    H238652   2.116   4.583  13.317 -2.2969 -0.5245 -1.2246
 5721TIP3   OH238653   3.762   1.943   3.417 -0.1972  0.1119 -0.0425
 5721TIP3    H138654   3.696   1.910   3.356 -1.2528  1.8670  0.0684
 5721TIP3    H238655   3.825   1.989   3.362  0.4080 -0.7029 -0.0499
 5722TIP3   OH238656   4.799   2.372  13.963 -0.0996  0.0902  0.1003
 5722TIP3    H138657   4.715   2.333  13.988  0.4270 -0.6227  0.8120
 5722TIP3    H238658   4.793   2.381  13.868  0.3930 -3.4235 -0.4074
 5723TIP3   OH238659   5.146   5.103  17.136  0.1532  0.3878  0.2380
 5723TIP3    H138660   5.161   5.143  17.221  1.3085  2.1584 -0.7427
 5723TIP3    H238661   5.186   5.163  17.073 -1.9446 -0.0996 -1.7013
 5724TIP3   OH238662   3.138   6.737   2.733  0.2166 -0.3152  0.0584
 5724TIP3    H138663   3.093   6.820   2.718  1.0771  0.3180  0.8596
 5724TIP3    H238664   3.231   6.758   2.721  0.5139 -0.9579  1.1146
 5725TIP3   OH238665   5.450   1.643  16.691 -0.3491 -0.0405  0.3474
 5725TIP3    H138666   5.359   1.625  16.713 -0.1627  0.0887  1.2896
 5725TIP3    H238667   5.481   1.565  16.646 -0.1295 -1.3073  2.5294
 5726TIP3   OH238668   3.140   0.488  17.270 -0.0263  0.3302 -0.4799
 5726TIP3    H138669   3.223   0.483  17.223 -0.5795 -4.0563 -1.4681
 5726TIP3    H238670   3.086   0.420  17.229 -2.5084 -0.0927  3.0670
 5727TIP3   OH238671   6.791   2.652   1.925  0.4328  0.3106 -0.6111
 5727TIP3    H138672   6.732   2.700   1.981 -0.8882 -3.4476  1.5760
 5727TIP3    H238673   6.867   2.709   1.915 -1.9695  3.7897 -0.4936
 5728TIP3   OH238674   1.535   1.078   1.487  0.0418  0.5129  0.1154
 5728TIP3    H138675   1.542   1.136   1.564  0.0226 -0.3237  0.7615
 5728TIP3    H238676   1.620   1.036   1.480 -0.0671  0.3276 -0.1162
 5729TIP3   OH238677   0.512   3.441  14.399  0.0741 -0.7366  0.0340
 5729TIP3    H138678   0.536   3.374  14.463  1.5386 -0.3190 -0.0502
 5729TIP3    H238679   0.584   3.504  14.401 -0.3920 -0.1242 -1.2143
 5730TIP3   OH238680   1.752   0.576   1.700  0.7633 -0.3769  0.7212
 5730TIP3    H138681   1.711   0.500   1.658 -0.0858  0.3356  0.2165
 5730TIP3    H238682   1.833   0.542   1.738  1.7210 -1.0074 -1.7110
 5731TIP3   OH238683   6.542   3.999   5.391 -0.3727  0.0571  0.6715
 5731TIP3    H138684   6.450   3.979   5.407 -0.3624 -0.7242 -0.1525
 5731TIP3    H238685   6.583   3.914   5.379  0.3850  0.4206  0.6171
 5732TIP3   OH238686   3.671   5.803  10.568  0.0131 -0.2398  0.0710
 5732TIP3    H138687   3.671   5.879  10.510  2.0719 -0.6088 -0.4839
 5732TIP3    H238688   3.715   5.734  10.518 -2.4859 -2.1131  0.2398
 5733TIP3   OH238689   1.943   1.635  16.687 -0.2561  0.1139  0.1174
 5733TIP3    H138690   2.030   1.598  16.704  0.6153  1.8377 -0.3845
 5733TIP3    H238691   1.885   1.590  16.749  1.3633  0.4047  1.9376
 5734TIP3   OH238692   5.427   0.422  12.088  0.0534 -0.0151  0.1679
 5734TIP3    H138693   5.356   0.472  12.048  0.2822 -0.1416 -0.4030
 5734TIP3    H238694   5.383   0.357  12.144 -0.2396  1.4374  1.7155
 5735TIP3   OH238695   1.372   4.915   4.829  0.3469 -0.3306 -0.2425
 5735TIP3    H138696   1.326   4.997   4.850  1.0164 -0.4542  1.9560
 5735TIP3    H238697   1.465   4.936   4.842  0.5101 -1.4921  0.5724
 5736TIP3   OH238698   4.135   1.938  15.796  0.3491  0.3840  0.0995
 5736TIP3    H138699   4.179   1.894  15.868 -0.1087  0.4664  0.4329
 5736TIP3    H238700   4.120   2.027  15.827  0.8523  0.6487 -0.3953
 5737TIP3   OH238701   4.401   2.206  13.075 -0.0450  0.0764 -0.7351
 5737TIP3    H138702   4.419   2.232  13.165 -2.8075 -0.1410 -0.0539
 5737TIP3    H238703   4.477   2.153  13.050  2.5171  3.0252  0.1472
 5738TIP3   OH238704   2.711   3.958  11.779 -0.3601  0.2763 -0.1513
 5738TIP3    H138705   2.683   4.048  11.761 -0.4929  0.0956 -0.8802
 5738TIP3    H238706   2.634   3.916  11.815 -0.1504  0.5878  0.6860
 5739TIP3   OH238707   4.582   4.991  14.135  0.2011  0.0959  0.4187
 5739TIP3    H138708   4.622   4.906  14.117  0.9258  0.4109  0.4957
 5739TIP3    H238709   4.559   4.988  14.228 -0.8603 -0.4506  0.1440
 5740TIP3   OH238710   0.926   4.469   6.274  0.0912 -0.0305 -0.1005
 5740TIP3    H138711   0.945   4.563   6.283 -0.1490 -0.0028  0.1392
 5740TIP3    H238712   0.845   4.457   6.324  0.1990 -0.3909 -0.0139
 5741TIP3   OH238713   5.939   1.820   2.705  0.2117  0.1948  0.4280
 5741TIP3    H138714   5.860   1.864   2.738  0.3439  0.8061 -0.0418
 5741TIP3    H238715   5.983   1.887   2.653  0.3718 -0.5313 -0.3992
 5742TIP3   OH238716   3.670   1.315  12.314 -0.0389 -0.1578  0.3184
 5742TIP3    H138717   3.636   1.364  12.239 -1.3187 -2.1026 -0.4605
 5742TIP3    H238718   3.597   1.314  12.377 -1.0268 -3.0771 -0.7273
 5743TIP3   OH238719   1.544   3.978  15.577 -1.1058 -0.4292  0.2358
 5743TIP3    H138720   1.505   4.029  15.647  0.1294 -0.0872  0.6862
 5743TIP3    H238721   1.569   4.042  15.511 -2.3376 -0.7539 -0.5854
 5744TIP3   OH238722   5.854   2.056   4.643  0.2274  0.5163  0.2430
 5744TIP3    H138723   5.842   1.962   4.655 -0.1749  0.6629  1.0046
 5744TIP3    H238724   5.858   2.092   4.731 -2.3954  1.5634  0.0421
 5745TIP3   OH238725   5.325   3.404  11.507 -0.6752 -0.3178 -0.2104
 5745TIP3    H138726   5.379   3.332  11.540  0.4981  1.2017  1.4088
 5745TIP3    H238727   5.312   3.461  11.583  1.2341  2.8382 -2.0249
 5746TIP3   OH238728   2.901   0.753  10.970 -0.2356 -0.1303 -0.6563
 5746TIP3    H138729   2.958   0.756  11.047  0.9501 -4.9701 -1.0233
 5746TIP3    H238730   2.942   0.814  10.908  2.7099 -0.9401  0.2885
 5747TIP3   OH238731   2.889   2.102  10.610 -0.0203 -0.1827 -0.3177
 5747TIP3    H138732   2.974   2.116  10.651  0.1099  2.5783 -1.3154
 5747TIP3    H238733   2.865   2.012  10.634  1.7681 -0.0341  2.4910
 5748TIP3   OH238734   4.359   2.128   2.957  0.6686  0.0771  0.3508
 5748TIP3    H138735   4.355   2.192   2.886 -0.0880 -0.8457 -0.4636
 5748TIP3    H238736   4.450   2.128   2.985  0.6232  1.7875  0.6463
 5749TIP3   OH238737   5.061   5.557   1.022  0.8014 -0.1522 -0.4590
 5749TIP3    H138738   5.015   5.576   1.104  1.2113 -4.6843  1.0802
 5749TIP3    H238739   4.995   5.518   0.965  0.6567  2.4215 -2.2562
 5750TIP3   OH238740   4.796   2.456   2.750  0.4561 -0.4937  0.2152
 5750TIP3    H138741   4.816   2.375   2.797  0.0788 -1.0629 -0.5894
 5750TIP3    H238742   4.810   2.435   2.658 -1.2441 -0.1587 -0.1633
 5751TIP3   OH238743   6.486   0.031   1.944  0.4065  0.0591  0.3052
 5751TIP3    H138744   6.535   0.096   1.893  0.1507  2.4785  2.9106
 5751TIP3    H238745   6.548   0.000   2.010  0.2905 -1.9078 -0.4165
 5752TIP3   OH238746   6.371   4.643  14.868  0.6747 -0.0347 -0.0778
 5752TIP3    H138747   6.357   4.566  14.813  0.7598 -0.1141  0.0111
 5752TIP3    H238748   6.287   4.656  14.913  0.5434  0.1461 -0.3687
 5753TIP3   OH238749   5.273   1.460  15.208  0.5083 -0.2984  0.2221
 5753TIP3    H138750   5.329   1.387  15.233  0.8384 -0.3127 -0.5487
 5753TIP3    H238751   5.333   1.528  15.176  0.0768 -0.4982 -1.0745
 5754TIP3   OH238752   5.363   1.695   5.867 -0.1532  0.2939  0.0362
 5754TIP3    H138753   5.307   1.751   5.815  0.6579  1.3711  0.2927
 5754TIP3    H238754   5.303   1.647   5.925 -1.0060 -0.4813 -1.4450
 5755TIP3   OH238755   0.720   0.854  16.672  0.0239  0.5307  0.0592
 5755TIP3    H138756   0.678   0.915  16.611  0.3626  0.7209  0.0180
 5755TIP3    H238757   0.694   0.767  16.639 -0.9412  0.6500  0.4582
 5756TIP3   OH238758   6.807   3.513  16.730 -0.2687  0.1936 -0.3891
 5756TIP3    H138759   6.897   3.521  16.699  0.1628 -0.9103  0.4857
 5756TIP3    H238760   6.793   3.419  16.739 -1.4465  0.3559 -0.3155
 5757TIP3   OH238761   1.746   1.206  14.878 -0.2277 -0.0519 -0.4442
 5757TIP3    H138762   1.728   1.300  14.876 -1.9399 -0.3579 -1.4839
 5757TIP3    H238763   1.774   1.185  14.789  0.8649 -0.4188 -0.0284
 5758TIP3   OH238764   5.870   0.051   5.608 -0.1255  0.5683 -0.2734
 5758TIP3    H138765   5.865  -0.043   5.622 -0.4945  0.3736 -1.5595
 5758TIP3    H238766   5.950   0.078   5.653 -0.2963 -0.2587  0.5507
 5759TIP3   OH238767   5.002   0.991  12.807 -0.4123  0.1635  0.1420
 5759TIP3    H138768   5.063   0.917  12.800 -1.4736 -0.6553 -0.8839
 5759TIP3    H238769   5.015   1.024  12.895 -0.7722 -2.0581  1.1088
 5760TIP3   OH238770   4.379   4.453   4.358  0.1492 -0.1661 -0.0864
 5760TIP3    H138771   4.381   4.378   4.298  0.6211 -0.4886  0.3247
 5760TIP3    H238772   4.471   4.474   4.373  0.1001 -0.8969  1.5075
 5761TIP3   OH238773   4.205   6.531   5.606 -0.3961 -0.2108 -0.4480
 5761TIP3    H138774   4.208   6.622   5.577 -1.9688  0.0910  0.2757
 5761TIP3    H238775   4.284   6.520   5.660 -0.6962  1.0133  0.2705
 5762TIP3   OH238776   0.968   4.043   5.426 -0.2885  0.2116 -0.0932
 5762TIP3    H138777   0.967   3.951   5.400  0.0431  0.3086 -0.4685
 5762TIP3    H238778   1.054   4.056   5.467  0.0792  0.5903 -0.9550
 5763TIP3   OH238779   6.589   3.086  13.939 -0.3183 -0.3079 -0.0081
 5763TIP3    H138780   6.500   3.050  13.936  0.4732 -2.3047 -1.0840
 5763TIP3    H238781   6.640   3.022  13.988  0.5244  0.9219  0.7894
 5764TIP3   OH238782   5.473   5.404  11.260  0.0311  0.0349  0.1109
 5764TIP3    H138783   5.557   5.450  11.267 -0.3936  0.9218 -0.4215
 5764TIP3    H238784   5.440   5.400  11.349 -1.8502  4.5298 -0.1135
 5765TIP3   OH238785   5.906   1.740  16.643 -0.0577  0.2282 -0.2726
 5765TIP3    H138786   5.931   1.651  16.619 -0.8325  0.1513 -0.8386
 5765TIP3    H238787   5.911   1.789  16.561  2.1951  1.1900  0.3348
 5766TIP3   OH238788   1.381   1.609   1.636 -0.0611 -0.0996  0.1236
 5766TIP3    H138789   1.298   1.622   1.590 -0.1308  0.8596  0.5062
 5766TIP3    H238790   1.447   1.622   1.568 -0.2202 -1.8498 -0.4132
 5767TIP3   OH238791   2.874   6.307  14.817  0.0712  0.0081 -0.2841
 5767TIP3    H138792   2.890   6.384  14.871 -1.3846  0.8062 -0.9599
 5767TIP3    H238793   2.789   6.322  14.778 -1.3352 -2.9430  1.3084
 5768TIP3   OH238794   2.999   4.341   0.912 -0.0819  0.2061 -0.8469
 5768TIP3    H138795   2.946   4.286   0.969 -0.9073 -0.3241 -2.0846
 5768TIP3    H238796   3.005   4.425   0.957  0.7212 -0.6899  0.8098
 5769TIP3   OH238797   4.320   0.364  13.165  0.0613  0.2224 -0.2862
 5769TIP3    H138798   4.259   0.409  13.223 -0.7221 -1.2586  0.1021
 5769TIP3    H238799   4.268   0.343  13.087  0.3072 -0.3097 -0.3126
 5770TIP3   OH238800   3.884   6.070   1.465  0.3852 -0.0471 -0.4101
 5770TIP3    H138801   3.800   6.101   1.499  0.2528 -0.3913 -0.4171
 5770TIP3    H238802   3.949   6.107   1.525  0.2063 -0.0310 -0.2244
 5771TIP3   OH238803   5.202   6.468   1.790  0.9888 -0.3067  0.8271
 5771TIP3    H138804   5.159   6.468   1.876  0.5389 -0.8100  0.6124
 5771TIP3    H238805   5.228   6.376   1.777 -2.9164 -1.3194 -1.4635
 5772TIP3   OH238806   1.665   0.604  16.527  0.2004  0.1334 -0.2133
 5772TIP3    H138807   1.741   0.651  16.561 -0.0258  0.2375  0.1548
 5772TIP3    H238808   1.608   0.592  16.603  0.3760 -0.9793 -0.2454
 5773TIP3   OH238809   3.470   4.782  15.133 -0.4588 -0.3724 -0.3471
 5773TIP3    H138810   3.528   4.760  15.206 -0.2547  0.3648 -0.2861
 5773TIP3    H238811   3.492   4.872  15.110 -1.4590 -0.1324 -0.4350
 5774TIP3   OH238812   4.013   6.023   4.138  0.8553  0.4707 -0.1117
 5774TIP3    H138813   4.051   5.968   4.069 -0.4705 -2.2342  1.1408
 5774TIP3    H238814   4.066   6.003   4.216 -0.2526  0.1743  0.5917
 5775TIP3   OH238815   0.047   3.790  12.229 -0.2067  0.4075 -0.1183
 5775TIP3    H138816   0.024   3.697  12.228 -0.9992  0.5958 -0.0648
 5775TIP3    H238817   0.035   3.820  12.139  1.9880  0.0248 -0.5996
 5776TIP3   OH238818   4.754   5.952  16.271  0.0300  0.4086  0.0425
 5776TIP3    H138819   4.660   5.959  16.288  0.2717 -0.3534  1.8993
 5776TIP3    H238820   4.774   5.859  16.281  1.1440  0.6898  0.5654
 5777TIP3   OH238821   1.911   6.179   5.582 -0.5627 -0.4071  0.1163
 5777TIP3    H138822   1.937   6.265   5.614 -1.4559  0.5573 -1.5834
 5777TIP3    H238823   1.847   6.148   5.646  1.1588 -0.7060  1.7672
 5778TIP3   OH238824   2.687   2.979   0.307 -0.0902  0.2225 -0.0703
 5778TIP3    H138825   2.626   2.964   0.235  1.6183 -0.2833 -1.4584
 5778TIP3    H238826   2.763   2.926   0.286  1.5748  2.1807  0.6924
 5779TIP3   OH238827   6.402   5.582   5.794 -0.4175  0.3313  0.1200
 5779TIP3    H138828   6.392   5.538   5.709  0.4106  2.6394 -1.2788
 5779TIP3    H238829   6.494   5.573   5.815 -0.2736  1.2130 -0.1002
 5780TIP3   OH238830   1.172   0.932  13.143  0.1440 -0.1775  0.0663
 5780TIP3    H138831   1.086   0.895  13.161 -0.4518  0.8763 -0.5263
 5780TIP3    H238832   1.226   0.857  13.117 -1.0293 -0.6393 -1.1228
 5781TIP3   OH238833   2.355   5.887   6.158  0.3440 -0.0287  0.1642
 5781TIP3    H138834   2.285   5.953   6.160  0.0065 -0.3928  1.2573
 5781TIP3    H238835   2.431   5.934   6.124  0.1217  0.9547  0.9574
 5782TIP3   OH238836   0.138   4.128  10.535  0.2699  0.3191 -0.5060
 5782TIP3    H138837   0.158   4.163  10.448  0.4231  2.4694  0.3378
 5782TIP3    H238838   0.215   4.077  10.559  0.7110  0.6564 -1.1855
 5783TIP3   OH238839   3.922   1.740   0.973  0.1623 -0.3705 -0.1424
 5783TIP3    H138840   3.844   1.691   0.948 -1.3344  2.4532 -1.4285
 5783TIP3    H238841   3.905   1.766   1.063  0.3143 -0.9775  0.0679
 5784TIP3   OH238842   4.206   1.667   1.167  0.1134  1.0296  0.1157
 5784TIP3    H138843   4.288   1.649   1.120 -0.2289  1.1707 -0.5576
 5784TIP3    H238844   4.139   1.669   1.098 -0.8194 -1.2664  0.8630
 5785TIP3   OH238845   3.945   0.000   2.902  0.3520 -0.0361 -0.4757
 5785TIP3    H138846   3.925   0.075   2.845 -0.3741 -0.4660 -0.7962
 5785TIP3    H238847   4.009   0.035   2.965 -0.6914  1.1259 -0.0153
 5786TIP3   OH238848   5.819   4.880  11.972  0.2134  0.1091 -0.0312
 5786TIP3    H138849   5.874   4.958  11.977  0.6587 -0.1316 -0.8759
 5786TIP3    H238850   5.869   4.819  11.918  0.3647 -1.1998  1.5190
 5787TIP3   OH238851   2.082   4.900  12.530 -0.2069 -0.1132  0.5730
 5787TIP3    H138852   2.085   4.852  12.613 -0.9341 -0.7360  0.2393
 5787TIP3    H238853   2.041   4.984  12.553 -0.9891 -0.5306  0.7309
 5788TIP3   OH238854   4.719   1.430  15.643 -0.3271 -0.0748  0.0833
 5788TIP3    H138855   4.778   1.371  15.596  0.4309  0.4333  0.3845
 5788TIP3    H238856   4.765   1.450  15.724 -1.0700  0.0590  0.4859
 5789TIP3   OH238857   2.830   1.849  10.712 -0.1245  0.1169 -0.2348
 5789TIP3    H138858   2.754   1.851  10.771  0.5799  1.6198  0.6926
 5789TIP3    H238859   2.898   1.803  10.762  0.5239  1.5328  0.2342
 5790TIP3   OH238860   1.954   2.717  15.290  0.0731  0.3143 -0.0548
 5790TIP3    H138861   1.988   2.722  15.380  0.9382 -1.6315 -0.2211
 5790TIP3    H238862   1.913   2.802  15.275  0.4880  0.9204  1.9520
 5791TIP3   OH238863   5.993   0.491  11.950 -0.2253 -0.1643 -0.3779
 5791TIP3    H138864   6.011   0.567  12.006 -0.6341 -0.0085 -0.4534
 5791TIP3    H238865   5.932   0.524  11.884 -1.0100 -0.7416  0.0425
 5792TIP3   OH238866   1.917   1.255  12.366 -0.9278 -0.4465  0.2967
 5792TIP3    H138867   1.948   1.167  12.387  0.8601 -0.1126 -0.7233
 5792TIP3    H238868   1.985   1.292  12.309  0.3523  2.9122  3.5460
 5793TIP3   OH238869   3.566   5.457  14.723  0.1202 -0.0561 -0.1316
 5793TIP3    H138870   3.544   5.391  14.657  2.3681 -0.3467 -0.6788
 5793TIP3    H238871   3.542   5.540  14.683  0.3687 -0.3231 -0.8479
 5794TIP3   OH238872   4.920   4.050  15.716 -0.6913  0.1581  0.5704
 5794TIP3    H138873   4.932   4.060  15.622  0.7601  0.9415  0.8152
 5794TIP3    H238874   4.924   3.955  15.731 -0.3430  0.0681 -0.0786
 5795TIP3   OH238875   3.353   5.226   3.634  0.0236 -0.2568  0.4670
 5795TIP3    H138876   3.381   5.263   3.719  2.9931  1.2177 -0.9910
 5795TIP3    H238877   3.380   5.135   3.638 -0.2338 -0.3123  1.2354
 5796TIP3   OH238878   3.160   0.703   2.931  0.4211 -0.0652  0.5543
 5796TIP3    H138879   3.092   0.682   2.994 -0.9267  0.6921 -0.5978
 5796TIP3    H238880   3.133   0.659   2.850  1.0571  0.6128 -0.0483
 5797TIP3   OH238881   6.058   3.672  11.729 -0.2660  0.2174 -0.3461
 5797TIP3    H138882   5.992   3.662  11.661 -0.6947  0.1691  0.0643
 5797TIP3    H238883   6.140   3.683  11.682 -0.8519  2.5862 -0.9225
 5798TIP3   OH238884   5.137   4.396   2.580  0.6273 -0.2048 -0.6072
 5798TIP3    H138885   5.175   4.472   2.536  0.3650 -0.1984 -0.8272
 5798TIP3    H238886   5.048   4.391   2.547  1.0331 -1.3907 -1.6140
 5799TIP3   OH238887   1.705   3.040   6.125  0.3523  0.2161  0.2511
 5799TIP3    H138888   1.711   3.030   6.220  0.0133  2.6091  0.5833
 5799TIP3    H238889   1.777   2.987   6.090  2.0964  1.3212  2.0035
 5800TIP3   OH238890   4.892   3.919   4.368  0.0888  0.0928 -0.2478
 5800TIP3    H138891   4.982   3.897   4.391 -0.3219 -1.3780  0.0578
 5800TIP3    H238892   4.882   3.890   4.277  0.5246  2.2290 -1.0326
 5801TIP3   OH238893   6.257   1.207   5.603  0.5644  0.5116  0.2960
 5801TIP3    H138894   6.332   1.264   5.618  0.6956  0.2444  0.6485
 5801TIP3    H238895   6.182   1.267   5.604  0.7992  0.8283 -0.4066
 5802TIP3   OH238896   6.358   4.648   0.961 -0.3539  0.1893  0.1525
 5802TIP3    H138897   6.438   4.596   0.964 -0.0667  0.2665 -3.2489
 5802TIP3    H238898   6.378   4.726   1.013  0.9548 -0.7591  1.1483
 5803TIP3   OH238899   4.820   4.097  12.804 -0.4888  0.7242 -0.1164
 5803TIP3    H138900   4.893   4.089  12.865  0.4474  0.0897 -1.2642
 5803TIP3    H238901   4.760   4.027  12.828 -1.9677  2.6634  2.3469
 5804TIP3   OH238902   4.283   6.177  13.483  0.0635 -0.0643  0.5691
 5804TIP3    H138903   4.201   6.162  13.437 -0.3489  0.1603  1.2210
 5804TIP3    H238904   4.271   6.261  13.528  0.9736  0.4152 -0.0362
 5805TIP3   OH238905   0.717   4.854   4.547 -0.5979 -0.3699  0.4160
 5805TIP3    H138906   0.688   4.767   4.576 -1.6002  0.3538  1.6874
 5805TIP3    H238907   0.636   4.901   4.527 -0.0588  0.2172 -0.4356
 5806TIP3   OH238908   6.197   2.789   0.424 -0.6125 -0.5340 -0.8867
 5806TIP3    H138909   6.218   2.760   0.513 -2.1720  0.0810 -0.2858
 5806TIP3    H238910   6.281   2.819   0.389 -0.1176  0.0809  0.7061
 5807TIP3   OH238911   5.935   3.870   0.018  0.4098 -0.0254  0.1627
 5807TIP3    H138912   5.868   3.807   0.045  0.5947  0.1120  0.9956
 5807TIP3    H238913   5.965   3.838  -0.067 -0.0027 -0.6602  0.2450
 5808TIP3   OH238914   0.022   4.756   1.099 -0.3564  0.6094  1.0072
 5808TIP3    H138915   0.094   4.806   1.139  0.6222 -0.1318  0.2356
 5808TIP3    H238916   0.017   4.676   1.151 -1.0382  0.9150  1.4239
 5809TIP3   OH238917   4.052   0.580  12.646  0.4431  0.2220  0.4030
 5809TIP3    H138918   4.114   0.637  12.601  1.7666 -0.4831  1.2818
 5809TIP3    H238919   4.106   0.510  12.682 -1.0031 -0.9648  0.3312
 5810TIP3   OH238920   4.200   3.759  15.101 -0.8079  0.0069 -0.0534
 5810TIP3    H138921   4.293   3.774  15.118 -0.7357 -0.3681 -0.1146
 5810TIP3    H238922   4.174   3.831  15.044 -0.9283  1.0025  1.2109
 5811TIP3   OH238923   1.372   5.969  14.780 -0.4746 -0.5317  0.3230
 5811TIP3    H138924   1.288   5.998  14.745 -1.1697  0.0394  2.3657
 5811TIP3    H238925   1.378   5.877  14.754 -1.1310 -0.2615 -0.8825
 5812TIP3   OH238926   5.762   2.216   6.036 -0.3172  0.0108 -0.2514
 5812TIP3    H138927   5.682   2.207   6.087 -1.1293  0.7642 -1.3519
 5812TIP3    H238928   5.779   2.310   6.033  1.1363 -0.1878  0.7282
 5813TIP3   OH238929   0.611   6.818  13.682  0.5660  0.3842 -0.1937
 5813TIP3    H138930   0.635   6.901  13.723 -2.0940  0.8923  0.5191
 5813TIP3    H238931   0.595   6.840  13.590 -1.1265  0.9211  0.2035
 5814TIP3   OH238932   6.109   0.185   0.522  0.0722  0.2174 -0.0643
 5814TIP3    H138933   6.176   0.124   0.556 -0.0347 -0.9222 -1.7839
 5814TIP3    H238934   6.078   0.232   0.600  0.0017 -2.0861  1.3963
 5815TIP3   OH238935   4.328   6.715  15.387 -0.4776 -0.1889  0.1728
 5815TIP3    H138936   4.253   6.657  15.375  0.4193 -1.3425 -0.1217
 5815TIP3    H238937   4.295   6.803  15.369 -1.7153 -0.6879 -0.0526
 5816TIP3   OH238938   5.037   0.145   5.273  0.1399 -0.0192 -0.8134
 5816TIP3    H138939   5.035   0.240   5.257 -0.6382 -0.2852 -2.4797
 5816TIP3    H238940   4.946   0.122   5.293  0.2213 -0.5173 -1.0054
 5817TIP3   OH238941   4.858   0.610   1.747  0.2306  0.0944 -0.0527
 5817TIP3    H138942   4.847   0.519   1.721  1.3984 -0.5359  1.5390
 5817TIP3    H238943   4.770   0.648   1.741 -0.4757 -1.4259  0.3623
 5818TIP3   OH238944   1.316   0.442   0.799  0.5954 -0.3310 -0.4167
 5818TIP3    H138945   1.285   0.391   0.724  2.1415  1.4906 -2.4486
 5818TIP3    H238946   1.403   0.407   0.817  0.0744 -1.0350  0.8704
 5819TIP3   OH238947   3.814   3.283  13.429  0.4961  0.3780  0.3330
 5819TIP3    H138948   3.780   3.254  13.514  0.1104  0.1024  0.0909
 5819TIP3    H238949   3.908   3.267  13.434  0.4120 -0.0654  0.5443
 5820TIP3   OH238950   2.232   1.362   5.448  0.4390  0.0902 -0.0079
 5820TIP3    H138951   2.171   1.302   5.492  1.3258 -0.0599  1.0602
 5820TIP3    H238952   2.310   1.308   5.431  0.6185  0.5129 -0.5510
 5821TIP3   OH238953   1.671   4.109   0.929  0.2488 -0.3260  0.2195
 5821TIP3    H138954   1.710   4.025   0.907 -1.0200 -0.7466 -0.5411
 5821TIP3    H238955   1.625   4.136   0.850 -0.1620  0.6219  0.7563
 5822TIP3   OH238956   0.332   0.796   2.133 -0.6615 -0.4106 -0.3379
 5822TIP3    H138957   0.310   0.703   2.133 -0.7772 -0.4517 -2.8689
 5822TIP3    H238958   0.261   0.839   2.085 -1.1081  1.1801  1.5953
 5823TIP3   OH238959   3.145   3.317  12.195  0.4622 -0.2293 -0.2126
 5823TIP3    H138960   3.080   3.247  12.203  0.4311 -0.1687  0.0543
 5823TIP3    H238961   3.094   3.393  12.166  0.2556  0.0711  0.9056
 5824TIP3   OH238962   4.027   6.775  15.141 -0.1485 -0.1587  0.8814
 5824TIP3    H138963   3.937   6.774  15.108  0.3717  1.5207 -0.7760
 5824TIP3    H238964   4.027   6.843  15.209  0.2435  1.2214 -0.4533
 5825TIP3   OH238965   0.085   0.983  11.578  0.0455  0.2128 -0.2359
 5825TIP3    H138966   0.115   1.065  11.540  0.9824 -0.6814 -1.5662
 5825TIP3    H238967   0.127   0.980  11.664 -0.9684  1.6407  0.3413
 5826TIP3   OH238968   2.356   0.171   4.659  0.0583 -0.2288 -0.3988
 5826TIP3    H138969   2.373   0.170   4.565 -0.3931  1.4526 -0.5206
 5826TIP3    H238970   2.301   0.248   4.674 -0.4166 -0.8165  1.1617
 5827TIP3   OH238971   0.772   2.532  16.349  0.5189  0.0207  0.0378
 5827TIP3    H138972   0.795   2.502  16.437 -1.4809  0.2433  0.6740
 5827TIP3    H238973   0.852   2.575  16.317  2.3091 -2.7033  0.4896
 5828TIP3   OH238974   5.133   5.102  12.854  0.1506 -0.2332 -0.4507
 5828TIP3    H138975   5.102   5.012  12.840  1.5931 -0.4436 -2.9241
 5828TIP3    H238976   5.209   5.110  12.796  0.3661  2.4422  0.0766
 5829TIP3   OH238977   3.025   1.965  11.329 -0.0076  1.0117 -0.4073
 5829TIP3    H138978   3.004   1.931  11.242  0.1650 -0.1186 -0.0311
 5829TIP3    H238979   2.996   1.896  11.389 -1.4081  2.3718  0.5413
 5830TIP3   OH238980   1.126   3.802   2.494  0.9066 -0.0890  0.1380
 5830TIP3    H138981   1.045   3.787   2.445  1.1170  0.0609 -0.2608
 5830TIP3    H238982   1.159   3.885   2.459  0.1289  0.9688  1.7764
 5831TIP3   OH238983   1.612   5.855   0.114  0.5042 -0.2922 -0.2022
 5831TIP3    H138984   1.627   5.902   0.196  0.2120 -1.0250  0.2841
 5831TIP3    H238985   1.689   5.873   0.061  0.6331  0.3008  0.1782
 5832TIP3   OH238986   2.189   5.467   4.049  0.6823 -0.2386 -0.4613
 5832TIP3    H138987   2.229   5.404   3.989 -2.0773  1.3263 -4.3645
 5832TIP3    H238988   2.146   5.413   4.116 -1.8063 -2.8012 -3.7696
 5833TIP3   OH238989   3.797   2.457  16.701 -0.1795  0.0647 -0.0897
 5833TIP3    H138990   3.825   2.388  16.641 -0.1131 -1.8271  1.9822
 5833TIP3    H238991   3.877   2.484  16.746 -0.6342 -0.6946  1.2279
 5834TIP3   OH238992   3.319   5.868  16.662  0.8039 -0.2996  0.2973
 5834TIP3    H138993   3.244   5.896  16.611  2.3360  0.6171 -1.5886
 5834TIP3    H238994   3.357   5.795  16.613  2.8484  1.2005 -0.5250
 5835TIP3   OH238995   4.053   1.821  12.618  0.0813  0.2446 -1.0809
 5835TIP3    H138996   4.051   1.884  12.689 -0.2918  1.1454 -1.8739
 5835TIP3    H238997   4.075   1.738  12.660 -0.0809  0.7696  0.0664
 5836TIP3   OH238998   1.419   0.659  15.996 -0.1576 -0.0930 -0.1864
 5836TIP3    H138999   1.467   0.718  15.938  3.0062 -1.4419  0.8179
 5836TIP3    H239000   1.452   0.572  15.973  0.3417 -0.7858  2.7617
 5837TIP3   OH239001   6.496   6.669  17.287  0.3809  0.6492  0.3437
 5837TIP3    H139002   6.467   6.654  17.377  0.3435  1.7218  0.5200
 5837TIP3    H239003   6.547   6.591  17.265 -0.2763  0.0152  1.0101
 5838TIP3   OH239004   4.952   0.411  15.403  0.1297  0.1287 -0.2757
 5838TIP3    H139005   4.939   0.396  15.309 -0.5352 -2.1558  0.1300
 5838TIP3    H239006   4.873   0.375  15.444  0.4791  0.9605  1.1898
 5839TIP3   OH239007   3.188   4.015  14.728  0.2227 -0.2169  0.5802
 5839TIP3    H139008   3.262   4.076  14.729  0.2494 -0.1891 -0.7208
 5839TIP3    H239009   3.223   3.937  14.685 -0.6805  0.0458 -0.6754
 5840TIP3   OH239010   4.613   0.006  13.485 -0.0068 -0.4611  0.2950
 5840TIP3    H139011   4.573   0.071  13.427  0.4894 -0.6499 -0.2701
 5840TIP3    H239012   4.564  -0.075  13.466 -1.0950 -0.1181  1.5032
 5841TIP3   OH239013   4.680   2.516   3.230  0.1237  0.2631 -0.2046
 5841TIP3    H139014   4.611   2.527   3.295 -0.0303 -0.4684 -0.2289
 5841TIP3    H239015   4.679   2.422   3.210  0.3237  0.4366 -1.0858
 5842TIP3   OH239016   3.906   4.067  15.295  0.1307 -0.1517  0.3311
 5842TIP3    H139017   3.942   3.979  15.290 -2.4362 -1.2010 -2.4391
 5842TIP3    H239018   3.842   4.063  15.366  0.2861 -0.3756  0.4594
 5843TIP3   OH239019   6.621   2.180  15.104 -0.3568  0.5912  0.4258
 5843TIP3    H139020   6.538   2.187  15.057  0.5030  1.0955 -1.0758
 5843TIP3    H239021   6.606   2.225  15.187 -1.2667  1.6242 -0.2808
 5844TIP3   OH239022   0.320   0.511   2.169 -0.4559  0.6101 -0.3840
 5844TIP3    H139023   0.273   0.450   2.112  0.6247 -1.4350  0.7914
 5844TIP3    H239024   0.360   0.455   2.235  1.9667  2.4558 -0.1810
 5845TIP3   OH239025   3.235   4.043   5.601  0.5354  0.5552  0.3924
 5845TIP3    H139026   3.168   3.994   5.649  0.1329  0.0519 -0.6452
 5845TIP3    H239027   3.230   4.008   5.511  2.2231  0.4582  0.3029
 5846TIP3   OH239028   6.410   1.424   5.660 -0.1944 -0.0322 -0.5153
 5846TIP3    H139029   6.398   1.490   5.728 -1.0434  1.1274 -1.7375
 5846TIP3    H239030   6.413   1.474   5.578  1.0855 -1.3639 -1.3215
 5847TIP3   OH239031   2.187   6.064  11.226  0.2523 -0.2916 -0.2522
 5847TIP3    H139032   2.282   6.065  11.235  0.3522  0.3717 -1.2685
 5847TIP3    H239033   2.162   6.156  11.223 -0.4915 -0.4492  0.4969
 5848TIP3   OH239034   5.055   2.904  11.238 -0.4475  0.5901 -0.0225
 5848TIP3    H139035   5.098   2.989  11.253 -1.8325  1.6544 -1.6472
 5848TIP3    H239036   5.062   2.891  11.144 -2.8751  0.4111 -0.2330
 5849TIP3   OH239037   6.200   5.034   0.733 -0.5916 -0.1674  0.0366
 5849TIP3    H139038   6.294   5.037   0.716 -0.7523  1.7512 -0.7854
 5849TIP3    H239039   6.185   5.101   0.800 -1.5196  0.5812 -0.8681
 5850TIP3   OH239040   3.387   3.955   1.780  0.5068 -0.4889  0.2398
 5850TIP3    H139041   3.327   4.016   1.823  2.5912  0.1303  2.5291
 5850TIP3    H239042   3.377   3.873   1.829  0.7485 -0.7071 -0.0687
 5851TIP3   OH239043   5.860   0.516   6.221 -0.6845 -0.0358 -0.2762
 5851TIP3    H139044   5.871   0.572   6.298 -0.3330  0.3581 -0.6091
 5851TIP3    H239045   5.949   0.489   6.198 -0.9288 -1.9298  0.7471
 5852TIP3   OH239046   2.938   5.210  14.733  0.2696  0.4007  0.1297
 5852TIP3    H139047   2.932   5.191  14.640 -2.1584  0.1264  0.2692
 5852TIP3    H239048   2.940   5.305  14.739  0.7776  0.4144 -0.1896
 5853TIP3   OH239049   3.932   5.659  13.850 -0.0814 -0.2760 -0.8727
 5853TIP3    H139050   3.886   5.735  13.885 -0.4304 -1.3236  1.0519
 5853TIP3    H239051   3.883   5.635  13.771 -1.2620  0.1790 -0.2911
 5854TIP3   OH239052   0.675   4.477  13.140  0.0916  0.2957 -0.0230
 5854TIP3    H139053   0.601   4.523  13.181  0.0791  1.0645 -0.8640
 5854TIP3    H239054   0.710   4.421  13.209 -2.5037 -1.6452 -0.1005
 5855TIP3   OH239055   1.432   4.171   5.129  0.6535 -0.6302  0.3755
 5855TIP3    H139056   1.487   4.247   5.150 -0.6251  0.4435 -0.0476
 5855TIP3    H239057   1.453   4.150   5.038 -0.8151  0.8684 -0.3619
 5856TIP3   OH239058   5.320   6.050  10.590 -0.2437 -0.5782 -0.6117
 5856TIP3    H139059   5.396   6.096  10.554 -0.4052  0.0953 -0.1294
 5856TIP3    H239060   5.347   5.959  10.597  0.4412 -0.3791 -0.6458
 5857TIP3   OH239061   3.450   1.050  16.731 -0.0069  0.3321  0.0995
 5857TIP3    H139062   3.508   1.118  16.697  1.5101  0.0988  2.0358
 5857TIP3    H239063   3.419   1.085  16.815  0.9933 -1.3859  1.2614
 5858TIP3   OH239064   3.238   2.709   2.851  0.5618  0.2364 -0.3259
 5858TIP3    H139065   3.296   2.671   2.784  0.4359  1.8218 -1.3772
 5858TIP3    H239066   3.297   2.731   2.923  0.7503 -1.1852 -0.0137
 5859TIP3   OH239067   1.864   2.233   4.855  0.4865  0.2095 -0.0618
 5859TIP3    H139068   1.944   2.279   4.828 -0.4996  1.1606 -1.5961
 5859TIP3    H239069   1.815   2.298   4.906 -0.1785  0.3608 -0.8517
 5860TIP3   OH239070   2.649   3.582  16.545  0.5402 -0.1405  0.2387
 5860TIP3    H139071   2.585   3.546  16.608  0.0002 -1.1297 -0.8357
 5860TIP3    H239072   2.606   3.574  16.460  1.3496  0.9753 -0.2959
 5861TIP3   OH239073   3.798   4.592  12.233 -0.0898 -0.3655 -0.0093
 5861TIP3    H139074   3.793   4.652  12.159 -0.7083  0.0579  0.3647
 5861TIP3    H239075   3.885   4.552  12.226  0.7246  1.2523  0.2471
 5862TIP3   OH239076   2.675   4.847  15.789 -0.3213  0.1397  0.0187
 5862TIP3    H139077   2.696   4.918  15.728  0.0612  0.9289  1.0290
 5862TIP3    H239078   2.727   4.773  15.759  0.4392  0.7404 -0.1834
 5863TIP3   OH239079   3.850   5.685   3.594 -0.1992 -1.0309  0.9629
 5863TIP3    H139080   3.823   5.616   3.533 -0.0611  1.2896 -1.9697
 5863TIP3    H239081   3.937   5.658   3.624  0.5275 -1.5149 -1.3175
 5864TIP3   OH239082   6.359   6.718  10.370 -0.2360 -0.4305 -0.7149
 5864TIP3    H139083   6.423   6.782  10.399 -0.2873 -0.4109 -0.6440
 5864TIP3    H239084   6.325   6.679  10.451  0.3054 -1.0474 -0.7784
 5865TIP3   OH239085   5.611   3.113   3.924  0.1453 -0.1002 -0.0565
 5865TIP3    H139086   5.602   3.084   4.015 -1.8228  0.6079  0.0337
 5865TIP3    H239087   5.703   3.138   3.915  0.9548 -2.4831  0.9937
 5866TIP3   OH239088   1.395   6.201   5.788  0.2586 -0.4394 -0.5577
 5866TIP3    H139089   1.306   6.164   5.791 -0.2969  0.9383  0.9693
 5866TIP3    H239090   1.389   6.283   5.837  2.7012 -0.9882  0.8203
 5867TIP3   OH239091   6.621   5.818  12.305  0.0747 -0.5829  0.3438
 5867TIP3    H139092   6.587   5.778  12.226 -0.7218 -2.1066  1.4134
 5867TIP3    H239093   6.600   5.911  12.296 -0.4531 -0.8153 -0.9899
 5868TIP3   OH239094   4.762   6.408  16.780 -0.0189  0.0776 -0.4537
 5868TIP3    H139095   4.779   6.324  16.823 -1.5217  0.1118  0.2461
 5868TIP3    H239096   4.670   6.404  16.756 -1.0458  2.7607  2.4307
 5869TIP3   OH239097   1.083   2.406  16.191  0.3170 -0.0703  0.5944
 5869TIP3    H139098   1.108   2.372  16.104  2.0797 -1.0667  1.4242
 5869TIP3    H239099   1.083   2.328  16.247  2.8391  0.9837  2.2183
 5870TIP3   OH239100   3.256   6.750  13.443 -0.2124  0.3880  0.7701
 5870TIP3    H139101   3.171   6.728  13.405 -1.2675  0.2053  3.0687
 5870TIP3    H239102   3.259   6.701  13.525  2.6120 -0.4627  0.2655
 5871TIP3   OH239103   6.441   4.481  13.965  0.3455  0.6108  0.6854
 5871TIP3    H139104   6.432   4.464  14.058 -1.8569 -0.0102  0.4277
 5871TIP3    H239105   6.474   4.571  13.959 -1.5449  1.4596  2.0730
 5872TIP3   OH239106   2.866   1.823  13.824 -0.1696  0.6409 -0.3883
 5872TIP3    H139107   2.780   1.797  13.858 -1.3795  3.6664 -0.7904
 5872TIP3    H239108   2.884   1.761  13.754 -1.3847 -0.8623  0.5763
 5873TIP3   OH239109   0.024   1.992  11.574 -0.2173  0.3921  0.0342
 5873TIP3    H139110  -0.066   1.967  11.554  0.5671 -1.6339 -1.3653
 5873TIP3    H239111   0.063   1.912  11.610  1.0545  1.2256  0.5811
 5874TIP3   OH239112   2.924   6.516  13.714 -0.2917  0.2380  0.8486
 5874TIP3    H139113   2.857   6.498  13.780  0.1130  0.6787  1.4006
 5874TIP3    H239114   2.921   6.611  13.703 -0.0565  0.2127  0.5637
 5875TIP3   OH239115   2.980   4.612   1.785 -0.2064 -0.2567 -0.2987
 5875TIP3    H139116   3.074   4.597   1.794 -0.1840  0.5386  1.2712
 5875TIP3    H239117   2.971   4.659   1.702  0.4337 -2.7594 -1.8666
 5876TIP3   OH239118   4.040   3.391  12.185 -0.2428 -0.2035  0.5522
 5876TIP3    H139119   3.966   3.342  12.149  0.2695 -0.1420 -0.6535
 5876TIP3    H239120   4.076   3.439  12.110 -0.6411  1.9423  1.6549
 5877TIP3   OH239121   1.195   5.622  12.596  0.0155 -0.1235  0.2042
 5877TIP3    H139122   1.106   5.614  12.562  0.8191  0.1626 -2.1750
 5877TIP3    H239123   1.240   5.545  12.561  1.2900  1.0086 -0.7235
 5878TIP3   OH239124   5.247   5.984   6.069 -0.0622 -0.6156 -0.4439
 5878TIP3    H139125   5.307   5.910   6.073 -1.0566 -1.5351 -1.6126
 5878TIP3    H239126   5.232   5.998   5.976 -0.2511  0.7819 -0.2298
 5879TIP3   OH239127   4.237   0.768  13.232  0.4727  0.4242  0.0638
 5879TIP3    H139128   4.151   0.807  13.219  0.8519  1.3654  0.2914
 5879TIP3    H239129   4.226   0.709  13.307 -0.4054 -0.9056 -1.0460
 5880TIP3   OH239130   5.226   4.235   1.259  0.0563 -0.3211 -0.2269
 5880TIP3    H139131   5.143   4.215   1.215  1.4159 -1.5047 -2.4181
 5880TIP3    H239132   5.206   4.309   1.316 -2.6796 -1.0719 -0.0616
 5881TIP3   OH239133   6.204   3.382   3.952 -0.5703 -0.5732 -0.2444
 5881TIP3    H139134   6.235   3.449   3.891 -2.9759  0.9274  0.0465
 5881TIP3    H239135   6.226   3.417   4.038 -2.1050  0.0597 -0.0782
 5882TIP3   OH239136   4.343   1.514  15.556 -0.1459 -0.5027  0.0205
 5882TIP3    H139137   4.417   1.575  15.554  0.4872 -1.2738 -1.1380
 5882TIP3    H239138   4.271   1.565  15.595 -0.1368  1.5733 -2.3904
 5883TIP3   OH239139   3.885   2.238  13.498  0.0546 -0.1323 -0.1408
 5883TIP3    H139140   3.865   2.308  13.559 -0.0409 -0.4759  0.2280
 5883TIP3    H239141   3.966   2.265  13.456  0.7321 -0.4088  0.9494
 5884TIP3   OH239142   4.573   3.885   0.208 -0.0219 -1.1984  0.6412
 5884TIP3    H139143   4.652   3.845   0.243  1.8763  0.5147 -1.3430
 5884TIP3    H239144   4.591   3.979   0.209 -0.7123 -0.8896 -2.5971
 5885TIP3   OH239145   5.936   1.069  12.158 -0.4817 -0.1102  0.5151
 5885TIP3    H139146   5.878   0.996  12.140 -0.9944  0.0640  1.4198
 5885TIP3    H239147   5.992   1.075  12.080 -0.5993 -1.2920  0.3209
 5886TIP3   OH239148   0.295   3.726  11.169  0.1327  0.0030 -0.3899
 5886TIP3    H139149   0.208   3.731  11.129 -1.2000 -0.9623  2.1640
 5886TIP3    H239150   0.304   3.634  11.195  1.2777  0.4038  0.7237
 5887TIP3   OH239151   1.720   6.084   5.025  0.0623 -0.4183 -0.0485
 5887TIP3    H139152   1.742   6.177   5.028  2.0918 -0.8509 -0.2491
 5887TIP3    H239153   1.640   6.077   5.078 -0.7826  1.5709 -0.9475
 5888TIP3   OH239154   4.288   5.929  11.668  0.4892  0.2707  0.0029
 5888TIP3    H139155   4.305   5.879  11.588  0.4667  0.5751 -0.1935
 5888TIP3    H239156   4.370   5.923  11.718  0.3068 -0.4136  0.2315
 5889TIP3   OH239157   6.387   6.324   4.523  0.3783  0.1763 -0.5479
 5889TIP3    H139158   6.303   6.355   4.489 -0.3056 -0.7822  0.2394
 5889TIP3    H239159   6.376   6.323   4.618  1.8380  1.5861 -0.3084
 5890TIP3   OH239160   2.301   3.802  12.684 -0.5305  0.3576 -0.3593
 5890TIP3    H139161   2.251   3.721  12.697 -0.7759  0.4148 -0.9121
 5890TIP3    H239162   2.323   3.802  12.591  0.2467  0.4860 -0.1808
 5891TIP3   OH239163   5.784   3.979   1.410 -0.5236 -0.3056 -0.0117
 5891TIP3    H139164   5.828   4.044   1.466  1.9726 -0.3751 -1.7456
 5891TIP3    H239165   5.774   3.902   1.466  0.6931  0.0657  0.7706
 5892TIP3   OH239166   3.629   1.228  13.665  0.5331 -0.7673 -0.1408
 5892TIP3    H139167   3.688   1.166  13.622  0.0556 -0.8642 -0.6688
 5892TIP3    H239168   3.559   1.174  13.701 -0.2336 -0.5050 -1.1682
 5893TIP3   OH239169   3.168   6.787  16.715  0.1559 -0.2848 -0.1101
 5893TIP3    H139170   3.106   6.834  16.771 -0.7926  0.1396 -1.4790
 5893TIP3    H239171   3.249   6.785  16.766 -0.1189  1.7747  0.5041
 5894TIP3   OH239172   6.555   3.282  12.588 -0.7245 -0.8353  0.5659
 5894TIP3    H139173   6.633   3.274  12.642 -1.1835 -1.3129  1.1706
 5894TIP3    H239174   6.535   3.192  12.561 -1.2833 -0.7594  0.7261
 5895TIP3   OH239175   1.263   4.759  12.241 -0.5061 -0.1356 -0.1531
 5895TIP3    H139176   1.272   4.668  12.269 -1.5522 -0.5627 -1.1379
 5895TIP3    H239177   1.241   4.807  12.321  0.3944 -0.6812  0.4343
 5896TIP3   OH239178   3.482   0.567  14.182 -0.0180 -0.7598 -0.3832
 5896TIP3    H139179   3.549   0.507  14.149 -0.3144 -2.2085  1.4022
 5896TIP3    H239180   3.410   0.561  14.119  0.9707 -0.2577 -1.5812
 5897TIP3   OH239181   5.182   3.250   1.899 -0.0705 -0.0648  0.0664
 5897TIP3    H139182   5.224   3.326   1.938 -2.5074  0.8841  0.9810
 5897TIP3    H239183   5.169   3.189   1.972  1.0288 -1.0143 -0.4904
 5898TIP3   OH239184   6.764   0.627   1.285  0.3798 -0.4788  0.4804
 5898TIP3    H139185   6.780   0.597   1.375 -1.2007 -2.5462  0.1675
 5898TIP3    H239186   6.812   0.564   1.230  0.6199  0.2373 -0.1429
 5899TIP3   OH239187   6.038   2.291  13.368  0.2844 -0.0739  0.1810
 5899TIP3    H139188   6.085   2.233  13.309  1.9060  1.1259  0.2197
 5899TIP3    H239189   6.072   2.268  13.455 -1.0350 -0.8481  0.5237
 5900TIP3   OH239190   5.639   4.818  17.198 -0.2881 -0.7661 -0.3489
 5900TIP3    H139191   5.722   4.832  17.152  0.2682 -0.5540  0.6853
 5900TIP3    H239192   5.572   4.834  17.133  0.3943  2.1375 -0.4515
 5901TIP3   OH239193   5.175   0.258   0.525 -0.0738 -0.2533 -0.3142
 5901TIP3    H139194   5.096   0.286   0.479  0.2870  0.6619 -0.3868
 5901TIP3    H239195   5.158   0.279   0.617 -0.6321 -1.7180 -0.0424
 5902TIP3   OH239196   0.427   3.877  15.183 -0.2203 -0.1242  0.1353
 5902TIP3    H139197   0.431   3.894  15.089  0.1749 -0.0657  0.1629
 5902TIP3    H239198   0.360   3.937  15.216 -0.8066 -0.5752 -0.2034
 5903TIP3   OH239199   4.920   3.056  17.200 -0.1551  1.0464  0.1927
 5903TIP3    H139200   4.872   3.129  17.241 -0.3123  1.8747 -1.3926
 5903TIP3    H239201   4.970   3.097  17.130  1.4569 -0.0963  0.6345
 5904TIP3   OH239202   6.778   2.715   5.647 -0.0431  0.3068 -0.2318
 5904TIP3    H139203   6.824   2.701   5.564 -2.5180  0.3356 -1.7104
 5904TIP3    H239204   6.706   2.773   5.624 -1.1832 -0.2304  1.8263
 5905TIP3   OH239205   4.490   5.175  13.385  0.3124  0.8736 -0.4948
 5905TIP3    H139206   4.533   5.198  13.468 -2.4024  1.2263  0.9516
 5905TIP3    H239207   4.472   5.081  13.393  0.2180  0.8672 -0.7744
 5906TIP3   OH239208   1.142   3.468  13.297 -0.7583  0.0083 -0.1097
 5906TIP3    H139209   1.204   3.518  13.244  0.1232 -1.6734 -0.7158
 5906TIP3    H239210   1.133   3.519  13.378 -0.4017  1.4612 -0.9489
 5907TIP3   OH239211   6.596   3.246   5.671 -0.0749 -0.1022 -0.7613
 5907TIP3    H139212   6.594   3.224   5.578  1.9535  0.3884 -0.9705
 5907TIP3    H239213   6.534   3.184   5.712 -0.0487 -1.1666 -2.2665
 5908TIP3   OH239214   0.427   4.753   5.191 -0.4265 -0.0531  0.1500
 5908TIP3    H139215   0.488   4.695   5.235 -3.1292 -1.5518  2.1814
 5908TIP3    H239216   0.426   4.833   5.244 -0.9641 -0.4447  0.7478
 5909TIP3   OH239217   5.557   3.415   4.545  0.3331  0.4661 -0.0526
 5909TIP3    H139218   5.551   3.366   4.463  0.1841  0.0929  0.1798
 5909TIP3    H239219   5.510   3.361   4.609  0.8750  0.5100  0.3932
 5910TIP3   OH239220   0.380   6.231  15.374 -0.4178  0.0059  0.1396
 5910TIP3    H139221   0.346   6.320  15.380 -1.2166 -0.3589  1.5336
 5910TIP3    H239222   0.441   6.224  15.448  0.7700 -0.1616 -0.8279
 5911TIP3   OH239223   0.857   1.256  15.805  0.1643  0.2429  1.1821
 5911TIP3    H139224   0.844   1.198  15.880 -2.3183 -0.7251  0.1129
 5911TIP3    H239225   0.775   1.305  15.798  0.2735  0.2161 -0.9644
 5912TIP3   OH239226   6.764   2.056  13.117  0.3770 -0.4359  0.1410
 5912TIP3    H139227   6.683   2.019  13.082  0.2449 -0.7361  0.7357
 5912TIP3    H239228   6.788   2.125  13.056 -0.8672  0.3276  0.4871
 5913TIP3   OH239229   6.363   1.211  12.693  0.0833  0.8995  0.1630
 5913TIP3    H139230   6.453   1.214  12.726  0.4535  2.0171 -0.8723
 5913TIP3    H239231   6.362   1.136  12.634  0.7813  1.7479 -0.9709
 5914TIP3   OH239232   5.006   0.250   5.695  0.2745  0.2182  0.4486
 5914TIP3    H139233   5.090   0.296   5.693  0.0837  0.6008  0.9881
 5914TIP3    H239234   5.030   0.159   5.713  0.6199  0.1913 -0.1174
 5915TIP3   OH239235   5.975   4.239   4.954  0.3417 -0.0743  0.4250
 5915TIP3    H139236   6.006   4.232   4.864 -1.4363 -1.8492 -0.1181
 5915TIP3    H239237   6.052   4.216   5.007  1.5511  1.5297 -0.5706
 5916TIP3   OH239238   0.819   1.732  16.552 -0.0507  0.4696 -0.1014
 5916TIP3    H139239   0.865   1.730  16.468  2.8601 -0.8183  1.3707
 5916TIP3    H239240   0.851   1.812  16.594  2.5310 -1.3013  1.6503
 5917TIP3   OH239241   1.936   5.877  12.963  0.2163 -0.2542  0.3785
 5917TIP3    H139242   1.991   5.864  13.040 -0.9221  0.8496  1.4182
 5917TIP3    H239243   1.853   5.834  12.986 -0.5863  1.2288  0.3380
 5918TIP3   OH239244   5.826   3.998  14.282  0.6791  0.6294  0.1858
 5918TIP3    H139245   5.757   3.984  14.346  0.5906  0.0289 -0.0361
 5918TIP3    H239246   5.826   4.092  14.267 -0.7910  0.5322 -0.5898
 5919TIP3   OH239247   2.004   5.714   0.918  0.4443  0.4302 -0.8118
 5919TIP3    H139248   1.932   5.658   0.949 -1.0470  1.1771 -2.7108
 5919TIP3    H239249   2.062   5.655   0.869  0.7610 -0.0478  0.1189
 5920TIP3   OH239250   2.992   1.909   4.127  0.2723  0.1376  0.7754
 5920TIP3    H139251   2.952   1.822   4.124  0.0960  0.1437  2.3738
 5920TIP3    H239252   3.030   1.920   4.039  2.2055 -2.4421  1.1501
 5921TIP3   OH239253   4.821   2.492  11.585 -0.7723  0.5367 -0.9866
 5921TIP3    H139254   4.818   2.479  11.490 -0.2763  2.4173 -1.2897
 5921TIP3    H239255   4.735   2.464  11.616 -0.6203 -0.9785 -1.8508
 5922TIP3   OH239256   0.629   6.760  11.244 -0.1946  0.6917  0.4149
 5922TIP3    H139257   0.707   6.814  11.256 -0.5611  1.1825  0.6210
 5922TIP3    H239258   0.603   6.775  11.153 -1.4132  2.4128  0.9877
 5923TIP3   OH239259   5.427   0.169  14.176  0.1808 -0.2587  0.0205
 5923TIP3    H139260   5.460   0.094  14.226 -0.6931  0.6765  2.1253
 5923TIP3    H239261   5.337   0.145  14.153  0.5890 -0.6955 -1.1701
 5924TIP3   OH239262   3.794   4.248   3.610 -0.5202  0.1509  0.0759
 5924TIP3    H139263   3.729   4.218   3.674 -0.3355  1.5681  0.9680
 5924TIP3    H239264   3.878   4.227   3.651 -0.3902 -0.7083 -0.6013
 5925TIP3   OH239265   1.202   3.716  16.302  0.2506 -0.7516  0.3881
 5925TIP3    H139266   1.218   3.805  16.332  1.6469 -0.8573  0.0199
 5925TIP3    H239267   1.283   3.690  16.258 -0.3374 -1.9971 -0.0146
 5926TIP3   OH239268   0.149   0.906  11.888 -0.0196 -0.3104  0.2636
 5926TIP3    H139269   0.219   0.848  11.857 -0.8032 -1.3525  0.3585
 5926TIP3    H239270   0.159   0.986  11.836  2.1191  0.1654  1.3012
 5927TIP3   OH239271   0.109   1.135  13.356  0.2489  0.0872 -0.2324
 5927TIP3    H139272   0.163   1.142  13.278  1.6110  0.4747  0.7187
 5927TIP3    H239273   0.141   1.203  13.415 -2.4357  1.5377 -0.2871
 5928TIP3   OH239274   5.590   1.542   5.873 -0.1195  0.1243  0.5926
 5928TIP3    H139275   5.614   1.531   5.965  2.1575  1.5422  0.2367
 5928TIP3    H239276   5.516   1.603   5.874 -0.0669  0.1830  1.4575
 5929TIP3   OH239277   5.736   5.527  17.260 -0.3801 -0.4433 -0.2268
 5929TIP3    H139278   5.780   5.468  17.199 -0.9954 -0.9213 -0.2182
 5929TIP3    H239279   5.769   5.614  17.237  0.0958 -0.7212 -0.6236
 5930TIP3   OH239280   3.966   3.475   0.825 -0.0054  0.1528  0.3901
 5930TIP3    H139281   3.991   3.526   0.901  0.7389  1.2590 -0.5698
 5930TIP3    H239282   3.923   3.537   0.766 -0.4875 -0.6586 -0.1480
 5931TIP3   OH239283   1.899   3.319  11.015  0.4324 -0.2629 -0.1024
 5931TIP3    H139284   1.946   3.334  11.098  1.2548  0.4754 -0.6772
 5931TIP3    H239285   1.863   3.405  10.993 -0.9428 -0.7577  0.1584
 5932TIP3   OH239286   5.929   6.356   0.736 -0.5991  0.2159 -0.4479
 5932TIP3    H139287   5.888   6.270   0.735 -0.3870  0.0158  1.6775
 5932TIP3    H239288   5.859   6.417   0.711 -1.0146 -0.4730 -0.9920
 5933TIP3   OH239289   3.078   1.326  13.044  0.1064 -0.6853  0.1735
 5933TIP3    H139290   3.164   1.291  13.024  0.1802 -0.1058 -0.5652
 5933TIP3    H239291   3.026   1.250  13.071  0.5681 -1.1924 -0.3450
 5934TIP3   OH239292   6.477   0.686   1.525  0.3623 -0.1520 -0.2341
 5934TIP3    H139293   6.420   0.609   1.525 -2.0694  1.5512  0.0291
 5934TIP3    H239294   6.513   0.690   1.613  1.2307 -1.4047 -0.4901
 5935TIP3   OH239295   6.039   4.523  10.478  0.3643  0.0220 -0.2592
 5935TIP3    H139296   6.024   4.464  10.551  0.5367  1.0253  0.6100
 5935TIP3    H239297   6.049   4.609  10.518 -1.4972  0.9404 -1.5775
 5936TIP3   OH239298   3.035   2.406   4.240 -0.0486 -0.2730  0.3090
 5936TIP3    H139299   3.123   2.444   4.240 -0.0663 -0.2303  0.5935
 5936TIP3    H239300   3.020   2.382   4.149  0.0321  0.2432  0.1549
 5937TIP3   OH239301   2.273   2.479   5.112 -0.2539 -0.5868  0.2624
 5937TIP3    H139302   2.254   2.501   5.203 -2.1104  0.4213 -0.3161
 5937TIP3    H239303   2.306   2.561   5.074  0.7045 -1.0550  0.0514
 5938TIP3   OH239304   0.641   1.589  13.011  0.1520 -0.0461 -0.3059
 5938TIP3    H139305   0.608   1.673  12.979 -1.2854 -1.0283 -1.5568
 5938TIP3    H239306   0.584   1.567  13.085 -0.0722 -0.3284 -0.5569
 5939TIP3   OH239307   0.090   2.585  12.593 -0.4885  0.2723  0.6305
 5939TIP3    H139308   0.009   2.633  12.612 -0.2909  0.7693  0.2343
 5939TIP3    H239309   0.108   2.604  12.501  0.7993  1.2493  1.0535
 5940TIP3   OH239310   2.509   1.550  16.838 -0.3523 -0.1749 -0.5226
 5940TIP3    H139311   2.546   1.638  16.834  2.5596 -1.2270  0.7792
 5940TIP3    H239312   2.453   1.552  16.916 -0.7567  0.6516 -0.8223
 5941TIP3   OH239313   6.038   5.355  13.902  0.4262  0.1652  0.0607
 5941TIP3    H139314   6.101   5.293  13.938  0.0301  0.9134  2.1525
 5941TIP3    H239315   5.953   5.325  13.936 -0.4843 -0.9208 -2.8184
 5942TIP3   OH239316   1.152   5.213  15.638  0.0293  0.0731 -0.0437
 5942TIP3    H139317   1.186   5.133  15.598 -0.3690 -0.3798  0.5031
 5942TIP3    H239318   1.222   5.276  15.629  0.5851 -0.5185  0.0721
 5943TIP3   OH239319   0.916   6.716   5.490 -0.2277 -0.5448  0.1218
 5943TIP3    H139320   1.004   6.753   5.497 -0.9328  1.0013  1.3235
 5943TIP3    H239321   0.869   6.752   5.564 -1.9440 -1.1992 -0.6046
 5944TIP3   OH239322   6.174   1.568   4.983  0.0379  0.5421  0.0186
 5944TIP3    H139323   6.087   1.591   5.016 -0.5100 -1.7563  0.3262
 5944TIP3    H239324   6.164   1.569   4.888 -0.0887  1.0273  0.0308
 5945TIP3   OH239325   1.156   5.818   1.305  0.2246  0.2071  0.2519
 5945TIP3    H139326   1.207   5.784   1.378  1.6534 -0.8740 -1.1752
 5945TIP3    H239327   1.171   5.756   1.234 -0.6239  1.5222 -1.1552
 5946TIP3   OH239328   1.021   0.614  16.801  0.2104  0.3548  0.2438
 5946TIP3    H139329   0.940   0.582  16.762  0.1003 -0.4596  1.0976
 5946TIP3    H239330   1.004   0.613  16.895  1.9926 -2.1963  0.6470
 5947TIP3   OH239331   1.022   3.034  11.665 -0.2962 -0.3211  0.1746
 5947TIP3    H139332   0.942   2.981  11.660  0.8271 -2.0932  0.2297
 5947TIP3    H239333   1.048   3.046  11.574  0.2980 -1.2520  0.2068
 5948TIP3   OH239334   4.016   3.498  14.200 -0.3840 -0.3281  0.2647
 5948TIP3    H139335   4.068   3.557  14.254 -0.0619 -1.1799  0.9074
 5948TIP3    H239336   3.954   3.458  14.261 -1.0140 -0.1974 -0.2777
 5949TIP3   OH239337   4.151   6.495  15.239 -0.3515  0.0084 -0.1301
 5949TIP3    H139338   4.077   6.542  15.201 -0.2894 -0.4931 -0.8723
 5949TIP3    H239339   4.111   6.439  15.306 -0.6670 -0.3470 -0.6058
 5950TIP3   OH239340   4.270   2.548   3.103  0.1752 -0.0264  0.0987
 5950TIP3    H139341   4.235   2.499   3.177  0.1682 -0.5890 -0.2769
 5950TIP3    H239342   4.280   2.637   3.137  0.9442 -0.4430  1.0316
 5951TIP3   OH239343   1.584   0.789   4.652  0.0165 -0.4773  0.9878
 5951TIP3    H139344   1.648   0.778   4.723  0.2565  1.5384  1.1678
 5951TIP3    H239345   1.500   0.770   4.693  0.3417 -1.5934  1.1732
 5952TIP3   OH239346   3.317   6.608   3.243 -0.3044 -0.5078 -0.3623
 5952TIP3    H139347   3.340   6.524   3.205 -0.3953  0.1351 -1.9221
 5952TIP3    H239348   3.401   6.654   3.252  0.1525 -1.7187  3.1427
 5953TIP3   OH239349   2.182   0.193  14.902  0.8352 -0.0830  0.0788
 5953TIP3    H139350   2.121   0.122  14.883  0.5906 -0.2069  1.2079
 5953TIP3    H239351   2.244   0.193  14.830  0.7556 -1.3568 -0.0030
 5954TIP3   OH239352   6.140   1.740   2.349 -0.4673 -0.1672 -0.6775
 5954TIP3    H139353   6.046   1.759   2.360 -0.0837  1.2274  0.4868
 5954TIP3    H239354   6.174   1.737   2.439  0.7173 -0.0589 -1.1157
 5955TIP3   OH239355   4.735   3.935  12.114 -0.7942  0.1019  0.0395
 5955TIP3    H139356   4.678   3.928  12.190 -1.6077 -0.5817 -0.6066
 5955TIP3    H239357   4.820   3.963  12.149 -1.2038 -0.0242  1.1565
 5956TIP3   OH239358   0.075   1.583  12.040  0.0296  0.3185  0.0074
 5956TIP3    H139359   0.032   1.588  12.125 -0.0747 -0.6990  0.0345
 5956TIP3    H239360   0.155   1.532  12.056  0.2467  0.5166 -0.4137
 5957TIP3   OH239361   5.658   6.353   1.120 -0.1129  0.5737  0.7468
 5957TIP3    H139362   5.745   6.358   1.081 -1.0552  0.4715 -1.5208
 5957TIP3    H239363   5.647   6.436   1.165  1.3163  0.4018  1.4736
 5958TIP3   OH239364   0.262   3.934  12.679  0.1300 -0.4593  0.2362
 5958TIP3    H139365   0.270   3.927  12.584  0.2553 -0.0663  0.2184
 5958TIP3    H239366   0.177   3.894  12.699  1.2293 -2.9782  0.2522
 5959TIP3   OH239367   5.266   6.602   2.171 -0.0867  0.0522 -0.1148
 5959TIP3    H139368   5.216   6.541   2.116 -0.6907  0.3325  0.1108
 5959TIP3    H239369   5.276   6.557   2.254  2.3843 -1.1305 -0.9601
 5960TIP3   OH239370   3.786   1.839   4.124  0.2940 -0.9591  0.1367
 5960TIP3    H139371   3.813   1.884   4.044  0.4022 -0.5443  0.4057
 5960TIP3    H239372   3.691   1.831   4.116  0.4487 -2.3383 -0.7652
 5961TIP3   OH239373   6.516   5.439  14.149 -0.5221  0.4714 -0.2705
 5961TIP3    H139374   6.442   5.474  14.200 -1.4856 -1.1391 -0.4849
 5961TIP3    H239375   6.566   5.517  14.124 -1.0139  1.4524  1.5893
 5962TIP3   OH239376   0.358   4.905  10.941  0.8062 -0.1452 -0.4611
 5962TIP3    H139377   0.349   4.839  10.872 -1.1937  0.7853 -1.1757
 5962TIP3    H239378   0.355   4.989  10.894 -0.9046  0.5140  0.7361
 5963TIP3   OH239379   5.750   0.127   5.367  0.3190 -0.2129  0.4902
 5963TIP3    H139380   5.682   0.191   5.389 -1.0381 -1.7967  1.0937
 5963TIP3    H239381   5.769   0.083   5.450  2.1863  0.2393  0.3500
 5964TIP3   OH239382   2.924   0.212   2.944  0.5901  0.0426  1.1721
 5964TIP3    H139383   3.014   0.200   2.975  0.5318  0.1738  1.3972
 5964TIP3    H239384   2.926   0.187   2.852  0.3950 -2.0553  1.6913
 5965TIP3   OH239385   2.159   5.679  15.712 -0.4505 -0.5437  0.4587
 5965TIP3    H139386   2.145   5.719  15.798  0.3105  0.2876  0.1987
 5965TIP3    H239387   2.199   5.594  15.732 -0.2640 -0.3509  0.9153
 5966TIP3   OH239388   2.425   4.052  16.793  0.3607 -0.2607  0.3447
 5966TIP3    H139389   2.340   4.009  16.793  0.3940 -0.5382 -2.8194
 5966TIP3    H239390   2.488   3.981  16.798  0.4574 -0.1277  1.3325
 5967TIP3   OH239391   1.410   0.505  15.329  0.1338 -0.3111 -0.0330
 5967TIP3    H139392   1.338   0.448  15.354 -0.0497 -0.2628 -0.4514
 5967TIP3    H239393   1.459   0.520  15.411 -0.6601  0.1382  0.3680
 5968TIP3   OH239394   2.174   2.809  13.903 -0.3272  0.1164  0.0345
 5968TIP3    H139395   2.168   2.835  13.995 -0.0415  1.0419 -0.1928
 5968TIP3    H239396   2.247   2.747  13.899 -0.3580  0.0553  0.4368
 5969TIP3   OH239397   2.077   1.932   2.601 -0.1810 -0.4958 -0.4149
 5969TIP3    H139398   2.151   1.936   2.540 -0.7822 -0.9774 -1.1996
 5969TIP3    H239399   2.110   1.878   2.674  0.9453  1.0794  0.3003
 5970TIP3   OH239400   3.050   5.000   4.168  0.3746 -0.1551 -0.0837
 5970TIP3    H139401   3.076   5.001   4.260 -0.6835  1.1616  0.2412
 5970TIP3    H239402   3.126   4.967   4.122  0.9455 -0.7998  1.2638
 5971TIP3   OH239403   2.171   5.582   0.750 -0.2124 -0.0648 -0.1940
 5971TIP3    H139404   2.155   5.548   0.662  0.8171 -1.5326  0.1624
 5971TIP3    H239405   2.231   5.656   0.736  1.6673 -1.5955 -0.5953
 5972TIP3   OH239406   5.517   3.452  16.805  0.0668 -0.3124  0.3558
 5972TIP3    H139407   5.436   3.472  16.757  0.6242 -0.9545 -0.8859
 5972TIP3    H239408   5.487   3.399  16.879 -0.4826 -2.3572 -1.2357
 5973TIP3   OH239409   0.326   5.957  14.330  0.6927 -0.4242  0.1514
 5973TIP3    H139410   0.252   6.018  14.326  1.7845  0.9402  0.0291
 5973TIP3    H239411   0.351   5.957  14.422  0.4015 -1.0804  0.2372
 5974TIP3   OH239412   6.128   1.966  14.222  0.0981  0.5299 -0.3417
 5974TIP3    H139413   6.062   1.953  14.153  1.6323 -0.0734 -1.7576
 5974TIP3    H239414   6.169   2.049  14.200 -0.0741  0.8395  0.4607
 5975TIP3   OH239415   5.143   1.110  16.669  0.2327  0.0781 -0.6910
 5975TIP3    H139416   5.060   1.095  16.625 -1.4412  0.8430  1.9706
 5975TIP3    H239417   5.157   1.032  16.723 -0.1671  1.0066  0.8370
 5976TIP3   OH239418   5.786   1.742  15.964  0.3420 -0.7129  0.2243
 5976TIP3    H139419   5.873   1.705  15.951  0.5592 -0.7747  1.6159
 5976TIP3    H239420   5.778   1.750  16.059 -0.0186  2.0288  0.0576
 5977TIP3   OH239421   0.498   0.078  15.869  0.1548 -0.2696  0.0747
 5977TIP3    H139422   0.495   0.115  15.957 -0.4321 -0.7592  0.2646
 5977TIP3    H239423   0.551  -0.001  15.878 -0.6761 -0.8234  0.1843
 5978TIP3   OH239424   0.381   5.428   5.233 -0.4641 -0.1644 -0.2110
 5978TIP3    H139425   0.408   5.448   5.144  1.9011  2.8630  0.9831
 5978TIP3    H239426   0.301   5.478   5.246 -1.8971 -2.1156 -1.1090
 5979TIP3   OH239427   0.483   6.101   1.887  0.3029 -0.0747 -0.0667
 5979TIP3    H139428   0.445   6.092   1.975 -0.2063  0.2247 -0.2537
 5979TIP3    H239429   0.503   6.194   1.879  1.5886 -0.2998  0.2295
 5980TIP3   OH239430   2.983   3.264   5.373  0.0194 -0.0332 -0.0495
 5980TIP3    H139431   3.040   3.200   5.416  0.0192 -0.6735 -0.9847
 5980TIP3    H239432   2.977   3.337   5.436  0.1378 -0.8744  0.9663
 5981TIP3   OH239433   3.877   2.291  13.858 -0.5735 -0.5488  0.3247
 5981TIP3    H139434   3.881   2.335  13.773  0.2128 -1.9792 -0.3962
 5981TIP3    H239435   3.799   2.235  13.852  1.2094 -3.1013 -0.7379
 5982TIP3   OH239436   1.926   2.993   4.830 -0.9476  0.3940  0.5319
 5982TIP3    H139437   1.888   3.022   4.912 -1.8983 -0.2190  0.3277
 5982TIP3    H239438   2.019   2.979   4.850 -1.2974 -0.4404  1.7009
 5983TIP3   OH239439   2.408   0.862  12.736 -1.1832 -0.4054 -0.2336
 5983TIP3    H139440   2.428   0.783  12.786 -0.0469 -0.6486 -1.0438
 5983TIP3    H239441   2.378   0.925  12.802  0.2688 -0.7227  0.7689
 5984TIP3   OH239442   4.508   1.240  12.691  0.1535 -0.0368  0.3029
 5984TIP3    H139443   4.452   1.311  12.660  0.7229 -0.3179 -1.4644
 5984TIP3    H239444   4.579   1.235  12.627  0.2720 -2.0249  0.5152
 5985TIP3   OH239445   3.689   5.792   0.538 -0.1988  0.5855  0.3454
 5985TIP3    H139446   3.641   5.851   0.479  3.7301  0.7915 -3.1974
 5985TIP3    H239447   3.695   5.710   0.489  0.4034 -0.4075  2.0180
 5986TIP3   OH239448   3.939   4.929  12.933  0.0008 -0.0326  0.1100
 5986TIP3    H139449   3.907   4.979  12.858 -1.2751 -0.6426  0.2196
 5986TIP3    H239450   3.861   4.886  12.968  0.9120 -1.3548  0.5807
 5987TIP3   OH239451   1.539   6.606  13.959 -0.5490 -0.6167 -0.3733
 5987TIP3    H139452   1.504   6.662  13.890 -1.8035 -0.4513  0.3593
 5987TIP3    H239453   1.575   6.667  14.023  0.3449 -0.7616 -0.7152
 5988TIP3   OH239454   5.241   5.263   6.326 -0.1910 -0.0511 -0.1128
 5988TIP3    H139455   5.185   5.285   6.252 -1.6836 -0.9984  0.6914
 5988TIP3    H239456   5.214   5.323   6.396 -0.7618 -1.0387  0.5244
 5989TIP3   OH239457   1.346   0.773   4.775  0.1501  0.1786 -0.3730
 5989TIP3    H139458   1.312   0.858   4.804  3.3739  2.0216 -1.4499
 5989TIP3    H239459   1.307   0.759   4.689  0.4674  1.1985 -0.6946
 5990TIP3   OH239460   3.245   0.130  17.152  0.2330  0.1872  0.0379
 5990TIP3    H139461   3.252   0.040  17.120 -2.0740 -0.0220 -0.0917
 5990TIP3    H239462   3.300   0.181  17.092  1.5607 -1.1141  0.1105
 5991TIP3   OH239463   5.171   6.558   0.717 -0.0503  0.0787 -0.2233
 5991TIP3    H139464   5.219   6.633   0.680  0.2248 -0.2240 -0.4857
 5991TIP3    H239465   5.153   6.584   0.807  1.0046  0.0298  0.0211
 5992TIP3   OH239466   3.431   1.088  13.789  0.1787 -0.3167  0.2961
 5992TIP3    H139467   3.459   1.007  13.748  0.6135 -0.7055  1.3230
 5992TIP3    H239468   3.336   1.085  13.787  0.1634 -1.4686  1.4497
 5993TIP3   OH239469   5.091   4.520  12.673  0.1115  0.4482 -0.0820
 5993TIP3    H139470   5.185   4.504  12.667  0.2789  0.0966  2.2816
 5993TIP3    H239471   5.074   4.588  12.609  2.2321  1.4026  0.2812
 5994TIP3   OH239472   6.049   4.957  16.581 -0.0694  0.1155  0.1939
 5994TIP3    H139473   6.026   4.981  16.492  0.9474  0.2579 -0.0475
 5994TIP3    H239474   6.128   5.007  16.600  0.0014 -0.2724  1.0030
 5995TIP3   OH239475   1.613   5.223  12.141 -0.0539  0.3085 -0.8197
 5995TIP3    H139476   1.592   5.252  12.052 -0.2591  1.7363 -0.3346
 5995TIP3    H239477   1.555   5.148  12.155 -0.2459  0.2561 -1.7749
 5996TIP3   OH239478   3.643   4.958  11.020 -0.3837 -0.5936 -0.0839
 5996TIP3    H139479   3.586   4.933  10.948 -1.7231  1.9717 -0.0271
 5996TIP3    H239480   3.629   5.052  11.030  3.1102 -0.0213  0.6491
 5997TIP3   OH239481   0.656   5.039   4.289  0.2222  0.2751 -0.1661
 5997TIP3    H139482   0.611   5.035   4.374  0.6354 -0.5018  0.0286
 5997TIP3    H239483   0.616   4.968   4.238 -0.6259  1.2673 -0.9443
 5998TIP3   OH239484   2.419   2.402   0.518 -0.1270  0.1557 -0.3621
 5998TIP3    H139485   2.382   2.487   0.493  1.1683  0.2412 -2.2533
 5998TIP3    H239486   2.346   2.341   0.511 -0.8078  0.9150 -0.1190
 5999TIP3   OH239487   6.135   6.003  12.481  0.5010 -0.1457  0.2961
 5999TIP3    H139488   6.108   5.950  12.406  2.2534 -1.2195  0.3820
 5999TIP3    H239489   6.057   6.010  12.535  0.1883 -2.6298  0.2571
 6000TIP3   OH239490   3.144   0.911   3.363 -0.2423 -0.2254 -0.0421
 6000TIP3    H139491   3.188   0.836   3.323 -1.2294 -0.3255 -0.9595
 6000TIP3    H239492   3.192   0.988   3.331 -1.0897 -0.2977 -1.5232
 6001TIP3   OH239493   1.883   3.772   1.466 -0.2872 -0.0301  0.3518
 6001TIP3    H139494   1.973   3.804   1.471 -0.1839 -0.1720 -0.5189
 6001TIP3    H239495   1.891   3.683   1.432 -0.6497 -0.6456  1.7785
 6002TIP3   OH239496   2.743   3.724   1.909  0.1518 -0.4654  0.4495
 6002TIP3    H139497   2.756   3.645   1.961 -0.8511  0.2222  1.8127
 6002TIP3    H239498   2.745   3.795   1.972  2.0725  0.7470 -0.8723
 6003TIP3   OH239499   3.036   5.033  11.668 -0.4143 -0.0792  0.4855
 6003TIP3    H139500   3.048   5.036  11.573  1.1416 -1.1399  0.6171
 6003TIP3    H239501   2.979   4.957  11.682 -0.3017 -0.1796  0.4127
 6004TIP3   OH239502   4.415   5.550  16.783  0.4338  0.0807 -0.1206
 6004TIP3    H139503   4.497   5.531  16.830  0.5304 -1.1381 -0.7594
 6004TIP3    H239504   4.415   5.645  16.773  0.5569  0.3500  2.0648
 6005TIP3   OH239505   0.493   2.477  15.803  0.8011  0.0115 -0.5360
 6005TIP3    H139506   0.549   2.474  15.725 -1.2820  1.4072 -2.2223
 6005TIP3    H239507   0.467   2.569  15.810 -2.0063 -0.6979 -0.4680
 6006TIP3   OH239508   6.010   0.487  10.941  0.2403  0.5216  0.4022
 6006TIP3    H139509   6.052   0.572  10.939  2.0006 -0.3058  0.5643
 6006TIP3    H239510   6.056   0.439  11.010 -0.5485 -0.6395  0.1542
 6007TIP3   OH239511   4.042   0.702  11.280 -0.0240  0.2252  0.0549
 6007TIP3    H139512   4.029   0.642  11.207  0.2186 -1.2196  1.1460
 6007TIP3    H239513   3.978   0.772  11.265 -1.0891 -0.8577 -0.7021
 6008TIP3   OH239514   6.221   1.050  13.094 -0.1159  0.0581 -0.4111
 6008TIP3    H139515   6.235   0.963  13.058  0.9496  0.3636 -0.7803
 6008TIP3    H239516   6.239   1.040  13.188  4.2460  0.6300 -0.9523
 6009TIP3   OH239517   2.538   0.138  15.102 -0.0368  0.4942 -0.0351
 6009TIP3    H139518   2.576   0.214  15.145  1.9946 -1.2869  1.5653
 6009TIP3    H239519   2.453   0.126  15.144  0.5422  0.6731  1.2275
 6010TIP3   OH239520   5.963   0.818  12.803  0.0337  0.2807 -0.2597
 6010TIP3    H139521   5.977   0.788  12.713  0.4076  0.8756 -0.4039
 6010TIP3    H239522   5.940   0.911  12.795  2.3861  0.9909  0.3697
 6011TIP3   OH239523   2.027   1.455  17.033 -0.7360 -0.4771  0.0559
 6011TIP3    H139524   2.092   1.412  17.089 -0.9149 -0.5419  0.2119
 6011TIP3    H239525   1.948   1.402  17.042 -0.2435 -1.6029 -1.7042
 6012TIP3   OH239526   4.313   3.061   3.659 -1.0010 -0.8015  0.2175
 6012TIP3    H139527   4.278   3.067   3.748  2.1338  1.5936  1.4737
 6012TIP3    H239528   4.267   3.131   3.612 -1.9379 -1.4210  0.1707
 6013TIP3   OH239529   3.034   0.962  15.720 -0.3255  1.1432  0.5502
 6013TIP3    H139530   3.116   1.006  15.742  1.6159 -2.7729  2.0040
 6013TIP3    H239531   3.047   0.931  15.630 -0.1175  0.3596  0.8483
 6014TIP3   OH239532   5.047   0.834   1.722  0.1782 -0.0894  0.1042
 6014TIP3    H139533   5.107   0.794   1.659 -0.2849 -1.0181  0.2302
 6014TIP3    H239534   4.990   0.762   1.749 -1.4383  0.9044 -0.5198
 6015TIP3   OH239535   6.562   2.877   5.611  0.5700 -0.1824  0.2095
 6015TIP3    H139536   6.520   2.850   5.692 -0.2830 -0.5426 -0.3410
 6015TIP3    H239537   6.497   2.932   5.567  0.1387 -1.7771 -1.2459
 6016TIP3   OH239538   4.275   6.722  11.458  0.1589 -0.3304 -0.3252
 6016TIP3    H139539   4.279   6.778  11.535  2.6463 -0.4597 -0.2683
 6016TIP3    H239540   4.198   6.753  11.410  0.4751  2.0243  0.5379
 6017TIP3   OH239541   1.623   0.643  13.218 -0.2869 -0.1139  0.0250
 6017TIP3    H139542   1.701   0.641  13.274 -0.6285 -0.8877  0.4879
 6017TIP3    H239543   1.559   0.695  13.267  0.4008  1.8571 -1.0271
 6018TIP3   OH239544   2.046   2.201  11.769  0.0510 -0.6104 -0.7358
 6018TIP3    H139545   2.082   2.276  11.816  1.2004 -0.7526 -1.3690
 6018TIP3    H239546   2.066   2.126  11.825 -2.1211 -0.3676  0.4722
 6019TIP3   OH239547   2.830   2.132  15.166  0.7951 -0.0803 -0.1634
 6019TIP3    H139548   2.909   2.169  15.206 -0.1870  1.0915  0.7466
 6019TIP3    H239549   2.836   2.038  15.185  1.5100  0.1209  0.7052
 6020TIP3   OH239550   0.833   4.127   2.591  0.6796 -0.4173 -0.0342
 6020TIP3    H139551   0.747   4.160   2.618  0.6021 -1.2120  0.7131
 6020TIP3    H239552   0.829   4.127   2.495  1.4688  3.8268 -0.2790
 6021TIP3   OH239553   6.652   2.605   2.729 -0.5295 -0.2437  0.2618
 6021TIP3    H139554   6.723   2.655   2.689 -0.7251 -0.3578 -0.2362
 6021TIP3    H239555   6.573   2.654   2.707 -0.6333 -0.2821  0.5526
 6022TIP3   OH239556   4.764   5.044  12.988 -0.3213 -0.4313  0.0076
 6022TIP3    H139557   4.680   5.080  13.016 -0.2979 -0.4604  0.1167
 6022TIP3    H239558   4.795   4.994  13.064  0.4222  0.6783  0.4622
 6023TIP3   OH239559   3.586   2.726   3.832 -0.2607  0.6161  0.1341
 6023TIP3    H139560   3.658   2.775   3.792  0.3667  0.2909  0.8559
 6023TIP3    H239561   3.507   2.773   3.803  0.1793  0.5630 -1.2503
 6024TIP3   OH239562   1.393   6.597   1.576  0.3976 -0.2330  0.3629
 6024TIP3    H139563   1.366   6.508   1.598  0.9426 -0.1767  1.3141
 6024TIP3    H239564   1.488   6.590   1.564  0.3340  0.0730 -0.3409
 6025TIP3   OH239565   1.615   6.751   6.136  0.5281 -0.0445 -0.2405
 6025TIP3    H139566   1.630   6.796   6.219 -0.6617  2.4817 -1.2862
 6025TIP3    H239567   1.558   6.677   6.158  3.1192 -1.6561  1.6491
 6026TIP3   OH239568   6.637   2.330   5.254 -0.0914  0.0111  0.0353
 6026TIP3    H139569   6.570   2.363   5.193 -1.0836  0.5822  1.3703
 6026TIP3    H239570   6.685   2.408   5.281  0.3985 -0.2518 -0.0583
 6027TIP3   OH239571   0.902   5.154  16.087  0.0456  0.3166  0.0761
 6027TIP3    H139572   0.884   5.217  16.018 -0.4565  1.1733  0.9596
 6027TIP3    H239573   0.980   5.107  16.057 -0.9691 -0.3070 -1.6954
 6028TIP3   OH239574   4.426   2.330   2.317 -0.4268 -0.3898 -0.3567
 6028TIP3    H139575   4.509   2.378   2.321 -0.8495  0.2910  0.4782
 6028TIP3    H239576   4.359   2.397   2.325 -1.0451 -1.0525  0.1533
 6029TIP3   OH239577   3.305   5.759   4.895  0.3926  0.0070  0.4465
 6029TIP3    H139578   3.336   5.850   4.889  2.4357 -0.7144 -1.2729
 6029TIP3    H239579   3.354   5.721   4.967  2.7004 -0.7555 -1.4021
 6030TIP3   OH239580   4.514   0.282   6.104 -0.3455 -0.0116  0.1605
 6030TIP3    H139581   4.540   0.363   6.148  0.9534 -0.1340 -0.3534
 6030TIP3    H239582   4.550   0.290   6.016 -0.4533 -1.0286  0.0195
 6031TIP3   OH239583   2.816   2.842  16.290 -0.0191 -0.1592  0.1379
 6031TIP3    H139584   2.890   2.837  16.229 -1.3360  0.1097 -1.5404
 6031TIP3    H239585   2.822   2.761  16.341  1.1675 -0.3453 -0.2645
 6032TIP3   OH239586   6.473   3.971  12.681  0.6912 -0.3605  0.1071
 6032TIP3    H139587   6.553   4.015  12.710  0.6513  0.2836 -0.7094
 6032TIP3    H239588   6.492   3.947  12.590 -0.2272  0.2366 -0.2482
 6033TIP3   OH239589   3.608   5.419   1.741  0.7316 -0.4831 -0.3242
 6033TIP3    H139590   3.536   5.422   1.804 -0.4229  1.0480 -1.6162
 6033TIP3    H239591   3.578   5.474   1.668  1.7154 -2.6900 -2.5279
 6034TIP3   OH239592   4.219   0.649   5.800 -0.5600 -0.4382 -0.0991
 6034TIP3    H139593   4.159   0.593   5.850  1.0332 -1.7082  0.5023
 6034TIP3    H239594   4.295   0.593   5.784  0.3197  0.9985 -1.1558
 6035TIP3   OH239595   0.608   5.990  11.996 -0.0059  0.2002  1.4097
 6035TIP3    H139596   0.591   5.901  11.966 -1.1918  0.7987  0.2449
 6035TIP3    H239597   0.529   6.014  12.045  0.0926  0.7982  1.2781
 6036TIP3   OH239598   5.641   3.726  11.693 -0.3724  0.0235  0.1292
 6036TIP3    H139599   5.581   3.747  11.622  0.2592  0.6048 -0.2413
 6036TIP3    H239600   5.589   3.738  11.773 -1.0484 -0.5264 -0.2188
 6037TIP3   OH239601   1.511   1.558   6.552  0.1724  0.0434 -0.1908
 6037TIP3    H139602   1.596   1.590   6.523  0.7340 -0.4081  0.8694
 6037TIP3    H239603   1.450   1.629   6.532  0.9144  0.6392 -0.3829
 6038TIP3   OH239604   1.386   0.024  14.532 -0.2844  0.1293  0.5312
 6038TIP3    H139605   1.404   0.118  14.523  0.3963 -0.0063  0.4330
 6038TIP3    H239606   1.293   0.015  14.512  0.2417  0.3862 -2.3995
 6039TIP3   OH239607   0.764   4.181   1.021  0.5899 -0.5691  0.2295
 6039TIP3    H139608   0.840   4.231   0.992  0.1344 -0.2266 -0.3883
 6039TIP3    H239609   0.689   4.237   1.002  0.0581 -1.5180 -0.5564
 6040TIP3   OH239610   4.224   3.796   3.997 -0.3594 -0.1801 -0.5240
 6040TIP3    H139611   4.194   3.814   4.086 -0.9859 -2.9321 -0.0695
 6040TIP3    H239612   4.318   3.786   4.004 -0.4780 -1.0354  0.0058
 6041TIP3   OH239613   1.461   0.427   2.113 -0.2308  0.4992 -0.3841
 6041TIP3    H139614   1.366   0.416   2.125 -0.7088  0.8166 -3.1278
 6041TIP3    H239615   1.494   0.451   2.199 -2.6308  0.2728  0.6722
 6042TIP3   OH239616   4.195   1.687   2.269  0.2975  0.5232 -0.0401
 6042TIP3    H139617   4.114   1.738   2.277 -0.9291 -1.2361 -0.4239
 6042TIP3    H239618   4.192   1.627   2.344  1.2066  0.3761 -0.1092
 6043TIP3   OH239619   3.657   1.301  12.636 -0.3349 -0.3689  0.0060
 6043TIP3    H139620   3.613   1.386  12.638  1.0856  0.3999 -0.0217
 6043TIP3    H239621   3.750   1.323  12.630 -0.0327 -1.9181 -2.5547
 6044TIP3   OH239622   0.117   0.133   3.624  0.4587  0.1234 -0.0850
 6044TIP3    H139623   0.207   0.159   3.606 -0.0821  2.6624  0.4992
 6044TIP3    H239624   0.103   0.155   3.716 -0.9063  0.2492 -0.2997
 6045TIP3   OH239625   4.448   2.222   2.699 -0.0077  0.3598 -0.0860
 6045TIP3    H139626   4.473   2.301   2.746 -1.1616  0.3761  0.5375
 6045TIP3    H239627   4.528   2.169   2.697  0.1770  0.5227  1.5892
 6046TIP3   OH239628   6.342   4.706  15.942 -0.4245  0.1178  0.7512
 6046TIP3    H139629   6.293   4.624  15.936 -0.8733  0.4563 -0.8777
 6046TIP3    H239630   6.297   4.765  15.881  1.2234  0.8567  0.1975
 6047TIP3   OH239631   4.966   0.726  10.925 -0.8558  0.0646 -0.5971
 6047TIP3    H139632   4.965   0.779  11.005 -2.0183 -1.6249  0.5792
 6047TIP3    H239633   4.944   0.637  10.955 -0.5205 -0.7800 -2.6968
 6048TIP3   OH239634   2.205   4.895   3.022 -0.2824 -0.2111  0.1311
 6048TIP3    H139635   2.155   4.977   3.030 -0.7815 -0.4240 -0.7345
 6048TIP3    H239636   2.266   4.911   2.950  1.1734  0.1637  1.3915
 6049TIP3   OH239637   1.360   5.646   3.301  0.2737  0.4086  0.2407
 6049TIP3    H139638   1.360   5.558   3.264  2.3084 -0.1161  1.4151
 6049TIP3    H239639   1.342   5.634   3.394  0.7866  1.2059  0.4557
 6050TIP3   OH239640   5.850   5.499  10.958 -0.5953  0.2014  0.4969
 6050TIP3    H139641   5.799   5.442  10.900 -2.6248  0.8992  1.5240
 6050TIP3    H239642   5.875   5.573  10.902 -0.4413 -0.2961 -0.1024
 6051TIP3   OH239643   5.693   5.551   5.052  0.3677  0.0305  0.0135
 6051TIP3    H139644   5.777   5.590   5.025  0.5070 -0.7616 -0.7530
 6051TIP3    H239645   5.631   5.581   4.986  0.4184 -0.7906 -0.4229
 6052TIP3   OH239646   2.829   0.465  13.111 -0.6118 -0.2351 -0.0481
 6052TIP3    H139647   2.896   0.522  13.072 -1.4439  0.6446 -0.2157
 6052TIP3    H239648   2.838   0.383  13.063 -0.0962  0.0885 -0.5265
 6053TIP3   OH239649   2.708   5.964  13.504 -0.1927 -0.8836 -0.4722
 6053TIP3    H139650   2.676   5.963  13.414  0.1855  3.6683 -0.8791
 6053TIP3    H239651   2.638   6.007  13.554 -0.0787 -2.6424  1.3552
 6054TIP3   OH239652   3.335   3.596  13.083  0.1501 -0.0846  0.9205
 6054TIP3    H139653   3.324   3.602  13.178  0.4311 -0.1115  0.9561
 6054TIP3    H239654   3.408   3.655  13.064 -0.2518  0.3307  0.6536
 6055TIP3   OH239655   0.424   2.801  14.783 -0.5438  0.2537  0.0603
 6055TIP3    H139656   0.478   2.787  14.705 -1.4116 -0.4655 -0.4453
 6055TIP3    H239657   0.364   2.872  14.758 -0.6796  0.1696  0.1438
 6056TIP3   OH239658   4.443   4.177   4.530 -0.0303 -0.3022  0.4581
 6056TIP3    H139659   4.354   4.209   4.544 -0.2221 -0.1065 -1.0010
 6056TIP3    H239660   4.478   4.233   4.460  1.3412 -0.2085  1.1839
 6057TIP3   OH239661   5.908   4.851   0.138  0.4768 -0.1295 -0.0032
 6057TIP3    H139662   5.879   4.922   0.080  0.5406 -1.2261 -1.4518
 6057TIP3    H239663   5.829   4.822   0.182  0.4216  0.7076  0.4747
 6058TIP3   OH239664   1.369   3.141  17.182 -0.3965  0.0902  0.1312
 6058TIP3    H139665   1.393   3.051  17.201 -0.0664  0.1021 -0.2195
 6058TIP3    H239666   1.286   3.135  17.135 -0.3895 -0.0267  0.1345
 6059TIP3   OH239667   2.227   5.394  13.792  0.1480 -0.1070  0.2637
 6059TIP3    H139668   2.302   5.414  13.737 -1.0982 -0.3289 -1.5928
 6059TIP3    H239669   2.177   5.330  13.742 -1.4099  0.2196  1.3456
 6060TIP3   OH239670   4.077   3.155  13.536  0.7552 -0.5236 -0.0892
 6060TIP3    H139671   4.018   3.129  13.606  0.5170  0.5422  0.1316
 6060TIP3    H239672   4.157   3.106  13.553  1.1573  0.6464  1.6987
 6061TIP3   OH239673   5.297   4.842  16.061 -0.5214 -0.4462 -0.4185
 6061TIP3    H139674   5.329   4.925  16.025 -0.9154 -0.1210 -0.0390
 6061TIP3    H239675   5.359   4.777  16.030  0.0137  0.0499 -0.4124
 6062TIP3   OH239676   6.527   1.598  13.370  0.0397 -0.0120 -0.0228
 6062TIP3    H139677   6.589   1.605  13.298  0.9157 -0.4679  0.6615
 6062TIP3    H239678   6.495   1.508  13.366 -0.6149  0.2326 -0.3959
 6063TIP3   OH239679   5.554   4.121  17.208 -0.0447  0.7907 -0.2287
 6063TIP3    H139680   5.641   4.159  17.198 -0.5413  1.8005 -0.8995
 6063TIP3    H239681   5.535   4.083  17.122  0.2208 -0.5317  0.2767
 6064TIP3   OH239682   2.509   3.765  14.086  0.6919  0.2087 -0.2424
 6064TIP3    H139683   2.543   3.681  14.120  0.5363  0.4477  0.5280
 6064TIP3    H239684   2.414   3.759  14.098  0.5853  0.0869 -1.1384
 6065TIP3   OH239685   0.973   0.426  11.354  0.0817 -0.3349  0.1036
 6065TIP3    H139686   1.028   0.350  11.332 -0.6033 -0.4521 -1.2798
 6065TIP3    H239687   0.885   0.400  11.329 -0.4609  0.2847  1.2692
 6066TIP3   OH239688   2.219   0.000   5.886 -0.2603 -0.3887  0.2521
 6066TIP3    H139689   2.181  -0.046   5.961 -0.5193 -0.6937 -0.0687
 6066TIP3    H239690   2.312  -0.021   5.890  0.1741  1.4711  1.8552
 6067TIP3   OH239691   3.219   1.170   2.825 -0.2083 -0.0609 -0.0077
 6067TIP3    H139692   3.191   1.103   2.763 -0.8205  0.8605 -0.7481
 6067TIP3    H239693   3.175   1.147   2.907 -0.3903 -0.5781 -0.2490
 6068TIP3   OH239694   0.839   6.670  13.579 -0.1802 -0.1254  0.5601
 6068TIP3    H139695   0.743   6.670  13.580 -0.2423  2.3320  2.0792
 6068TIP3    H239696   0.864   6.729  13.651  2.4954 -1.1585  0.5970
 6069TIP3   OH239697   4.361   2.270  13.651  0.0350  0.0351 -0.4099
 6069TIP3    H139698   4.394   2.360  13.654  1.8240 -0.5878 -0.5454
 6069TIP3    H239699   4.437   2.216  13.669 -1.0825 -1.4652 -0.0122
 6070TIP3   OH239700   3.548   4.704   2.352  0.3305  0.0619 -0.0740
 6070TIP3    H139701   3.486   4.634   2.335 -2.3617  2.4811 -0.9392
 6070TIP3    H239702   3.555   4.751   2.269  3.1075  0.1194  0.0995
 6071TIP3   OH239703   0.294   4.125   1.512 -0.6095  0.0853  0.0130
 6071TIP3    H139704   0.261   4.209   1.545 -0.7458  0.4030 -0.9016
 6071TIP3    H239705   0.292   4.135   1.417  2.0414  0.0996 -0.1082
 6072TIP3   OH239706   0.067   3.755   2.596  0.5071  0.4375  0.2417
 6072TIP3    H139707   0.139   3.807   2.632  1.4032 -0.5865 -0.0284
 6072TIP3    H239708   0.009   3.739   2.670  1.9188 -0.9636  1.1123
 6073TIP3   OH239709   6.642   6.093   2.769 -0.5419 -0.4422 -0.5713
 6073TIP3    H139710   6.603   6.154   2.831 -0.2394  1.3542 -2.0472
 6073TIP3    H239711   6.587   6.015   2.775 -2.0282  0.6008  0.1547
 6074TIP3   OH239712   6.389   6.428  13.913  0.0110  0.0250  0.2104
 6074TIP3    H139713   6.411   6.501  13.972 -0.2555 -1.0344  1.6903
 6074TIP3    H239714   6.350   6.362  13.971 -1.5474 -0.5345 -1.3823
 6075TIP3   OH239715   6.590   6.099  12.172  0.1566  0.2131  0.5392
 6075TIP3    H139716   6.525   6.037  12.141  0.2165  0.2154  0.4087
 6075TIP3    H239717   6.664   6.088  12.113 -0.1097  0.9226  0.0612
 6076TIP3   OH239718   1.356   4.788  14.979 -0.1796  0.3544 -0.2212
 6076TIP3    H139719   1.441   4.745  14.969 -0.1057  0.3397  0.4109
 6076TIP3    H239720   1.293   4.716  14.982 -0.2624  0.3827 -1.0958
 6077TIP3   OH239721   3.852   5.969  16.445 -0.0735  0.8367 -0.1143
 6077TIP3    H139722   3.764   5.956  16.410  0.4556  2.8250 -2.4564
 6077TIP3    H239723   3.904   5.898  16.407 -0.0049  1.6465 -1.6266
 6078TIP3   OH239724   5.322   4.166  16.473 -0.0466  0.0654 -0.2100
 6078TIP3    H139725   5.349   4.097  16.413 -0.0770 -1.2799  1.2403
 6078TIP3    H239726   5.269   4.226  16.420 -1.3178 -1.8483 -1.2055
 6079TIP3   OH239727   5.740   4.598  13.054 -0.1721  0.4384 -0.5859
 6079TIP3    H139728   5.676   4.642  12.997 -1.5057 -0.8414 -0.1483
 6079TIP3    H239729   5.803   4.666  13.076 -1.0326  1.6014 -1.5574
 6080TIP3   OH239730   4.204   0.821  14.856  0.1788  0.0247  0.2303
 6080TIP3    H139731   4.287   0.868  14.864  0.8297 -1.3899  3.2404
 6080TIP3    H239732   4.154   0.846  14.934 -1.8580  0.0899 -1.0281
 6081TIP3   OH239733   2.948   0.083   6.590 -0.7999 -0.5197  0.2752
 6081TIP3    H139734   2.945   0.000   6.543 -2.2791  0.7311 -1.9869
 6081TIP3    H239735   3.018   0.071   6.655 -0.2704 -3.1470 -0.6714
 6082TIP3   OH239736   5.219   6.705  15.322 -0.2668 -0.1634  0.9616
 6082TIP3    H139737   5.141   6.741  15.364  0.1214  1.2249  0.5314
 6082TIP3    H239738   5.279   6.779  15.316  0.9262 -1.1245  0.9047
 6083TIP3   OH239739   2.054   0.392   5.183 -0.2058 -0.0815 -0.1405
 6083TIP3    H139740   2.065   0.420   5.274 -0.6212  0.6957 -0.3158
 6083TIP3    H239741   2.119   0.323   5.171 -0.6401 -0.7268  0.9618
 6084TIP3   OH239742   2.858   4.798  12.907 -0.1625 -0.6253 -0.0212
 6084TIP3    H139743   2.822   4.840  12.828 -0.0333  1.8288  1.1459
 6084TIP3    H239744   2.805   4.719  12.918 -2.1185  0.4873 -0.9451
 6085TIP3   OH239745   1.695   2.635  13.498 -0.9900  0.1968  0.2912
 6085TIP3    H139746   1.640   2.649  13.575 -0.1115  2.0913  0.6334
 6085TIP3    H239747   1.718   2.723  13.469  1.4603 -0.5158 -0.1150
 6086TIP3   OH239748   2.717   4.209   4.621 -0.2976  0.3815 -0.4004
 6086TIP3    H139749   2.760   4.137   4.666  0.2533 -0.9997 -2.9552
 6086TIP3    H239750   2.777   4.283   4.631  0.5500 -0.3180 -0.2111
 6087TIP3   OH239751   1.859   4.751  16.635 -0.2586 -0.4735 -0.6271
 6087TIP3    H139752   1.848   4.656  16.627 -1.5975 -0.2843 -1.1812
 6087TIP3    H239753   1.856   4.767  16.729  0.0607 -0.9899 -0.5248
 6088TIP3   OH239754   6.233   5.294  15.213 -0.1598  0.7089  0.0981
 6088TIP3    H139755   6.323   5.286  15.183  0.5871  1.8849  1.8864
 6088TIP3    H239756   6.196   5.206  15.200  0.5805  0.6927 -2.4918
 6089TIP3   OH239757   3.469   2.735  13.993  0.4741 -0.0806 -0.1747
 6089TIP3    H139758   3.551   2.706  14.034 -0.3000 -0.9391  0.8321
 6089TIP3    H239759   3.404   2.670  14.022 -0.7420  1.0904 -0.2044
 6090TIP3   OH239760   3.406   5.072  11.696 -0.3703  0.6072 -0.2727
 6090TIP3    H139761   3.496   5.097  11.715  0.1903 -0.4209 -1.4788
 6090TIP3    H239762   3.365   5.153  11.666 -0.0039  1.1873  0.7222
 6091TIP3   OH239763   6.256   3.186  14.500  0.2159  0.2566  0.4962
 6091TIP3    H139764   6.169   3.221  14.520  0.1324  0.2062  0.2284
 6091TIP3    H239765   6.308   3.205  14.578 -0.8034 -2.3518  1.9171
 6092TIP3   OH239766   4.998   4.062  10.672  1.0444 -0.1295  0.3474
 6092TIP3    H139767   5.081   4.021  10.647  0.1423 -1.3244 -0.7608
 6092TIP3    H239768   4.936   4.034  10.605  0.0277  1.8211  0.4189
 6093TIP3   OH239769   0.080   0.793  14.781  0.3225 -0.2620 -0.2299
 6093TIP3    H139770   0.056   0.724  14.843  0.9432 -0.0098  0.3045
 6093TIP3    H239771  -0.002   0.813  14.735 -0.3093  0.0143  0.9764
 6094TIP3   OH239772   6.431   0.836  11.267  0.1663 -0.5294  0.2496
 6094TIP3    H139773   6.370   0.875  11.330  1.5665  2.7402 -0.1692
 6094TIP3    H239774   6.515   0.878  11.286  1.0832 -0.9019 -2.4855
 6095TIP3   OH239775   1.082   0.344   1.285  0.8429  0.2045 -0.5731
 6095TIP3    H139776   1.125   0.264   1.314  1.6300  0.2626 -1.5496
 6095TIP3    H239777   1.111   0.356   1.195  0.0464  1.1262 -0.7253
 6096TIP3   OH239778   5.419   2.697  14.125 -0.2003 -0.2936  0.2069
 6096TIP3    H139779   5.443   2.677  14.216  0.0551  1.1743  0.4852
 6096TIP3    H239780   5.452   2.785  14.111 -0.5316 -0.3826 -1.2258
 6097TIP3   OH239781   6.694   1.628  16.709  0.1506  0.0269  0.8272
 6097TIP3    H139782   6.710   1.606  16.801  1.0214 -0.2822  0.6083
 6097TIP3    H239783   6.610   1.674  16.710  0.2961  0.2979  1.8201
 6098TIP3   OH239784   0.964   2.390  14.662  0.6707 -1.2734  0.2443
 6098TIP3    H139785   0.900   2.323  14.686  2.6368 -3.4687 -0.2942
 6098TIP3    H239786   0.947   2.408  14.570 -1.9132  1.4879  1.0960
 6099TIP3   OH239787   4.314   6.176   3.714  0.8077  0.0532 -0.9045
 6099TIP3    H139788   4.236   6.168   3.660  1.0777 -0.2363 -1.2584
 6099TIP3    H239789   4.286   6.226   3.791 -0.0526 -1.2230 -0.3640
 6100TIP3   OH239790   1.564   5.256  12.726 -0.0695 -0.6418 -0.4916
 6100TIP3    H139791   1.489   5.202  12.702  0.2766 -2.0147  1.3145
 6100TIP3    H239792   1.535   5.302  12.805  1.1090 -1.5319  0.4888
 6101TIP3   OH239793   3.577   0.130  16.538 -0.1961 -0.2334 -0.5891
 6101TIP3    H139794   3.484   0.106  16.538  0.1060 -1.5561  0.3975
 6101TIP3    H239795   3.618   0.067  16.479  0.0684  0.4434 -1.1395
 6102TIP3   OH239796   2.581   3.522  12.478 -0.3944 -0.2650 -0.1153
 6102TIP3    H139797   2.572   3.500  12.385 -0.8439  0.1619 -0.1800
 6102TIP3    H239798   2.647   3.461  12.511 -0.6372 -0.7943 -0.5855
 6103TIP3   OH239799   5.298   4.126  13.282 -0.0409 -0.1653  0.6084
 6103TIP3    H139800   5.253   4.208  13.306  0.0819 -0.0661  0.5009
 6103TIP3    H239801   5.382   4.155  13.246 -1.1045 -0.1487 -2.1276
 6104TIP3   OH239802   1.152   5.183   4.045 -0.0655  0.6284 -0.0484
 6104TIP3    H139803   1.216   5.211   4.110  0.7125  2.3690 -1.4874
 6104TIP3    H239804   1.193   5.203   3.961 -1.1481 -1.3161 -1.1044
 6105TIP3   OH239805   3.350   3.524   0.019  0.4427  0.3227 -0.5045
 6105TIP3    H139806   3.321   3.528  -0.072  0.0863  0.0874 -0.4071
 6105TIP3    H239807   3.442   3.549   0.017  0.5889 -0.2486 -1.0056
 6106TIP3   OH239808   2.452   3.942  15.597 -0.0385 -0.1887  0.0016
 6106TIP3    H139809   2.467   3.968  15.506 -2.1837 -2.1186 -0.9986
 6106TIP3    H239810   2.480   3.851  15.602  1.2334  0.2226  1.6825
 6107TIP3   OH239811   2.787   4.576  12.563  0.4912 -0.7700 -0.7987
 6107TIP3    H139812   2.691   4.584  12.561  0.4802 -0.8493 -0.6138
 6107TIP3    H239813   2.803   4.492  12.606  0.6865  0.3034  1.3451
 6108TIP3   OH239814   3.261   6.129  13.597  0.2595 -0.3209  0.9262
 6108TIP3    H139815   3.304   6.214  13.611  1.4360 -1.2285  3.4043
 6108TIP3    H239816   3.212   6.113  13.677  0.2381 -2.0754  0.6101
 6109TIP3   OH239817   0.822   2.029   5.319 -0.2342 -0.1746 -0.0521
 6109TIP3    H139818   0.741   2.017   5.270 -0.5929 -0.3893  0.5842
 6109TIP3    H239819   0.795   2.075   5.399 -0.2149 -2.7504  1.5455
 6110TIP3   OH239820   1.531   1.278   2.588 -0.0931  0.0724 -0.1775
 6110TIP3    H139821   1.617   1.317   2.601 -0.1316  0.1564 -0.1741
 6110TIP3    H239822   1.549   1.189   2.557 -0.0042 -0.1162  0.4042
 6111TIP3   OH239823   4.801   3.179   1.615  0.4884  0.0932  0.3442
 6111TIP3    H139824   4.881   3.148   1.573  1.1286  1.2730  0.6326
 6111TIP3    H239825   4.818   3.170   1.709 -0.0539 -0.4481  0.3914
 6112TIP3   OH239826   0.346   3.510   3.061  0.0455 -0.1828  0.0363
 6112TIP3    H139827   0.367   3.552   3.145  2.9256  0.1890 -0.7653
 6112TIP3    H239828   0.274   3.561   3.025 -0.8904 -0.0210  2.0056
 6113TIP3   OH239829   1.236   6.498   0.692  0.4800 -0.4132  0.3180
 6113TIP3    H139830   1.154   6.547   0.692  0.4903 -0.3214  2.2500
 6113TIP3    H239831   1.229   6.438   0.766  2.4032  0.0302  0.9254
 6114TIP3   OH239832   4.651   6.260  10.807 -0.1240 -0.6099 -0.2884
 6114TIP3    H139833   4.660   6.279  10.900  1.5718 -0.5632 -0.4306
 6114TIP3    H239834   4.568   6.300  10.782  0.0838  0.6310  0.8970
 6115TIP3   OH239835   4.831   1.470   0.998 -0.1625 -0.9136  0.3160
 6115TIP3    H139836   4.816   1.445   0.907  0.8042 -2.0225  0.4359
 6115TIP3    H239837   4.858   1.561   0.994 -1.2675 -0.5957 -0.3866
 6116TIP3   OH239838   3.014   5.546   0.763  0.0063 -0.2926  0.6698
 6116TIP3    H139839   3.090   5.492   0.785  1.0252  1.5407  1.9804
 6116TIP3    H239840   3.048   5.613   0.704 -1.3480 -1.3090 -1.3877
 6117TIP3   OH239841   3.032   1.577  14.838 -0.9388 -0.4592  0.0229
 6117TIP3    H139842   3.043   1.496  14.888 -2.3341 -0.0023  1.1237
 6117TIP3    H239843   3.031   1.547  14.746  2.4514 -1.2016  0.1180
 6118TIP3   OH239844   6.452   6.214  16.760  0.0397  0.1670  0.3134
 6118TIP3    H139845   6.376   6.196  16.816 -0.8475  0.7845 -0.6704
 6118TIP3    H239846   6.436   6.163  16.681  0.6178  0.3788  0.0543
 6119TIP3   OH239847   3.481   1.617  14.359 -0.6760  0.3471 -0.3211
 6119TIP3    H139848   3.485   1.654  14.271  1.4221 -1.2718 -0.9810
 6119TIP3    H239849   3.440   1.686  14.412  0.7307  2.5934 -1.9547
 6120TIP3   OH239850   1.335   2.643   0.775 -0.1843 -0.8344 -0.2903
 6120TIP3    H139851   1.254   2.673   0.816  1.3341  0.5033  1.9567
 6120TIP3    H239852   1.327   2.548   0.772 -0.7463 -0.9737  2.5598
 6121TIP3   OH239853   6.071   4.315  12.940  0.4106 -0.1178 -0.2123
 6121TIP3    H139854   6.029   4.399  12.951 -0.5081 -0.3388 -1.7699
 6121TIP3    H239855   6.122   4.302  13.021 -1.4656  0.7322  1.1627
 6122TIP3   OH239856   3.039   2.342  12.828  0.4574 -0.1258  0.1260
 6122TIP3    H139857   3.098   2.394  12.882 -0.6704  0.8012  0.5082
 6122TIP3    H239858   3.059   2.368  12.738 -0.3039  1.2489  0.3246
 6123TIP3   OH239859   1.066   1.568   1.766  0.1623 -0.1109 -0.2866
 6123TIP3    H139860   1.023   1.514   1.700 -2.2027 -0.4690  1.4448
 6123TIP3    H239861   1.075   1.654   1.724 -2.5617  0.0717 -0.6790
 6124TIP3   OH239862   2.944   5.098  12.433  0.0967 -0.1658  0.1689
 6124TIP3    H139863   3.031   5.102  12.474 -0.0544  0.6382  0.4304
 6124TIP3    H239864   2.918   5.190  12.424 -1.0456 -0.4170  0.7639
 6125TIP3   OH239865   0.202   4.922   0.778  0.2737 -0.7695 -0.3880
 6125TIP3    H139866   0.137   4.964   0.835 -1.7103 -3.0744 -0.7774
 6125TIP3    H239867   0.199   4.973   0.697  1.9230  1.5302  0.8811
 6126TIP3   OH239868   6.382   5.236  11.235  0.3297 -0.7864  0.5595
 6126TIP3    H139869   6.386   5.141  11.247 -1.2151 -0.7796  1.2296
 6126TIP3    H239870   6.456   5.255  11.176  2.1243 -2.0681  2.2748
 6127TIP3   OH239871   2.149   1.079   1.297  0.0846 -0.2771  0.0856
 6127TIP3    H139872   2.160   1.160   1.347  0.5611 -0.8759  0.9869
 6127TIP3    H239873   2.191   1.012   1.352 -2.0056 -1.4842  0.2972
 6128TIP3   OH239874   6.569   5.048  13.446  0.3877 -0.3394  0.3265
 6128TIP3    H139875   6.588   5.136  13.416 -1.2002 -0.2714 -0.5845
 6128TIP3    H239876   6.584   4.992  13.369 -1.0411 -0.5085  0.1313
 6129TIP3   OH239877   3.167   2.393  16.788  0.4692  0.5699 -0.1149
 6129TIP3    H139878   3.165   2.400  16.693  0.3707  2.8373 -0.0134
 6129TIP3    H239879   3.193   2.481  16.817 -1.2423  0.4497  1.9920
 6130TIP3   OH239880   4.538   4.360  16.644 -1.0147  0.8553 -0.0429
 6130TIP3    H139881   4.463   4.303  16.661 -1.1738  1.2340  0.5685
 6130TIP3    H239882   4.499   4.446  16.627 -0.7185  1.0508  0.2630
 6131TIP3   OH239883   3.838   2.526  17.182  0.1777 -0.0306  0.0599
 6131TIP3    H139884   3.918   2.502  17.135  0.3762 -0.0137  0.3821
 6131TIP3    H239885   3.830   2.458  17.250 -0.3229 -0.2846 -0.2479
 6132TIP3   OH239886   2.664   0.617   3.724  0.1274  0.2855 -0.3687
 6132TIP3    H139887   2.636   0.527   3.710  1.7484 -0.0267 -1.9631
 6132TIP3    H239888   2.596   0.655   3.780  0.2666 -2.3801  1.8266
 6133TIP3   OH239889   1.838   5.121   6.194  0.2150  0.2195  0.2707
 6133TIP3    H139890   1.863   5.051   6.254 -0.1815  0.6550  0.9608
 6133TIP3    H239891   1.746   5.105   6.175 -0.0405  0.8831  0.9068
 6134TIP3   OH239892   5.692   5.436   0.711  0.3937 -0.7738  0.4401
 6134TIP3    H139893   5.746   5.366   0.674 -0.7586 -0.9100 -1.1290
 6134TIP3    H239894   5.653   5.398   0.790  1.1748 -1.2791  0.5865
 6135TIP3   OH239895   1.635   5.517   4.476 -0.7342  0.4962 -0.1416
 6135TIP3    H139896   1.714   5.486   4.432 -1.0281 -0.6615  0.1189
 6135TIP3    H239897   1.609   5.595   4.427 -0.1783  0.1271 -1.0406
 6136TIP3   OH239898   3.230   0.134  14.464 -0.1518 -0.5046 -0.2456
 6136TIP3    H139899   3.256   0.225  14.479 -1.9236  0.0528 -0.3728
 6136TIP3    H239900   3.289   0.104  14.394 -1.1905  1.3988 -2.0642
 6137TIP3   OH239901   0.347   3.055   0.991 -0.5473  0.4028 -0.2135
 6137TIP3    H139902   0.338   3.120   0.921  0.9985  2.1877  1.1068
 6137TIP3    H239903   0.422   3.001   0.965 -1.4401 -0.4765 -1.0152
 6138TIP3   OH239904   4.728   3.230   2.798  0.1672 -0.2360 -0.4028
 6138TIP3    H139905   4.766   3.220   2.886 -0.5985 -0.0374 -0.0393
 6138TIP3    H239906   4.645   3.182   2.803 -1.1173  1.8839 -0.2038
 6139TIP3   OH239907   5.811   4.431   4.342  0.1364 -0.0696 -0.1154
 6139TIP3    H139908   5.842   4.397   4.258  0.2919 -0.3571  0.0559
 6139TIP3    H239909   5.839   4.522   4.343  1.6098 -0.4929  0.3262
 6140TIP3   OH239910   4.016   6.566   5.355 -0.3361  0.0010  0.3951
 6140TIP3    H139911   3.996   6.498   5.291  0.2642 -0.0073  0.2140
 6140TIP3    H239912   3.969   6.539   5.434 -1.1129  0.0317 -0.0459
 6141TIP3   OH239913   4.437   5.433  10.633  0.5034 -0.1213 -0.6150
 6141TIP3    H139914   4.456   5.371  10.562  1.2429 -0.0268 -0.5142
 6141TIP3    H239915   4.469   5.517  10.599 -0.4248  0.2028 -0.7244
 6142TIP3   OH239916   2.258   1.684  14.152  0.3130  0.1686 -0.6385
 6142TIP3    H139917   2.168   1.717  14.156  0.6427  1.1542 -1.0622
 6142TIP3    H239918   2.267   1.632  14.232 -0.6155  0.0966 -0.5605
 6143TIP3   OH239919   4.663   5.524   2.621  0.5077 -0.4453  0.0877
 6143TIP3    H139920   4.747   5.564   2.598  0.7824 -1.4508 -0.7237
 6143TIP3    H239921   4.649   5.550   2.712 -0.1516  2.8723 -0.8354
 6144TIP3   OH239922   1.253   2.045  13.692 -0.5075 -0.2754  0.7036
 6144TIP3    H139923   1.325   2.093  13.735  0.7141  0.1330 -1.6323
 6144TIP3    H239924   1.209   2.111  13.638  0.2163 -1.3816 -1.3567
 6145TIP3   OH239925   0.640   3.196   5.038  0.3181  0.0185 -0.1730
 6145TIP3    H139926   0.627   3.290   5.030 -1.4087 -0.2222 -0.4611
 6145TIP3    H239927   0.552   3.159   5.040  0.9515 -1.7471 -1.9392
 6146TIP3   OH239928   2.504   0.737  14.463 -0.0585  0.2079  0.0348
 6146TIP3    H139929   2.528   0.746  14.371 -2.9335 -0.5914 -0.9193
 6146TIP3    H239930   2.518   0.824  14.500 -0.0507  0.8940 -1.4972
 6147TIP3   OH239931   2.129   1.469  16.431  0.5724  0.4207  0.3527
 6147TIP3    H139932   2.064   1.425  16.377  2.2299  0.3689 -1.7347
 6147TIP3    H239933   2.115   1.562  16.415 -1.1489  0.6369  2.6269
 6148TIP3   OH239934   4.466   0.857   2.532  0.4350  0.8250 -0.2746
 6148TIP3    H139935   4.487   0.781   2.586 -0.2780  0.3600 -0.6425
 6148TIP3    H239936   4.513   0.929   2.574  1.0616  0.2004  0.1152
 6149TIP3   OH239937   5.701   1.223  15.275 -0.2244  0.1085 -0.6644
 6149TIP3    H139938   5.713   1.134  15.242 -0.6037  0.1734 -0.9847
 6149TIP3    H239939   5.704   1.278  15.196 -3.1038  0.0964 -0.8921
 6150TIP3   OH239940   0.124   6.050  13.461  0.0269 -0.2216 -0.7532
 6150TIP3    H139941   0.101   6.005  13.380  1.1382 -0.4361 -0.9624
 6150TIP3    H239942   0.139   6.141  13.435 -0.9632  0.0174 -0.5423
 6151TIP3   OH239943   1.532   1.285  13.661 -0.1972 -0.1743 -0.1304
 6151TIP3    H139944   1.490   1.352  13.715 -0.3402 -0.1848 -0.2268
 6151TIP3    H239945   1.479   1.283  13.581  0.5803  0.5208 -0.6750
 6152TIP3   OH239946   6.194   4.729  12.763  0.0979  0.2129 -0.5902
 6152TIP3    H139947   6.192   4.789  12.838  2.1660  0.4315 -0.6604
 6152TIP3    H239948   6.133   4.659  12.787 -1.2358  1.5578  0.1431
 6153TIP3   OH239949   4.001   2.427  13.243  0.0639 -0.1228  0.4430
 6153TIP3    H139950   4.072   2.363  13.250  1.5856  1.3249 -0.8445
 6153TIP3    H239951   4.039   2.499  13.191 -1.3277  2.1601  2.4155
 6154TIP3   OH239952   0.797   4.014  13.988  0.1084 -0.1525  0.5882
 6154TIP3    H139953   0.814   4.015  13.894  0.8305  0.8982  0.7163
 6154TIP3    H239954   0.866   4.068  14.026 -1.8742  2.0378  1.4100
 6155TIP3   OH239955   5.675   3.838   2.169  0.1410  0.3269 -0.2580
 6155TIP3    H139956   5.702   3.879   2.251 -0.0296  1.1877 -0.6268
 6155TIP3    H239957   5.741   3.770   2.154  0.7878  0.8769  0.0355
 6156TIP3   OH239958   1.818   4.526   2.818 -0.0889  0.3235 -0.1685
 6156TIP3    H139959   1.793   4.521   2.910  0.0018  1.4303 -0.0744
 6156TIP3    H239960   1.800   4.616   2.792 -0.8857 -0.1759 -1.4788
 6157TIP3   OH239961   5.772   6.310   3.825 -0.5278  0.6117  0.0085
 6157TIP3    H139962   5.736   6.330   3.739  0.5342  0.0721 -0.5714
 6157TIP3    H239963   5.791   6.395   3.864  0.7196  0.8384 -1.0405
 6158TIP3   OH239964   3.194   3.286  12.974  0.7244  0.0160  0.1885
 6158TIP3    H139965   3.279   3.293  12.929  1.7945  0.3408  2.1603
 6158TIP3    H239966   3.146   3.364  12.946  0.8947 -0.3652 -1.2481
 6159TIP3   OH239967   3.389   0.048   2.893  0.3437  0.6002 -0.0589
 6159TIP3    H139968   3.433   0.019   2.972  0.8559  2.4156  0.3737
 6159TIP3    H239969   3.427  -0.005   2.823  1.0503  0.0816  0.7028
 6160TIP3   OH239970   6.122   3.874   3.911 -0.5281 -0.1407  0.2947
 6160TIP3    H139971   6.059   3.850   3.979 -1.3022 -0.6467 -0.5857
 6160TIP3    H239972   6.195   3.914   3.959 -0.9899 -0.6261  1.4356
 6161TIP3   OH239973   6.693   0.122   1.563 -0.6818  0.3192 -0.4566
 6161TIP3    H139974   6.648   0.038   1.562  0.7685 -0.5089  0.2578
 6161TIP3    H239975   6.647   0.174   1.629 -0.1230 -0.8208  0.8950
 6162TIP3   OH239976   2.067   6.283   1.358  0.0839  0.2824  0.1903
 6162TIP3    H139977   2.084   6.354   1.420  1.1264  0.5898 -0.4172
 6162TIP3    H239978   2.004   6.227   1.402  1.4466  0.0160  1.9270
 6163TIP3   OH239979   0.279   5.270  17.111 -0.1269 -0.3799  0.2172
 6163TIP3    H139980   0.305   5.191  17.062 -1.4785 -0.9832  0.4340
 6163TIP3    H239981   0.253   5.237  17.197 -2.0978  0.0965 -0.1551
 6164TIP3   OH239982   0.813   6.759   5.744  0.5102  0.1006 -0.5342
 6164TIP3    H139983   0.854   6.690   5.797  1.7551 -0.4697 -2.1565
 6164TIP3    H239984   0.797   6.830   5.806  2.4716 -0.3060  0.5184
 6165TIP3   OH239985   6.812   4.961  14.494 -0.0990  0.1878  0.0606
 6165TIP3    H139986   6.744   4.978  14.559  0.2500 -0.7248  0.6830
 6165TIP3    H239987   6.768   4.972  14.410 -0.0055  3.7124  0.3506
 6166TIP3   OH239988   5.622   5.768  15.844  0.3780 -0.2624  0.0409
 6166TIP3    H139989   5.676   5.837  15.884 -0.7598 -0.4323  2.0178
 6166TIP3    H239990   5.553   5.816  15.799 -0.6226 -0.0392  1.7175
 6167TIP3   OH239991   2.823   2.499  15.386 -0.2666 -0.3581 -0.3319
 6167TIP3    H139992   2.837   2.593  15.379 -1.4975 -0.0342  1.1416
 6167TIP3    H239993   2.807   2.470  15.296 -0.6887  0.9747 -0.7031
 6168TIP3   OH239994   5.690   4.996  15.806 -0.3477 -0.5833  0.5573
 6168TIP3    H139995   5.606   4.951  15.798 -0.8500  0.1474  1.4963
 6168TIP3    H239996   5.675   5.082  15.767  0.4058 -0.9496 -0.6033
 6169TIP3   OH239997   5.059   4.095  12.946  0.4429  0.0649  0.4731
 6169TIP3    H139998   5.136   4.045  12.974  0.7001 -0.5717 -1.2131
 6169TIP3    H239999   5.092   4.149  12.874  0.0889  2.4866  2.0188
 6170TIP3   OH240000   6.404   2.736   6.286 -0.2182 -0.3313  0.1138
 6170TIP3    H140001   6.383   2.821   6.324  0.2674 -0.5696  0.9366
 6170TIP3    H240002   6.410   2.753   6.192 -4.1298 -0.2375 -0.3096
 6171TIP3   OH240003   0.588   0.435  11.956  0.0515 -0.0255  0.2090
 6171TIP3    H140004   0.651   0.387  11.903 -1.5399 -0.6854 -1.1627
 6171TIP3    H240005   0.621   0.428  12.045  1.5501 -0.9198 -0.3867
 6172TIP3   OH240006   4.242   0.420  11.482 -0.4624 -0.4331  0.0012
 6172TIP3    H140007   4.224   0.382  11.396  1.3205 -1.0250 -0.1559
 6172TIP3    H240008   4.303   0.492  11.463 -1.6029  0.7301  0.5923
 6173TIP3   OH240009   2.837   4.323  12.758  0.1272  0.2409 -0.0992
 6173TIP3    H140010   2.824   4.257  12.826 -0.6652 -0.6660 -1.0832
 6173TIP3    H240011   2.781   4.396  12.784  0.3765  0.1985  0.5797
 6174TIP3   OH240012   0.613   0.237  16.778  0.5249  0.2403 -0.0048
 6174TIP3    H140013   0.574   0.178  16.843  1.5728  0.2799  0.6804
 6174TIP3    H240014   0.611   0.323  16.820  0.8597  0.3322 -0.1766
 6175TIP3   OH240015   6.150   4.622   0.797 -0.3536 -0.6168  0.4081
 6175TIP3    H140016   6.222   4.637   0.858 -0.1688  1.5093 -0.2457
 6175TIP3    H240017   6.190   4.577   0.723  0.3862  0.6772 -0.0160
 6176TIP3   OH240018   5.533   6.230  10.659  0.1485  0.3134  0.0869
 6176TIP3    H140019   5.597   6.175  10.614  0.6936  0.9365  0.0895
 6176TIP3    H240020   5.563   6.319  10.643 -0.6918  0.6111  0.1340
 6177TIP3   OH240021   2.982   6.092   5.459  0.4656  0.3462 -0.4779
 6177TIP3    H140022   2.961   6.103   5.552  1.2945 -0.4492 -0.1713
 6177TIP3    H240023   2.937   6.011   5.434 -1.2315  1.4796 -1.2750
 6178TIP3   OH240024   3.981   4.069   4.402 -0.0979  0.1218  0.1411
 6178TIP3    H140025   4.005   4.064   4.309  1.2819 -0.6551  0.5085
 6178TIP3    H240026   3.946   3.983   4.423 -0.4556  0.3134  0.3450
 6179TIP3   OH240027   1.369   6.582  14.880 -0.2674  0.6682  0.0481
 6179TIP3    H140028   1.417   6.562  14.799  1.1012  0.4516  0.8795
 6179TIP3    H240029   1.363   6.498  14.925 -1.8000  0.6162 -0.1984
 6180TIP3   OH240030   4.488   5.622   1.191  0.3055  0.1797 -0.0656
 6180TIP3    H140031   4.395   5.601   1.196  0.2877 -0.7979 -2.9489
 6180TIP3    H240032   4.502   5.653   1.102  3.1463 -2.2146 -0.6442
 6181TIP3   OH240033   0.117   6.589   5.704 -0.1474 -0.5298  0.6079
 6181TIP3    H140034   0.188   6.548   5.655 -0.3272 -0.7599  0.5408
 6181TIP3    H240035   0.100   6.529   5.777  0.4557  0.0491  1.2460
 6182TIP3   OH240036   1.818   0.988  16.603 -0.2057 -0.5361 -0.3067
 6182TIP3    H140037   1.887   1.042  16.641 -0.4965  0.4935 -1.1975
 6182TIP3    H240038   1.795   1.032  16.521 -1.3105 -1.3379 -0.4528
 6183TIP3   OH240039   3.234   0.946   4.397 -1.0752 -0.1632 -0.1405
 6183TIP3    H140040   3.179   0.909   4.327  1.2686 -2.0417 -1.1250
 6183TIP3    H240041   3.254   0.871   4.453 -0.2854  0.6706  0.7248
 6184TIP3   OH240042   4.648   0.195   2.432 -0.6141  0.1907 -0.3215
 6184TIP3    H140043   4.662   0.106   2.399 -1.9514 -0.5645  1.0023
 6184TIP3    H240044   4.604   0.240   2.360  0.6834  0.0158 -1.2600
 6185TIP3   OH240045   6.039   6.112   4.988  0.6321 -0.2369  0.2382
 6185TIP3    H140046   6.028   6.171   4.913 -0.2756 -0.6062  0.0713
 6185TIP3    H240047   6.127   6.131   5.021  2.5022 -2.4097 -2.9762
 6186TIP3   OH240048   3.882   0.315  16.622 -0.1060 -0.3749  0.1248
 6186TIP3    H140049   3.873   0.266  16.540 -1.9034  0.6777 -0.3719
 6186TIP3    H240050   3.880   0.248  16.690 -1.6710 -1.1119 -0.5785
 6187TIP3   OH240051   1.928   1.626  13.439 -0.5567 -0.6729  0.4650
 6187TIP3    H140052   1.894   1.538  13.457  2.1003 -1.2923  3.3136
 6187TIP3    H240053   1.867   1.685  13.483 -0.7228 -1.3496  1.1638
 6188TIP3   OH240054   2.164   4.001  16.753  0.3690  0.2744 -0.0549
 6188TIP3    H140055   2.108   3.994  16.676 -0.3326  0.1148  0.4565
 6188TIP3    H240056   2.113   4.054  16.815 -0.0785 -1.4812  1.1564
 6189TIP3   OH240057   4.550   5.563  12.196  0.2657 -0.2341  0.0239
 6189TIP3    H140058   4.558   5.658  12.198  1.3370 -0.3241  0.6787
 6189TIP3    H240059   4.561   5.540  12.103  1.3472  0.1916  0.0286
 6190TIP3   OH240060   4.858   1.297   4.278 -0.0977 -0.5872  0.1636
 6190TIP3    H140061   4.912   1.353   4.335 -0.6274  0.3286 -0.2163
 6190TIP3    H240062   4.768   1.317   4.303 -0.6097  2.7828 -3.5315
 6191TIP3   OH240063   4.748   3.315  11.670 -0.4778 -0.0174 -0.2482
 6191TIP3    H140064   4.783   3.292  11.585 -0.1601  0.7716 -0.3382
 6191TIP3    H240065   4.740   3.232  11.717  0.2496 -0.3421 -0.7000
 6192TIP3   OH240066   6.487   4.419  11.343  0.0350 -0.4896  0.0218
 6192TIP3    H140067   6.412   4.392  11.290  2.2531 -0.5359 -3.3700
 6192TIP3    H240068   6.554   4.354  11.326  2.7362  2.4592 -1.7815
 6193TIP3   OH240069   2.892   5.960   4.380  0.0655  0.0046 -0.1234
 6193TIP3    H140070   2.840   5.921   4.450  0.5551 -0.7961 -0.1967
 6193TIP3    H240071   2.847   6.042   4.359 -0.6218 -0.2184  0.4629
 6194TIP3   OH240072   5.429   1.256   3.703 -0.1578  0.3620  0.4932
 6194TIP3    H140073   5.377   1.278   3.781 -0.8697 -0.6001  0.3082
 6194TIP3    H240074   5.429   1.160   3.701 -1.6542  0.3430 -1.6595
 6195TIP3   OH240075   6.376   2.693   0.822  0.4134 -0.0836  0.3925
 6195TIP3    H140076   6.412   2.780   0.806 -0.7522  0.6808  1.7313
 6195TIP3    H240077   6.433   2.654   0.888  1.1588 -0.5218 -0.4793
 6196TIP3   OH240078   4.439   2.991  14.661 -0.3485 -0.6905  0.7509
 6196TIP3    H140079   4.522   2.947  14.680 -0.1231 -0.3686  0.5098
 6196TIP3    H240080   4.462   3.084  14.655 -0.8225 -0.5327  1.2635
 6197TIP3   OH240081   0.733   0.244  12.473 -0.3941 -0.0764  0.1513
 6197TIP3    H140082   0.762   0.294  12.397 -0.0468  0.1154  0.4088
 6197TIP3    H240083   0.768   0.156  12.459 -1.1003 -0.2834 -0.3571
 6198TIP3   OH240084   2.973   5.235   1.323 -0.2994  0.0057 -0.0322
 6198TIP3    H140085   2.886   5.266   1.296 -1.1086 -1.6735  0.4641
 6198TIP3    H240086   3.010   5.197   1.243  0.2146  1.1482 -0.3617
 6199TIP3   OH240087   0.171   5.227   3.962 -0.0428  0.1519 -0.2540
 6199TIP3    H140088   0.176   5.279   3.882 -0.6402 -1.6740 -1.5552
 6199TIP3    H240089   0.259   5.233   4.000  1.2438 -1.3527 -2.7121
 6200TIP3   OH240090   6.176   0.037   3.039  0.2239 -0.7120 -0.4630
 6200TIP3    H140091   6.226  -0.038   3.073  1.0224 -0.2013 -0.4751
 6200TIP3    H240092   6.156   0.089   3.116 -1.1607 -1.3940 -0.3267
 6201TIP3   OH240093   3.299   1.339  15.289  0.0493 -0.6335 -0.0844
 6201TIP3    H140094   3.344   1.287  15.355 -1.8917 -0.6613  1.2936
 6201TIP3    H240095   3.368   1.391  15.248  1.3856 -0.9716  1.6465
 6202TIP3   OH240096   2.700   4.070  16.101  0.0233 -0.5564  0.2285
 6202TIP3    H140097   2.629   4.129  16.075 -0.7420 -0.5947  2.1248
 6202TIP3    H240098   2.733   4.106  16.183  1.0295 -1.5280  0.2729
 6203TIP3   OH240099   1.530   0.274   5.775  0.2865  0.0781  0.0297
 6203TIP3    H140100   1.456   0.250   5.719  1.0990  0.3903 -1.2157
 6203TIP3    H240101   1.557   0.192   5.815 -1.2262  0.0807  1.1510
 6204TIP3   OH240102   5.843   2.324   3.920  0.3350 -0.0414 -0.3602
 6204TIP3    H140103   5.844   2.229   3.933  1.9697  0.2202  1.9696
 6204TIP3    H240104   5.920   2.342   3.866 -0.3742 -0.0539 -1.4211
 6205TIP3   OH240105   1.773   6.637   4.280  0.1296 -1.0270 -0.3720
 6205TIP3    H140106   1.737   6.580   4.349 -0.9205  2.5560  2.3344
 6205TIP3    H240107   1.700   6.692   4.253  1.6194  0.7212 -1.0049
 6206TIP3   OH240108   6.478   2.569  15.431  0.0549  0.2141  0.3624
 6206TIP3    H140109   6.453   2.662  15.431 -1.6476 -0.2217 -0.0179
 6206TIP3    H240110   6.493   2.548  15.339 -1.4380 -0.3502  0.2304
 6207TIP3   OH240111   1.793   3.351  16.331  0.6990  0.1885  0.4709
 6207TIP3    H140112   1.702   3.379  16.334  0.4793 -0.5850  1.1854
 6207TIP3    H240113   1.800   3.297  16.253 -0.5123 -3.1927  2.4758
 6208TIP3   OH240114   2.831   0.757  13.764 -0.0145  0.8754 -0.0830
 6208TIP3    H140115   2.749   0.731  13.806  0.6490 -1.4830 -0.1496
 6208TIP3    H240116   2.813   0.752  13.670  0.1095  0.7302 -0.0983
 6209TIP3   OH240117   1.289   3.748  15.612 -0.3150 -0.1250 -0.4907
 6209TIP3    H140118   1.277   3.785  15.699  0.4139 -0.0777 -0.3985
 6209TIP3    H240119   1.269   3.820  15.552 -0.5074 -0.0641 -0.3518
 6210TIP3   OH240120   2.914   5.354   0.356 -0.4203 -0.2531 -0.4526
 6210TIP3    H140121   2.924   5.449   0.365  1.6338 -0.4036 -0.6397
 6210TIP3    H240122   2.927   5.320   0.445 -0.0680 -0.4265 -0.5699
 6211TIP3   OH240123   0.696   5.569  13.160  0.1793 -0.5003  0.6357
 6211TIP3    H140124   0.783   5.561  13.200 -0.0459 -1.1841  1.0150
 6211TIP3    H240125   0.710   5.542  13.069  0.6244  0.7229  0.3246
 6212TIP3   OH240126   4.139   0.820   1.161 -0.1595  0.0361 -0.5858
 6212TIP3    H140127   4.053   0.841   1.123 -1.0704 -1.8037  0.3483
 6212TIP3    H240128   4.187   0.779   1.089 -0.7534 -0.6185 -0.6186
 6213TIP3   OH240129   3.033   1.164  16.535  0.0684 -0.4513  0.7084
 6213TIP3    H140130   2.951   1.154  16.487  1.2355 -1.0967 -1.2429
 6213TIP3    H240131   3.029   1.253  16.571 -0.3560  0.5673 -1.6702
 6214TIP3   OH240132   1.739   1.840  12.206  0.4793  0.1152 -0.0746
 6214TIP3    H140133   1.690   1.780  12.150  0.6693 -0.5896  0.4908
 6214TIP3    H240134   1.755   1.916  12.152 -1.2075  0.3585 -0.2996
 6215TIP3   OH240135   6.736   0.568  16.100 -0.2518  0.0014  0.0104
 6215TIP3    H140136   6.659   0.559  16.155  1.0672  0.2429  1.9928
 6215TIP3    H240137   6.753   0.480  16.067 -1.1069 -0.1300 -0.0913
 6216TIP3   OH240138   1.988   1.899   5.758  0.1049  0.0774  0.1202
 6216TIP3    H140139   1.897   1.880   5.734 -0.7260  0.8678  2.3987
 6216TIP3    H240140   2.007   1.983   5.716 -0.0500 -0.2810 -0.6916
 6217TIP3   OH240141   5.557   6.067  12.068 -0.1203 -0.1751  0.1341
 6217TIP3    H140142   5.552   6.053  12.163 -1.3013 -1.1658 -0.0411
 6217TIP3    H240143   5.552   5.979  12.030  0.8962  0.1662 -0.8454
 6218TIP3   OH240144   2.129   3.022   3.687  0.1023 -0.8226 -0.7476
 6218TIP3    H140145   2.098   2.989   3.603 -2.7705  0.5617 -0.3502
 6218TIP3    H240146   2.051   3.024   3.743  1.4837  0.3037  1.2902
 6219TIP3   OH240147   0.104   6.818  12.044  0.1619 -0.5153  0.2216
 6219TIP3    H140148   0.072   6.730  12.024 -0.6541  0.3245 -2.6977
 6219TIP3    H240149   0.184   6.827  11.992  0.8027  0.1307  1.2956
 6220TIP3   OH240150   5.709   2.327  13.320  0.1608 -0.1117 -0.2513
 6220TIP3    H140151   5.800   2.344  13.345  0.4243 -1.0670 -0.5088
 6220TIP3    H240152   5.678   2.263  13.385 -0.8418  1.3582  0.7813
 6221TIP3   OH240153   2.290   6.409   5.651  0.0187 -0.0965 -0.2120
 6221TIP3    H140154   2.267   6.375   5.737 -0.0637  0.1584 -0.1309
 6221TIP3    H240155   2.370   6.459   5.667 -0.5278  0.7697 -0.0907
 6222TIP3   OH240156   2.077   3.189  15.766  0.0433  0.6690 -0.5432
 6222TIP3    H140157   2.047   3.199  15.675  1.6148  0.3045 -1.1296
 6222TIP3    H240158   2.063   3.275  15.805  0.0241  1.0491 -1.3521
 6223TIP3   OH240159   5.228   1.450   2.206  0.3311 -1.6189  0.5655
 6223TIP3    H140160   5.238   1.361   2.240 -2.7617 -1.8180  1.2166
 6223TIP3    H240161   5.149   1.483   2.247  0.7502  1.0449 -0.5688
 6224TIP3   OH240162   0.965   1.357  12.671  0.2626  0.1830 -0.2277
 6224TIP3    H140163   1.026   1.422  12.705 -0.7707  2.3349 -2.2506
 6224TIP3    H240164   1.012   1.274  12.680  2.5834  1.4600  0.3099
 6225TIP3   OH240165   4.126   0.237   0.518 -0.2095 -0.0060 -0.2076
 6225TIP3    H140166   4.102   0.179   0.591 -1.4249  0.7843  0.0473
 6225TIP3    H240167   4.179   0.306   0.558  0.6619 -0.5422 -0.3994
 6226TIP3   OH240168   4.116   0.181  11.587  0.2573  0.7505 -0.0624
 6226TIP3    H140169   4.182   0.125  11.627  0.1046  0.1449 -0.6482
 6226TIP3    H240170   4.165   0.260  11.562  0.6516  0.5298 -0.0013
 6227TIP3   OH240171   6.478   2.952  16.126 -0.3527  0.0852  0.7734
 6227TIP3    H140172   6.517   2.937  16.040  1.1226  1.8844  1.0557
 6227TIP3    H240173   6.397   2.999  16.108 -0.5769 -0.4671  0.3268
 6228TIP3   OH240174   4.288   0.570   5.005  0.0946  0.4344  0.2670
 6228TIP3    H140175   4.310   0.588   4.913  1.3643  0.4464  0.5582
 6228TIP3    H240176   4.199   0.603   5.015 -0.5313 -0.6613 -1.2690
 6229TIP3   OH240177   5.299   5.501  16.225  0.1366  0.7258  0.3597
 6229TIP3    H140178   5.341   5.572  16.177  0.9991  0.2555  0.3977
 6229TIP3    H240179   5.289   5.536  16.314  1.4178  0.4868  0.6214
 6230TIP3   OH240180   3.709   0.249  15.201  0.1306  0.9305  0.0094
 6230TIP3    H140181   3.668   0.211  15.279 -0.1924  0.9031 -0.1751
 6230TIP3    H240182   3.644   0.238  15.132 -0.6015  3.1339  0.2779
 6231TIP3   OH240183   1.855   5.189  17.092 -0.1662  0.5400 -0.1840
 6231TIP3    H140184   1.937   5.209  17.138  0.3529 -1.0604 -0.3674
 6231TIP3    H240185   1.794   5.163  17.161 -0.6553  2.0360 -0.0114
 6232TIP3   OH240186   3.018   2.705   4.046  0.7204  0.1089 -0.9461
 6232TIP3    H140187   2.958   2.761   4.095  0.8242  0.9655 -1.7786
 6232TIP3    H240188   2.964   2.630   4.020  0.6900 -0.4221  0.5414
 6233TIP3   OH240189   3.287   2.241   2.886 -0.0884 -0.2089 -0.1987
 6233TIP3    H140190   3.249   2.155   2.869 -0.2605 -0.2019  0.1390
 6233TIP3    H240191   3.290   2.248   2.981 -2.1047  1.0287 -0.1687
 6234TIP3   OH240192   3.219   0.366  15.072  0.2143  0.1578 -0.3774
 6234TIP3    H140193   3.245   0.414  15.151  1.8314 -0.1525 -0.6868
 6234TIP3    H240194   3.180   0.432  15.015  2.1300  1.1072 -0.6721
 6235TIP3   OH240195   6.611   4.403  17.229 -0.0686  0.8076  0.5354
 6235TIP3    H140196   6.691   4.360  17.198 -1.2599 -0.0261 -1.6547
 6235TIP3    H240197   6.637   4.493  17.246  1.1849  0.7817 -0.9753
 6236TIP3   OH240198   0.070   5.708   3.305 -0.2352  0.0728 -0.2867
 6236TIP3    H140199   0.047   5.630   3.254 -0.2910  0.2536 -0.5427
 6236TIP3    H240200   0.093   5.774   3.239 -1.1228  0.5722 -0.1152
 6237TIP3   OH240201   5.873   0.221  12.020  0.3970 -0.1574  0.3076
 6237TIP3    H140202   5.784   0.240  11.989  0.6699  1.2278  0.3150
 6237TIP3    H240203   5.904   0.304  12.056  1.1554 -1.0026  1.6810
 6238TIP3   OH240204   5.455   4.757   4.138  0.4362  0.3026 -0.5496
 6238TIP3    H140205   5.362   4.736   4.145  0.6277 -0.5060 -0.3283
 6238TIP3    H240206   5.483   4.771   4.229  0.9420 -1.3322 -0.4323
 6239TIP3   OH240207   2.353   5.219   0.691 -0.5154  0.5029  0.3799
 6239TIP3    H140208   2.290   5.193   0.758 -0.8933 -0.3602 -0.2870
 6239TIP3    H240209   2.310   5.198   0.608  0.4639  0.3166 -0.0956
 6240TIP3   OH240210   5.595   3.250  12.684 -0.5624  0.3286  0.0257
 6240TIP3    H140211   5.626   3.162  12.705 -0.8054  0.5442  1.3928
 6240TIP3    H240212   5.662   3.308  12.719 -0.8932  0.7065  0.0392
 6241TIP3   OH240213   2.669   5.085   4.365 -0.1759 -0.0368  0.8889
 6241TIP3    H140214   2.649   4.995   4.341  1.3974 -0.4237  0.9085
 6241TIP3    H240215   2.613   5.138   4.309  0.5555 -0.9966 -0.8245
 6242TIP3   OH240216   4.307   5.959  13.960 -0.1105  0.0784  0.0870
 6242TIP3    H140217   4.325   5.988  13.870 -0.1880  1.6669  0.5464
 6242TIP3    H240218   4.233   5.899  13.952 -0.5814  0.7628 -0.8447
 6243TIP3   OH240219   1.478   4.842  14.045 -0.3172 -0.1029  0.7229
 6243TIP3    H140220   1.386   4.867  14.054 -0.5316 -1.3958  2.7231
 6243TIP3    H240221   1.524   4.924  14.029 -1.9849  0.3831 -2.6041
 6244TIP3   OH240222   3.833   6.570   2.864  0.0117 -0.2171 -0.1319
 6244TIP3    H140223   3.830   6.589   2.771 -0.3229 -0.5373 -0.1878
 6244TIP3    H240224   3.880   6.644   2.903 -2.7970  1.6485 -0.0768
 6245TIP3   OH240225   1.867   4.225  15.650  0.3038 -0.5595 -0.3850
 6245TIP3    H140226   1.881   4.210  15.557 -0.2235 -0.4096 -0.4965
 6245TIP3    H240227   1.914   4.155  15.694  0.6349 -0.5731 -0.7634
 6246TIP3   OH240228   2.139   5.509   4.446  0.7831 -0.0540 -0.4349
 6246TIP3    H140229   2.152   5.592   4.493 -0.2549 -0.0436 -0.1291
 6246TIP3    H240230   2.171   5.442   4.507  0.9290  0.0678 -0.3755
 6247TIP3   OH240231   6.248   5.549  10.631 -0.5287 -0.0027  0.6414
 6247TIP3    H140232   6.289   5.539  10.545  1.1398  1.7157  1.1554
 6247TIP3    H240233   6.155   5.537  10.615 -0.1056 -1.7288 -1.0219
 6248TIP3   OH240234   6.756   0.655  14.310  0.6949 -0.4728 -0.5466
 6248TIP3    H140235   6.801   0.653  14.226 -1.1250  1.0398 -1.6224
 6248TIP3    H240236   6.794   0.730  14.355 -1.4848  1.6113 -1.9787
 6249TIP3   OH240237   1.762   5.373   1.942  0.0144  0.1752  0.2559
 6249TIP3    H140238   1.702   5.367   2.016 -0.8238  0.4289 -0.3921
 6249TIP3    H240239   1.849   5.367   1.981 -0.3461  2.3190  1.4920
 6250TIP3   OH240240   4.095   2.592   0.303  0.1447  0.0542 -0.4677
 6250TIP3    H140241   4.156   2.632   0.240 -0.1005 -1.2782 -1.5962
 6250TIP3    H240242   4.072   2.663   0.362  1.1296  1.1220 -1.3178
 6251TIP3   OH240243   1.058   3.184  11.132 -0.5132 -0.2607 -0.6290
 6251TIP3    H140244   1.148   3.217  11.129 -1.4573  2.5889 -2.8501
 6251TIP3    H240245   1.007   3.250  11.085 -3.9975 -1.1850  1.4666
 6252TIP3   OH240246   2.748   5.487   4.340 -0.1371 -0.0802  0.1349
 6252TIP3    H140247   2.762   5.429   4.266  1.3526  0.7711 -0.2972
 6252TIP3    H240248   2.791   5.443   4.414 -1.8992 -1.0826  0.6090
 6253TIP3   OH240249   5.728   0.298  14.943 -0.0488 -0.3890 -0.3013
 6253TIP3    H140250   5.666   0.288  14.871  0.7488 -0.2408 -1.0275
 6253TIP3    H240251   5.733   0.393  14.956  0.2175 -0.3856 -0.4232
 6254TIP3   OH240252   1.850   3.077  11.414  0.3809  0.1842 -0.8794
 6254TIP3    H140253   1.844   2.982  11.424  0.0657  0.2830 -0.0253
 6254TIP3    H240254   1.944   3.095  11.410  0.5479  0.0070  1.1032
 6255TIP3   OH240255   3.725   1.759  12.564  0.1839  0.8613  0.0688
 6255TIP3    H140256   3.765   1.808  12.636 -0.5983  1.8710 -0.1661
 6255TIP3    H240257   3.687   1.825  12.507 -2.5147 -0.0372  0.6780
 6256TIP3   OH240258   5.953   4.016  14.048 -0.2931  0.3059 -0.3408
 6256TIP3    H140259   5.871   3.998  14.093 -0.4562  1.2320 -0.2560
 6256TIP3    H240260   5.939   4.099  14.003  1.3084  1.6320  1.4543
 6257TIP3   OH240261   3.968   5.385  14.718  0.4314 -0.1480 -0.1303
 6257TIP3    H140262   4.032   5.434  14.666  0.1133  0.6378  0.2011
 6257TIP3    H240263   3.917   5.336  14.654  0.6936  0.0256 -0.4736
 6258TIP3   OH240264   0.257   1.086  16.660 -0.1912  0.1786  0.0525
 6258TIP3    H140265   0.253   1.175  16.626  0.4067  0.0206 -0.4343
 6258TIP3    H240266   0.198   1.087  16.736  0.8461  1.3595  0.8962
 6259TIP3   OH240267   4.982   1.513  11.178  0.0984  0.3080 -0.2484
 6259TIP3    H140268   4.990   1.501  11.083 -1.1252 -1.5759 -0.1478
 6259TIP3    H240269   4.900   1.561  11.190 -0.2490 -0.3210 -0.0945
 6260TIP3   OH240270   5.367   3.420  13.118 -0.0890 -0.1768  0.0327
 6260TIP3    H140271   5.385   3.361  13.192  0.1611  0.9839  0.9273
 6260TIP3    H240272   5.452   3.428  13.073  0.2013  0.5134  0.6830
 6261TIP3   OH240273   2.622   0.586   2.562  0.3866  0.5813  0.3607
 6261TIP3    H140274   2.657   0.675   2.556  1.3698  0.3092  1.6348
 6261TIP3    H240275   2.572   0.585   2.644  1.5369 -0.4018  1.0783
 6262TIP3   OH240276   5.683   3.423   0.427 -0.6699 -0.0883  0.2136
 6262TIP3    H140277   5.610   3.484   0.439 -0.5179  0.0033  0.6768
 6262TIP3    H240278   5.757   3.464   0.472 -0.6019 -0.6828  0.6528
 6263TIP3   OH240279   4.360   6.296   6.192 -0.1283  0.4264 -0.1157
 6263TIP3    H140280   4.277   6.273   6.234  0.1274 -1.1000 -0.3830
 6263TIP3    H240281   4.422   6.231   6.225  0.4344  0.1441 -1.6306
 6264TIP3   OH240282   1.581   4.765  15.267  0.3727 -0.0258  0.3759
 6264TIP3    H140283   1.513   4.823  15.302  0.5287  0.5259 -0.2129
 6264TIP3    H240284   1.657   4.821  15.256  0.8728 -0.6036  0.8587
 6265TIP3   OH240285   0.488   0.025   5.865 -0.3794  0.3593 -0.4585
 6265TIP3    H140286   0.521  -0.044   5.923  0.3621  0.2766 -0.9659
 6265TIP3    H240287   0.527   0.105   5.899 -0.6009  0.4229 -0.3525
 6266TIP3   OH240288   2.737   0.590   1.763  0.4955  0.2387 -0.2313
 6266TIP3    H140289   2.758   0.676   1.800  0.1745  1.1293 -2.0087
 6266TIP3    H240290   2.710   0.609   1.673 -1.2423 -1.5369 -0.1610
 6267TIP3   OH240291   1.966   6.423  15.138 -0.1943  0.2091  0.3514
 6267TIP3    H140292   1.932   6.511  15.148  1.4716  0.8981  0.2727
 6267TIP3    H240293   2.060   6.431  15.155 -0.2441 -1.8492  2.0082
 6268TIP3   OH240294   1.537   4.657  10.435  0.3756 -0.0854  0.1867
 6268TIP3    H140295   1.624   4.692  10.453  1.2548 -1.2944 -1.4521
 6268TIP3    H240296   1.525   4.588  10.501  0.0988  0.8817  1.1883
 6269TIP3   OH240297   0.120   2.162  15.322 -0.0343  0.4126  0.0851
 6269TIP3    H140298   0.153   2.077  15.293 -0.1140 -0.0845  1.3801
 6269TIP3    H240299   0.133   2.161  15.417 -1.4742  1.2183  0.3142
 6270TIP3   OH240300   6.250   6.709  13.849  0.1003  0.4143  0.0232
 6270TIP3    H140301   6.320   6.660  13.892  2.4519  1.4466 -2.3440
 6270TIP3    H240302   6.222   6.652  13.778  2.5190  2.0461 -2.4486
 6271TIP3   OH240303   6.381   5.189  10.793 -0.0723  0.4592 -0.2445
 6271TIP3    H140304   6.446   5.122  10.772 -0.3178  0.2719 -0.4067
 6271TIP3    H240305   6.329   5.151  10.864 -1.1963 -0.1617 -1.3700
 6272TIP3   OH240306   0.613   5.295   2.724  0.4466 -0.2425  0.4004
 6272TIP3    H140307   0.523   5.325   2.737  0.2843 -0.5073 -0.0897
 6272TIP3    H240308   0.654   5.364   2.672  1.0491  0.7353  2.0721
 6273TIP3   OH240309   4.157   1.944   4.052 -0.1019  0.0959 -0.4914
 6273TIP3    H140310   4.117   1.901   3.976 -0.9811 -2.2287  1.1632
 6273TIP3    H240311   4.099   2.017   4.072 -1.8069 -1.2596 -0.1384
 6274TIP3   OH240312   0.554   4.297  13.896  0.1641  0.4207 -0.4521
 6274TIP3    H140313   0.638   4.256  13.876 -0.7261 -0.5477 -2.4751
 6274TIP3    H240314   0.562   4.324  13.987  2.5684  0.1409 -0.5062
 6275TIP3   OH240315   3.097   4.037   1.970  0.5157 -0.0034 -0.6415
 6275TIP3    H140316   3.179   3.988   1.972  0.7944  0.3899 -1.6790
 6275TIP3    H240317   3.049   4.007   2.048  0.7251 -1.8129 -1.1550
 6276TIP3   OH240318   6.076   4.743  14.045 -0.4060 -0.3096 -0.1056
 6276TIP3    H140319   6.041   4.664  14.086 -1.6395  0.4475  0.3674
 6276TIP3    H240320   6.171   4.733  14.052 -0.3783 -2.9928 -2.4831
 6277TIP3   OH240321   4.443   4.503   4.871  0.1057 -0.4281  0.3410
 6277TIP3    H140322   4.357   4.538   4.851  1.2317  1.3809 -1.8022
 6277TIP3    H240323   4.464   4.538   4.958 -0.0331  1.8840 -0.4980
 6278TIP3   OH240324   5.100   5.197  13.108  0.4467  0.2238 -0.0603
 6278TIP3    H140325   5.115   5.136  13.036  2.4867 -0.9666  1.3054
 6278TIP3    H240326   5.026   5.159  13.157  1.3137 -0.8695  0.4350
 6279TIP3   OH240327   0.721   1.486   3.913  0.0615  0.1019 -0.2993
 6279TIP3    H140328   0.630   1.462   3.932  0.5625 -0.8099  1.1284
 6279TIP3    H240329   0.758   1.506   3.999  1.5992 -0.9639 -0.6809
 6280TIP3   OH240330   5.286   0.062   4.115 -0.2069  0.7567  0.1149
 6280TIP3    H140331   5.342   0.132   4.150 -1.2609  0.6414  2.1514
 6280TIP3    H240332   5.197   0.093   4.128 -0.6815  0.4460 -2.0646
 6281TIP3   OH240333   4.397   6.694   6.387 -0.1812 -0.8016 -0.7768
 6281TIP3    H140334   4.444   6.619   6.424 -0.4268  0.0678  1.4677
 6281TIP3    H240335   4.306   6.667   6.387 -0.2834 -0.4894  0.1423
 6282TIP3   OH240336   4.275   0.476   1.848 -0.3824  0.0301  0.1569
 6282TIP3    H140337   4.268   0.571   1.848  0.2191  0.0978 -1.1905
 6282TIP3    H240338   4.190   0.446   1.815  0.2120  0.2206 -1.6412
 6283TIP3   OH240339   1.290   3.341   4.863  0.1848  0.6102 -0.6693
 6283TIP3    H140340   1.355   3.281   4.827 -0.2181 -0.6154  0.5622
 6283TIP3    H240341   1.268   3.305   4.948 -2.0866  0.9993 -1.0127
 6284TIP3   OH240342   6.195   5.707  12.194  0.0511 -0.0167 -0.5807
 6284TIP3    H140343   6.108   5.734  12.222 -0.4867  0.8859 -2.9700
 6284TIP3    H240344   6.193   5.611  12.198 -1.2271 -0.0252 -1.0785
 6285TIP3   OH240345   3.702   0.007   3.483  0.5883  0.1808  0.3478
 6285TIP3    H140346   3.631  -0.008   3.545  0.1856  0.0686 -0.1283
 6285TIP3    H240347   3.658   0.007   3.397  1.2428 -0.5021 -0.0013
 6286TIP3   OH240348   2.675   1.548  11.121 -0.1208 -0.3350  0.2728
 6286TIP3    H140349   2.721   1.518  11.043  0.5495  0.4928  0.3351
 6286TIP3    H240350   2.679   1.644  11.116 -1.9433 -0.2306  0.2243
 6287TIP3   OH240351   4.782   5.281   1.379 -0.0535 -0.0735  0.0156
 6287TIP3    H140352   4.831   5.246   1.453 -0.1672  0.7175  0.4828
 6287TIP3    H240353   4.843   5.277   1.306  0.3723 -0.0331  0.3653
 6288TIP3   OH240354   4.965   3.239  14.581  0.0969  0.3363  0.0300
 6288TIP3    H140355   4.932   3.193  14.658  0.3684 -0.1247 -0.1221
 6288TIP3    H240356   4.945   3.331  14.597 -0.5689  0.1517  0.2830
 6289TIP3   OH240357   1.954   1.679  15.190 -0.0757  0.2533  0.1804
 6289TIP3    H140358   1.886   1.709  15.130  0.0270  0.9789  0.4120
 6289TIP3    H240359   1.946   1.737  15.266  0.0599 -0.3956  0.6942
 6290TIP3   OH240360   2.472   4.285  11.256  0.1289  0.1597 -0.3696
 6290TIP3    H140361   2.472   4.316  11.166 -1.6731  1.4073  0.0236
 6290TIP3    H240362   2.394   4.229  11.263  0.3511 -0.0757  0.3786
 6291TIP3   OH240363   6.634   0.934   4.907 -0.7744 -0.6521 -0.5694
 6291TIP3    H140364   6.677   1.005   4.860  0.4369 -0.6038  0.5441
 6291TIP3    H240365   6.542   0.958   4.908 -0.3475  1.0994  0.0811
 6292TIP3   OH240366   5.934   2.020   3.930  0.0945 -0.1806 -0.5624
 6292TIP3    H140367   5.985   2.058   4.001 -1.5857  1.1205  0.0150
 6292TIP3    H240368   5.999   1.981   3.871  1.7669  1.6534 -0.0341
 6293TIP3   OH240369   2.202   4.109  13.228  0.5793  0.0162  0.4543
 6293TIP3    H140370   2.258   4.174  13.270  1.3095 -0.1199 -0.2971
 6293TIP3    H240371   2.260   4.060  13.171 -0.2094 -0.4777  0.0587
 6294TIP3   OH240372   5.759   2.655   2.226 -0.1881  0.8301  0.6147
 6294TIP3    H140373   5.688   2.705   2.266 -0.7795 -0.5868  1.3969
 6294TIP3    H240374   5.745   2.665   2.132 -0.4701  1.8605  0.7522
 6295TIP3   OH240375   6.514   1.037   3.293  0.2203  0.5015 -0.1651
 6295TIP3    H140376   6.557   1.077   3.218  2.5884  0.0108  0.8399
 6295TIP3    H240377   6.534   0.944   3.286  1.4424  0.5686  1.5861
 6296TIP3   OH240378   3.514   4.560   1.084  0.1129  0.1568  0.5316
 6296TIP3    H140379   3.538   4.490   1.144  1.1868  0.5987  0.6310
 6296TIP3    H240380   3.482   4.631   1.140  0.1863  0.2041  0.5139
 6297TIP3   OH240381   5.723   0.195  17.306  0.0841  0.2178  0.3012
 6297TIP3    H140382   5.783   0.225  17.374 -0.7032  0.3181  0.9563
 6297TIP3    H240383   5.660   0.266  17.296  2.1668  1.8526 -3.0725
 6298TIP3   OH240384   4.641   0.863   6.601 -0.2378  0.6387  0.2505
 6298TIP3    H140385   4.581   0.836   6.670  1.6434 -1.1680  1.2965
 6298TIP3    H240386   4.620   0.805   6.527 -2.6980  3.0094 -1.0728
 6299TIP3   OH240387   4.243   0.693  15.837 -0.2657  0.1542 -0.1807
 6299TIP3    H140388   4.152   0.663  15.832  0.1591 -1.2849  0.3095
 6299TIP3    H240389   4.261   0.697  15.931  0.5706 -0.8548 -0.2845
 6300TIP3   OH240390   5.421   3.885   6.433 -0.1965  0.0367  0.2742
 6300TIP3    H140391   5.327   3.891   6.419 -0.4257  0.2686  1.7178
 6300TIP3    H240392   5.451   3.976   6.431  0.1049 -0.0675 -0.7053
 6301TIP3   OH240393   6.653   0.936   0.816 -0.1440 -0.0307 -0.0071
 6301TIP3    H140394   6.665   0.918   0.909  1.4362 -0.4831 -0.2753
 6301TIP3    H240395   6.729   0.989   0.792 -0.8260  0.5616 -0.9309
 6302TIP3   OH240396   1.782   3.955  12.168  0.7041 -0.4304 -0.1745
 6302TIP3    H140397   1.842   4.016  12.209  1.4536 -0.9254 -0.5061
 6302TIP3    H240398   1.832   3.874  12.160  0.0389 -0.8119 -0.5859
 6303TIP3   OH240399   0.508   1.426   1.476  0.1717 -0.0949 -0.2811
 6303TIP3    H140400   0.460   1.398   1.397  0.4569  1.6635 -1.1281
 6303TIP3    H240401   0.554   1.348   1.505 -0.2026 -0.8674 -1.6807
 6304TIP3   OH240402   6.238   5.435   2.452  0.2094 -0.3449 -0.2037
 6304TIP3    H140403   6.205   5.505   2.396 -0.0776  1.3656  1.9128
 6304TIP3    H240404   6.161   5.384   2.476  0.0475 -0.0167 -0.0134
 6305TIP3   OH240405   4.865   4.179  16.228  0.1365 -0.5367  0.0030
 6305TIP3    H140406   4.793   4.236  16.254 -0.9099 -0.5486 -2.5181
 6305TIP3    H240407   4.846   4.095  16.270 -0.2722 -0.0066  0.8829
 6306TIP3   OH240408   3.231   4.981   5.023  0.4957  0.3759  0.7132
 6306TIP3    H140409   3.180   5.061   5.035  0.3514  0.2104  1.2568
 6306TIP3    H240410   3.166   4.914   5.001  0.3156 -0.0664  2.4357
 6307TIP3   OH240411   5.115   3.173  16.096 -0.1893 -0.0039  0.1470
 6307TIP3    H140412   5.104   3.109  16.167 -1.2992 -0.0264 -0.0376
 6307TIP3    H240413   5.186   3.230  16.127 -0.1492 -0.4614  0.9465
 6308TIP3   OH240414   6.766   0.914  11.295  0.1354  0.0537  0.4669
 6308TIP3    H140415   6.859   0.914  11.316  0.7773 -0.8565 -1.9731
 6308TIP3    H240416   6.758   0.975  11.221 -1.3417  0.6236  1.0559
 6309TIP3   OH240417   4.061   6.146  13.358 -0.0566 -0.0601  0.0997
 6309TIP3    H140418   4.077   6.207  13.286 -2.0049  0.1822 -0.1975
 6309TIP3    H240419   4.052   6.061  13.315  1.0864 -0.3068  0.3353
 6310TIP3   OH240420   6.142   1.593   3.742  0.1666 -0.2106  0.8413
 6310TIP3    H140421   6.125   1.503   3.770  1.8231 -0.1582  2.1476
 6310TIP3    H240422   6.221   1.586   3.688  0.4210  0.4919  1.1247
 6311TIP3   OH240423   1.842   6.621   0.038 -0.4732  0.3872  0.0835
 6311TIP3    H140424   1.765   6.628  -0.018 -0.7126  2.6856  0.6004
 6311TIP3    H240425   1.906   6.681  -0.000  0.7211 -0.7363  0.2334
 6312TIP3   OH240426   0.484   3.592  13.856  0.6457 -0.4683 -0.6428
 6312TIP3    H140427   0.447   3.534  13.922 -1.0801  0.0228 -1.1450
 6312TIP3    H240428   0.515   3.533  13.787 -0.5207 -0.8519 -0.8649
 6313TIP3   OH240429   0.760   4.743  11.024 -0.4902 -0.4092  0.1368
 6313TIP3    H140430   0.835   4.687  11.004  0.3071  1.0594 -1.2618
 6313TIP3    H240431   0.704   4.738  10.947 -0.0744  1.1560 -0.3172
 6314TIP3   OH240432   2.381   3.084   6.764  0.2351 -0.1965 -0.0161
 6314TIP3    H140433   2.458   3.095   6.819 -0.3838  1.0259  0.6464
 6314TIP3    H240434   2.380   2.990   6.742  2.5684 -0.0365 -1.0768
 6315TIP3   OH240435   2.267   3.806   2.401 -0.9612  0.4199 -0.0923
 6315TIP3    H140436   2.239   3.714   2.399 -1.7357  0.6305 -2.7087
 6315TIP3    H240437   2.195   3.852   2.444 -1.1795 -0.0331  0.0310
 6316TIP3   OH240438   1.262   3.722   3.984  0.2157  0.0791 -0.2233
 6316TIP3    H140439   1.202   3.795   3.969  1.1210  1.1587  1.1722
 6316TIP3    H240440   1.310   3.714   3.901  1.1785  2.1306  0.0694
 6317TIP3   OH240441   5.862   1.027   3.155  0.2911 -0.2646 -0.4704
 6317TIP3    H140442   5.863   1.044   3.249  0.7983  0.7768 -0.6452
 6317TIP3    H240443   5.911   1.100   3.117  2.4095 -2.0082 -1.3429
 6318TIP3   OH240444   4.539   4.603   0.413 -0.0910  0.0827  0.0497
 6318TIP3    H140445   4.545   4.679   0.354 -0.7623  0.3304  0.2952
 6318TIP3    H240446   4.468   4.550   0.377 -0.3461  0.1156  0.5016
 6319TIP3   OH240447   3.659   6.628   4.657  0.2521  0.3460  0.2642
 6319TIP3    H140448   3.569   6.640   4.688 -0.0410  0.3440 -0.5711
 6319TIP3    H240449   3.651   6.570   4.581  0.8295  1.2306 -0.4940
 6320TIP3   OH240450   2.283   5.776  14.041 -0.5972 -0.5585 -0.0526
 6320TIP3    H140451   2.205   5.832  14.033 -0.5453 -0.3675  0.7124
 6320TIP3    H240452   2.265   5.721  14.117  0.9435  1.0449  1.5629
 6321TIP3   OH240453   5.160   5.102   0.438 -0.0314  0.4012 -0.2624
 6321TIP3    H140454   5.116   5.023   0.405  1.5650 -0.5723 -0.1870
 6321TIP3    H240455   5.219   5.128   0.367  0.1026  1.0058  0.0623
 6322TIP3   OH240456   5.773   1.228   5.528 -0.3424  0.0690 -0.3099
 6322TIP3    H140457   5.751   1.139   5.501  0.2653 -0.1317 -0.1604
 6322TIP3    H240458   5.698   1.256   5.579 -0.1883 -0.6710  0.3470
 6323TIP3   OH240459   0.387   4.712  15.727 -0.2616 -0.2092  0.1993
 6323TIP3    H140460   0.476   4.720  15.763  0.0399  0.0722 -0.5683
 6323TIP3    H240461   0.394   4.642  15.662 -0.2650  0.7139 -0.8210
 6324TIP3   OH240462   2.963   6.073  16.084 -1.3259 -0.2254 -0.0989
 6324TIP3    H140463   2.885   6.048  16.035 -0.0458 -1.2034 -1.7606
 6324TIP3    H240464   3.028   6.094  16.016  0.0193  0.0075  1.2092
 6325TIP3   OH240465   0.134   5.750   1.190  0.1450 -0.1219  0.5092
 6325TIP3    H140466   0.192   5.776   1.262  0.4697 -0.2306  0.2895
 6325TIP3    H240467   0.077   5.682   1.228  0.9057 -0.8198  0.4283
 6326TIP3   OH240468   5.997   3.989   3.077 -0.1925  0.6733  0.0895
 6326TIP3    H140469   5.921   4.037   3.111 -1.4715  0.9912 -2.9245
 6326TIP3    H240470   6.072   4.038   3.110 -1.3224  1.5879  1.4542
 6327TIP3   OH240471   5.227   6.303  10.687 -0.0120 -0.0139 -0.6031
 6327TIP3    H140472   5.237   6.369  10.755  0.4682  0.4996 -1.1552
 6327TIP3    H240473   5.317   6.273  10.668 -0.0267  0.5469 -1.6644
 6328TIP3   OH240474   2.691   1.471  16.594 -0.0530 -0.4571  0.2512
 6328TIP3    H140475   2.743   1.550  16.583 -1.1949  0.3371  0.3861
 6328TIP3    H240476   2.632   1.491  16.668 -0.4766 -1.3586  0.1768
 6329TIP3   OH240477   2.004   4.155   3.882  0.4437  0.2492  0.0326
 6329TIP3    H140478   1.947   4.152   3.806 -0.1239  2.2237  0.3024
 6329TIP3    H240479   2.084   4.110   3.855  0.2521  0.9059 -1.7379
 6330TIP3   OH240480   4.863   1.228   4.617 -0.0038 -0.8173 -0.0076
 6330TIP3    H140481   4.944   1.248   4.663  0.0149 -0.4793 -0.1824
 6330TIP3    H240482   4.861   1.290   4.544 -0.7877 -0.3070  0.4296
 6331TIP3   OH240483   0.805   2.253   2.791  0.1909  0.0317 -0.6617
 6331TIP3    H140484   0.880   2.278   2.738 -0.6993  0.2179 -1.8924
 6331TIP3    H240485   0.773   2.335   2.828  0.5856 -0.0483 -0.1334
 6332TIP3   OH240486   4.861   0.040  13.911 -0.4889  0.4335 -0.4720
 6332TIP3    H140487   4.864   0.114  13.850 -0.5147  1.8245  1.1243
 6332TIP3    H240488   4.835   0.080  13.994 -0.4497 -1.3925  0.4525
 6333TIP3   OH240489   0.600   5.189   5.423 -0.6584  0.1414  0.0954
 6333TIP3    H140490   0.595   5.266   5.366 -0.0755  0.6336  0.6941
 6333TIP3    H240491   0.522   5.195   5.478 -1.1011 -0.2090 -0.4851
 6334TIP3   OH240492   1.465   3.699   0.428 -0.5358 -0.2134 -0.0555
 6334TIP3    H140493   1.495   3.788   0.445 -0.6691 -0.4693  1.6453
 6334TIP3    H240494   1.370   3.707   0.420 -0.6924 -0.3672  1.4304
 6335TIP3   OH240495   6.316   0.443   1.588 -0.1445  0.5006  0.6898
 6335TIP3    H140496   6.354   0.464   1.673 -0.2414 -0.0291  0.8663
 6335TIP3    H240497   6.231   0.487   1.588  0.0909  0.9561  0.6462
 6336TIP3   OH240498   6.492   6.302   0.371  0.2730 -0.5822 -0.4601
 6336TIP3    H140499   6.560   6.312   0.438  0.2555 -0.2503 -0.4895
 6336TIP3    H240500   6.496   6.383   0.321 -2.9728  1.4304  2.1023
 6337TIP3   OH240501   0.285   4.076  15.324  0.3793  0.0114  0.5349
 6337TIP3    H140502   0.198   4.115  15.319  0.6357  0.4731 -0.5455
 6337TIP3    H240503   0.345   4.150  15.314  0.8742 -0.6281 -1.5234
 6338TIP3   OH240504   4.994   4.610  13.897  0.8182 -0.0922 -0.0746
 6338TIP3    H140505   5.023   4.559  13.973 -0.2022 -0.5644  0.0264
 6338TIP3    H240506   4.934   4.551  13.850 -0.3591  0.9875  0.0077
 6339TIP3   OH240507   1.429   3.589   2.249  0.2627  0.1074  0.4368
 6339TIP3    H140508   1.457   3.497   2.246 -0.4909 -0.1272  0.1471
 6339TIP3    H240509   1.371   3.593   2.326 -0.0169  0.2393  0.2219
 6340TIP3   OH240510   4.734   6.483   0.205 -0.3004 -0.2808 -0.1911
 6340TIP3    H140511   4.697   6.571   0.218  0.9689  0.0642  1.4669
 6340TIP3    H240512   4.725   6.441   0.290  0.0359 -1.4034 -0.6948
 6341TIP3   OH240513   3.448   4.689  12.598  0.1822 -0.0738 -0.0552
 6341TIP3    H140514   3.491   4.626  12.657  0.3647 -1.2432 -1.3971
 6341TIP3    H240515   3.367   4.711  12.643  0.8842  0.0270  1.2225
 6342TIP3   OH240516   1.839   2.159  16.547  0.0787 -0.7081 -0.2035
 6342TIP3    H140517   1.907   2.226  16.547 -1.6837  1.3226 -3.4310
 6342TIP3    H240518   1.871   2.093  16.486  0.1899 -0.9856  0.1511
 6343TIP3   OH240519   4.835   3.349   1.057  0.0453  0.1091 -0.6133
 6343TIP3    H140520   4.874   3.413   0.997  0.4260  0.0381 -0.4487
 6343TIP3    H240521   4.774   3.400   1.109  1.8263  0.8037  0.9224
 6344TIP3   OH240522   3.226   2.617  13.439  0.4924 -0.3551 -0.0734
 6344TIP3    H140523   3.143   2.572  13.452 -0.7469  1.8036  0.0976
 6344TIP3    H240524   3.275   2.563  13.378 -0.7300 -2.0514  0.3954
 6345TIP3   OH240525   4.257   3.861  15.644 -0.4000  0.5220 -0.6012
 6345TIP3    H140526   4.334   3.896  15.600  0.9329  0.0950  1.2345
 6345TIP3    H240527   4.285   3.850  15.735 -2.4572 -0.2248 -0.0006
 6346TIP3   OH240528   0.454   2.314   3.769 -0.0426 -0.2294  0.2339
 6346TIP3    H140529   0.519   2.247   3.788  0.9742  0.5901 -0.2871
 6346TIP3    H240530   0.505   2.391   3.744 -1.1997  0.5734  0.2646
 6347TIP3   OH240531   4.779   1.668  17.070  0.5147  0.0584  0.2316
 6347TIP3    H140532   4.758   1.575  17.078 -0.7393  0.3396  0.3818
 6347TIP3    H240533   4.865   1.677  17.111  1.5831 -1.3765 -1.5307
 6348TIP3   OH240534   3.720   6.569   5.484  0.8517  0.0447  0.4126
 6348TIP3    H140535   3.658   6.512   5.439  2.1103 -1.0998  0.0402
 6348TIP3    H240536   3.796   6.513   5.499  1.6706  1.3118  1.1241
 6349TIP3   OH240537   6.752   4.657  16.706  0.4394 -0.2640  0.3033
 6349TIP3    H140538   6.658   4.643  16.718  0.7780 -1.5084  1.9385
 6349TIP3    H240539   6.779   4.704  16.785  1.0161  1.1105 -0.6899
 6350TIP3   OH240540   3.122   6.353   2.930 -0.1920 -0.1824 -0.3504
 6350TIP3    H140541   3.191   6.405   2.971  0.3736 -2.6162  2.1185
 6350TIP3    H240542   3.046   6.366   2.987 -0.8592  0.0249 -1.2630
 6351TIP3   OH240543   0.877   3.188   1.309 -0.0173  0.1987 -0.3513
 6351TIP3    H140544   0.826   3.209   1.387 -1.9204  1.5808 -1.8828
 6351TIP3    H240545   0.933   3.265   1.296  0.5160 -0.1586 -0.2208
 6352TIP3   OH240546   3.836   3.601  15.166 -0.0016  0.3168  0.2735
 6352TIP3    H140547   3.880   3.632  15.245 -0.9209 -0.3582  1.0690
 6352TIP3    H240548   3.838   3.676  15.107 -0.7376  1.3690  1.5444
 6353TIP3   OH240549   1.385   5.901   0.897 -0.4113 -0.1811  0.1361
 6353TIP3    H140550   1.473   5.940   0.901  0.3282 -1.6615 -0.8345
 6353TIP3    H240551   1.399   5.815   0.858 -2.2517 -0.6441  0.4273
 6354TIP3   OH240552   3.215   4.851   2.168 -0.2374 -0.0628  0.0626
 6354TIP3    H140553   3.273   4.911   2.216  0.5621  0.4226 -1.4711
 6354TIP3    H240554   3.145   4.832   2.231  1.0693  0.0629  1.6500
 6355TIP3   OH240555   3.809   1.631  15.707 -0.2338 -0.2116  0.3647
 6355TIP3    H140556   3.810   1.721  15.740 -1.4103  0.0244 -0.2132
 6355TIP3    H240557   3.892   1.594  15.738 -0.3880  0.6074  1.8834
 6356TIP3   OH240558   0.655   6.217  11.438 -0.1687  0.5176  0.2110
 6356TIP3    H140559   0.632   6.268  11.515  0.7079 -0.4434  1.1373
 6356TIP3    H240560   0.666   6.127  11.470  0.1702  0.0861 -1.0336
 6357TIP3   OH240561   2.981   6.805  11.903  0.0864 -0.1166  0.3755
 6357TIP3    H140562   3.014   6.726  11.946 -0.3205 -0.8742 -0.6712
 6357TIP3    H240563   2.972   6.781  11.811  2.0384  1.7906 -0.4158
 6358TIP3   OH240564   3.852   2.144   1.022 -0.0556  0.3864 -0.7851
 6358TIP3    H140565   3.818   2.109   1.104  2.9493 -0.2279  0.3385
 6358TIP3    H240566   3.846   2.239   1.031 -1.1314  0.2995 -0.5213
 6359TIP3   OH240567   1.463   0.391   2.558 -0.1221 -0.1946  0.4363
 6359TIP3    H140568   1.482   0.301   2.584 -0.1290 -0.6867 -1.1694
 6359TIP3    H240569   1.379   0.387   2.512  0.7343  0.2770 -1.2744
 6360TIP3   OH240570   3.496   5.527  12.457  0.4078 -0.6417 -0.2306
 6360TIP3    H140571   3.515   5.620  12.460  0.8055 -0.7304  0.0696
 6360TIP3    H240572   3.420   5.520  12.399  1.2848 -0.2813 -1.4625
 6361TIP3   OH240573   6.640   4.797   5.938 -0.3379 -0.0785 -0.3480
 6361TIP3    H140574   6.551   4.825   5.920 -0.3508 -0.2406 -0.5329
 6361TIP3    H240575   6.640   4.777   6.032 -1.4181 -3.3341 -0.9178
 6362TIP3   OH240576   4.133   1.443   6.133  0.5451 -0.8096  0.4607
 6362TIP3    H140577   4.214   1.446   6.184  0.7654 -0.9214  0.1205
 6362TIP3    H240578   4.115   1.350   6.122  1.4194 -0.8299 -1.0954
 6363TIP3   OH240579   3.188   1.004  15.997  0.1840 -0.1177 -0.2997
 6363TIP3    H140580   3.183   1.099  15.986 -2.2287 -0.1523  0.0112
 6363TIP3    H240581   3.101   0.972  15.975  1.1359 -2.3717 -1.1167
 6364TIP3   OH240582   4.406   3.740   1.216 -0.3231  0.2833  0.1202
 6364TIP3    H140583   4.444   3.827   1.201 -2.0069  1.5367  2.5385
 6364TIP3    H240584   4.312   3.753   1.203 -0.8496 -0.6028  2.6565
 6365TIP3   OH240585   3.985   5.821   0.607 -0.4495 -0.8220  0.5422
 6365TIP3    H140586   3.983   5.728   0.628 -0.9191 -1.1944 -1.0485
 6365TIP3    H240587   3.900   5.839   0.568 -0.2213  0.1964  0.4814
 6366TIP3   OH240588   0.153   2.046  10.836 -0.2429  0.1664  0.2739
 6366TIP3    H140589   0.220   2.078  10.776 -1.5946  0.2245 -1.2600
 6366TIP3    H240590   0.166   1.951  10.840  0.5527  0.2903  0.7961
 6367TIP3   OH240591   5.286   5.189   2.352  0.1054  0.1068 -0.2908
 6367TIP3    H140592   5.317   5.110   2.307 -0.2779 -1.1954  1.6561
 6367TIP3    H240593   5.238   5.157   2.428  0.1513  2.2237  0.6979
 6368TIP3   OH240594   3.805   5.417  11.953 -0.9778  0.0672 -0.4059
 6368TIP3    H140595   3.847   5.347  12.003 -1.5580  1.1349  1.7129
 6368TIP3    H240596   3.876   5.476  11.929 -0.6886 -0.4657 -0.8792
 6369TIP3   OH240597   3.776   2.730   4.718 -0.1554  0.3453 -0.4211
 6369TIP3    H140598   3.731   2.785   4.782 -2.0689 -0.2296 -1.1929
 6369TIP3    H240599   3.706   2.696   4.662 -0.0410 -6.7474  2.7271
 6370TIP3   OH240600   5.762   1.334   4.893 -0.1717  0.2457 -0.1537
 6370TIP3    H140601   5.743   1.313   4.802  0.3999 -2.1718  0.2294
 6370TIP3    H240602   5.677   1.356   4.931 -0.4635  0.9204 -1.1429
 6371TIP3   OH240603   4.873   6.547  16.553  0.2755  0.1641  0.3422
 6371TIP3    H140604   4.964   6.574  16.567  1.0636 -2.0133 -0.1585
 6371TIP3    H240605   4.848   6.504  16.634 -0.4118  0.8972  0.5411
 6372TIP3   OH240606   1.803   4.687   3.749  0.2065  0.2678  0.3047
 6372TIP3    H140607   1.786   4.621   3.816  1.3517  0.2541  0.6017
 6372TIP3    H240608   1.717   4.703   3.709 -0.3836 -0.1615  1.3612
 6373TIP3   OH240609   6.258   0.814  14.217  0.6833 -0.4061 -0.2030
 6373TIP3    H140610   6.333   0.855  14.260  0.6292 -0.2616 -0.2465
 6373TIP3    H240611   6.208   0.887  14.180 -0.0438 -0.4076  0.7373
 6374TIP3   OH240612   0.206   6.725  12.625  0.5165 -0.0681  0.0649
 6374TIP3    H140613   0.220   6.633  12.600 -0.7349 -0.5613  1.0376
 6374TIP3    H240614   0.155   6.762  12.553 -0.6438 -0.6969  0.5336
 6375TIP3   OH240615   2.690   6.160   2.131 -0.2041 -0.0260  0.1476
 6375TIP3    H140616   2.699   6.255   2.123 -0.7850 -0.0479 -0.9163
 6375TIP3    H240617   2.692   6.144   2.226 -2.7495  1.3259  0.5149
 6376TIP3   OH240618   2.945   3.105  14.074 -0.6288  0.1863  0.7463
 6376TIP3    H140619   2.990   3.021  14.066 -2.5582 -0.7957 -1.3877
 6376TIP3    H240620   2.983   3.160  14.005 -1.0814  0.1518  0.4622
 6377TIP3   OH240621   4.344   1.882   6.317  0.2014  0.3638  0.0350
 6377TIP3    H140622   4.383   1.816   6.374  2.4593  0.9160 -0.7846
 6377TIP3    H240623   4.302   1.944   6.377 -0.9116 -1.1225  0.8563
 6378TIP3   OH240624   1.826   0.642   2.189 -0.3551 -0.3055  0.2242
 6378TIP3    H140625   1.824   0.706   2.261  0.3043 -1.1780  1.0412
 6378TIP3    H240626   1.738   0.648   2.150 -0.5637  0.5296  0.7852
 6379TIP3   OH240627   4.428   6.517  11.434 -0.3465  0.0950 -0.0068
 6379TIP3    H140628   4.356   6.578  11.425 -1.6719 -1.2943  0.7512
 6379TIP3    H240629   4.495   6.566  11.482 -0.6538  1.4800 -0.9412
 6380TIP3   OH240630   2.896   4.819   4.390 -0.4134 -0.1399 -0.2354
 6380TIP3    H140631   2.961   4.844   4.323  0.2259  0.2501  0.5153
 6380TIP3    H240632   2.906   4.885   4.458 -1.5186 -0.1598 -0.0405
 6381TIP3   OH240633   2.124   3.827  14.972 -0.0818  0.0149 -0.1615
 6381TIP3    H140634   2.190   3.832  14.903  0.2715 -0.2676  0.1528
 6381TIP3    H240635   2.048   3.872  14.935  0.0405 -0.2847 -0.8057
 6382TIP3   OH240636   0.464   3.455  14.125 -0.6372  0.5550  0.2028
 6382TIP3    H140637   0.545   3.424  14.084 -0.7213  0.7546 -0.1228
 6382TIP3    H240638   0.477   3.439  14.219 -0.3397  0.3202  0.1242
 6383TIP3   OH240639   5.241   1.881   5.670  0.4634  0.0100  0.9491
 6383TIP3    H140640   5.177   1.890   5.599 -1.0292 -1.7590  1.9973
 6383TIP3    H240641   5.316   1.837   5.629 -0.3584 -0.9441  0.4467
 6384TIP3   OH240642   6.294   0.887  15.841  0.1558 -0.3363 -0.4972
 6384TIP3    H140643   6.360   0.871  15.908 -2.0479 -0.2653  1.8792
 6384TIP3    H240644   6.316   0.973  15.806 -0.4269  1.2437  2.6262
 6385TIP3   OH240645   1.462   6.517   0.563 -0.7222 -0.4936  0.3972
 6385TIP3    H140646   1.508   6.439   0.596  0.0706 -0.6569 -1.0484
 6385TIP3    H240647   1.376   6.513   0.607  0.1573 -0.8559  2.1799
 6386TIP3   OH240648   3.775   2.061   5.569 -0.0059  0.2797  0.7348
 6386TIP3    H140649   3.832   2.129   5.603 -0.0359  0.3902  0.5655
 6386TIP3    H240650   3.835   2.000   5.524 -0.0392  0.4801  0.4194
 6387TIP3   OH240651   6.185   5.835  16.211 -0.5123  0.1295  0.5964
 6387TIP3    H140652   6.216   5.763  16.155  1.6690 -0.7730  2.7710
 6387TIP3    H240653   6.237   5.910  16.185 -1.0721  0.3180 -0.0234
 6388TIP3   OH240654   4.024   6.048  10.547 -0.5040  0.4014  0.0680
 6388TIP3    H140655   3.978   5.968  10.523  1.1022 -0.4398 -0.3940
 6388TIP3    H240656   3.955   6.110  10.571 -1.8331 -0.7890 -0.5454
 6389TIP3   OH240657   0.746   1.245   5.599 -0.5676 -0.7147 -0.0085
 6389TIP3    H140658   0.798   1.251   5.519 -0.9642 -0.9030 -0.2787
 6389TIP3    H240659   0.733   1.336   5.626 -0.8287 -0.6310 -0.4109
 6390TIP3   OH240660   4.930   5.542   4.120 -0.1962 -0.0753  0.1550
 6390TIP3    H140661   4.979   5.621   4.138 -0.5883  0.0158  0.8604
 6390TIP3    H240662   4.947   5.523   4.028  1.2182 -0.0991  0.4066
 6391TIP3   OH240663   3.050   1.615   2.410  0.4064 -0.1341 -0.1596
 6391TIP3    H140664   3.137   1.627   2.447  0.1933  0.4150  0.1783
 6391TIP3    H240665   2.990   1.644   2.479 -0.0081  0.4766 -0.7642
 6392TIP3   OH240666   4.922   3.672  17.275 -0.0419 -0.2057  0.0528
 6392TIP3    H140667   4.962   3.667  17.362 -1.2751 -0.8708  0.6185
 6392TIP3    H240668   4.916   3.766  17.257 -2.4713  0.1250  2.0410
 6393TIP3   OH240669   3.390   5.084   5.544 -0.4102  0.5293 -0.2091
 6393TIP3    H140670   3.422   5.050   5.460 -0.6809 -1.2335  0.3437
 6393TIP3    H240671   3.467   5.087   5.600 -0.3808  0.8616 -0.2685
 6394TIP3   OH240672   4.218   4.488  13.012 -0.3484 -0.4437  0.4694
 6394TIP3    H140673   4.151   4.483  13.081 -0.9895  0.7327 -0.0372
 6394TIP3    H240674   4.172   4.527  12.937  0.7181 -0.2998 -0.1247
 6395TIP3   OH240675   4.714   2.317   5.768  0.5882 -0.3038  0.4677
 6395TIP3    H140676   4.621   2.298   5.753  0.1372 -1.0446  3.4447
 6395TIP3    H240677   4.739   2.377   5.697 -2.3326  0.4327 -0.0632
 6396TIP3   OH240678   0.460   3.950  14.921 -0.2522  0.2412  0.6776
 6396TIP3    H140679   0.526   3.901  14.873  0.1482  0.0924  1.3701
 6396TIP3    H240680   0.416   4.002  14.854 -0.3177 -0.6446  0.0165
 6397TIP3   OH240681   1.315   0.129   2.321 -0.1133  0.2972  0.0604
 6397TIP3    H140682   1.390   0.104   2.266  2.3741  0.9516  2.8769
 6397TIP3    H240683   1.251   0.059   2.308  0.9216 -0.2829 -2.5071
 6398TIP3   OH240684   5.315   2.644   3.613  0.3017 -0.3161  0.0159
 6398TIP3    H140685   5.263   2.634   3.533 -0.0825 -1.7713  0.4045
 6398TIP3    H240686   5.320   2.555   3.649  1.2947  0.1500  1.0960
 6399TIP3   OH240687   5.544   1.304   5.299 -0.2838  0.2649 -0.2203
 6399TIP3    H140688   5.458   1.265   5.310  0.4998 -1.2347  0.9765
 6399TIP3    H240689   5.555   1.360   5.376  0.0926 -0.1337  0.0211
 6400TIP3   OH240690   3.570   0.637   3.060 -0.5223  0.0131  0.0624
 6400TIP3    H140691   3.572   0.570   3.129  2.6287  2.1056  2.2916
 6400TIP3    H240692   3.512   0.705   3.095 -1.1637 -0.1272 -0.7068
 6401TIP3   OH240693   3.173   4.369  12.144 -0.4142 -0.2270  0.5381
 6401TIP3    H140694   3.259   4.329  12.126  0.3932  1.1144  1.2252
 6401TIP3    H240695   3.194   4.449  12.192 -1.8704  1.6204 -1.7118
 6402TIP3   OH240696   0.781   5.122  13.353  0.1592 -0.2336 -0.1351
 6402TIP3    H140697   0.757   5.214  13.347  0.3327 -0.2547 -1.7806
 6402TIP3    H240698   0.856   5.113  13.295 -0.5157 -1.6015 -0.8671
 6403TIP3   OH240699   6.298   1.110   1.307 -1.0514  0.2662  0.6677
 6403TIP3    H140700   6.368   1.133   1.246 -1.2465  0.5667  0.5572
 6403TIP3    H240701   6.341   1.058   1.374 -0.8507 -0.1355  0.2299
 6404TIP3   OH240702   4.407   4.056   2.277  0.4629 -0.3802  0.1167
 6404TIP3    H140703   4.441   4.141   2.249 -1.9188  0.4084 -0.6350
 6404TIP3    H240704   4.393   4.008   2.195 -3.2783  0.6316 -0.0126
 6405TIP3   OH240705   4.783   4.257  12.328  0.1108  0.5377 -0.0259
 6405TIP3    H140706   4.688   4.247  12.331  0.2199 -0.3546  1.0055
 6405TIP3    H240707   4.816   4.195  12.392  1.5052 -0.4372 -1.5898
 6406TIP3   OH240708   4.789   6.267   4.259 -0.2909  0.0236 -0.3085
 6406TIP3    H140709   4.764   6.245   4.169 -1.3125  2.3776 -0.6946
 6406TIP3    H240710   4.706   6.283   4.303  0.1835  3.9559 -0.4591
 6407TIP3   OH240711   2.046   0.027  13.800 -0.0701 -0.1786  0.0714
 6407TIP3    H140712   1.952   0.033  13.821 -1.2976 -0.6053 -4.4207
 6407TIP3    H240713   2.068   0.111  13.762  1.7174  0.2018  1.7592
 6408TIP3   OH240714   0.436   0.205  11.252  0.3024  0.0623  0.1119
 6408TIP3    H140715   0.380   0.147  11.200 -1.2072  0.7238  0.9118
 6408TIP3    H240716   0.422   0.176  11.342 -0.1456  1.3607  0.4807
 6409TIP3   OH240717   4.474   4.126  11.453 -0.0364  0.3075  0.0375
 6409TIP3    H140718   4.418   4.156  11.525 -0.8640  0.9232 -0.8425
 6409TIP3    H240719   4.562   4.154  11.478 -0.6165  2.6094 -0.2430
 6410TIP3   OH240720   5.698   4.206  15.309 -0.2856 -0.6069 -0.0495
 6410TIP3    H140721   5.627   4.142  15.316 -1.5384  0.7393  0.2630
 6410TIP3    H240722   5.666   4.268  15.242 -0.2842  1.0455  1.4144
 6411TIP3   OH240723   2.991   6.669   4.754 -0.2643  0.1381 -0.3592
 6411TIP3    H140724   2.911   6.679   4.806  0.2395  1.8574  0.1681
 6411TIP3    H240725   3.032   6.589   4.788 -1.0669  0.0046  0.3221
 6412TIP3   OH240726   1.686   2.430   3.474 -0.3661  0.4783  0.4278
 6412TIP3    H140727   1.743   2.506   3.471  1.9509 -1.0503  2.3763
 6412TIP3    H240728   1.618   2.454   3.537  1.1524  0.5083  2.1414
 6413TIP3   OH240729   2.384   1.522  12.876  0.3043 -0.1752 -0.2905
 6413TIP3    H140730   2.468   1.481  12.861  1.3373  2.0672 -1.1524
 6413TIP3    H240731   2.322   1.470  12.826  0.8844 -2.5777  1.2987
 6414TIP3   OH240732   1.665   2.885   5.688 -0.2899  0.2113 -0.0799
 6414TIP3    H140733   1.584   2.852   5.726 -0.7145  1.4970  0.1611
 6414TIP3    H240734   1.638   2.936   5.612  0.1371  1.7767  0.7654
 6415TIP3   OH240735   3.264   1.877  12.115  0.3245 -0.5729  0.1107
 6415TIP3    H140736   3.344   1.838  12.150  0.0118 -0.4663  0.9719
 6415TIP3    H240737   3.275   1.971  12.129  0.3626 -0.4933 -0.4401
 6416TIP3   OH240738   2.660   3.306  16.402  0.4426  0.1072 -0.2388
 6416TIP3    H140739   2.614   3.352  16.331 -1.0807  1.2790  1.4176
 6416TIP3    H240740   2.746   3.347  16.404  0.2671  0.5419 -0.9713
 6417TIP3   OH240741   1.427   1.749  13.078  0.0802  0.7943 -0.2194
 6417TIP3    H140742   1.467   1.694  13.011  1.3297  0.0758  1.0762
 6417TIP3    H240743   1.488   1.822  13.090  0.3383  0.4266  0.7830
 6418TIP3   OH240744   3.236   3.489  13.379  0.4048 -0.0312  0.1674
 6418TIP3    H140745   3.153   3.535  13.365 -0.0051 -0.0578  2.2471
 6418TIP3    H240746   3.238   3.421  13.311 -0.7875  0.6024 -0.5242
 6419TIP3   OH240747   3.841   6.234  13.017 -0.4360  0.2100  0.3456
 6419TIP3    H140748   3.772   6.169  13.034 -0.5346  0.3264  0.3936
 6419TIP3    H240749   3.908   6.215  13.084 -0.7219  0.5227  0.7247
 6420TIP3   OH240750   4.642   0.084   0.707 -0.5200  0.3431  0.0827
 6420TIP3    H140751   4.693   0.018   0.659  1.3908  1.7524  0.0264
 6420TIP3    H240752   4.574   0.035   0.751  0.5030 -1.6011 -0.3858
 6421TIP3   OH240753   3.560   6.029  16.649  0.4624  0.5223  0.6314
 6421TIP3    H140754   3.475   6.000  16.614  0.5414 -0.6902  1.3641
 6421TIP3    H240755   3.550   6.123  16.662 -0.0323  0.7661 -1.2881
 6422TIP3   OH240756   4.778   1.539  12.603 -0.0729 -0.0998  0.0995
 6422TIP3    H140757   4.861   1.587  12.603  0.7085 -1.2904 -2.3788
 6422TIP3    H240758   4.744   1.550  12.514 -0.8018 -2.5285  0.0188
 6423TIP3   OH240759   5.176   2.068  14.394 -0.1960 -0.7045  0.0581
 6423TIP3    H140760   5.142   2.134  14.334  0.2573 -0.2884  0.2491
 6423TIP3    H240761   5.266   2.096  14.412  0.1758 -1.6695 -0.2665
 6424TIP3   OH240762   0.315   5.300   2.869  0.2222 -0.0678  0.4358
 6424TIP3    H140763   0.371   5.305   2.946  0.6041 -0.9612  0.2292
 6424TIP3    H240764   0.330   5.213   2.834  0.1368  0.3683 -0.7230
 6425TIP3   OH240765   2.925   2.147  14.634  0.4677 -0.2539 -0.5049
 6425TIP3    H140766   3.012   2.183  14.619  1.3755 -1.5373  1.3425
 6425TIP3    H240767   2.935   2.052  14.621 -0.4150 -0.5275  0.6240
 6426TIP3   OH240768   1.988   2.235   2.468 -0.4123  0.0910 -0.2406
 6426TIP3    H140769   2.021   2.158   2.421 -1.9341 -0.7224 -0.0430
 6426TIP3    H240770   1.914   2.265   2.416 -1.0118  0.2591  0.6856
 6427TIP3   OH240771   0.105   4.364  13.544 -0.0668  0.2675 -0.1529
 6427TIP3    H140772   0.195   4.349  13.516 -0.4224 -0.0806 -1.1761
 6427TIP3    H240773   0.082   4.286  13.593  0.1267  0.2731 -0.0514
 6428TIP3   OH240774   6.308   5.460  12.925  0.3495  0.1362  0.0741
 6428TIP3    H140775   6.248   5.429  12.857  0.7414 -0.4697 -0.0100
 6428TIP3    H240776   6.251   5.504  12.989 -0.2888 -0.9909  0.3243
 6429TIP3   OH240777   4.791   1.172   6.213  0.0668  0.0669  0.7177
 6429TIP3    H140778   4.810   1.133   6.299  0.4290  0.6782  0.9220
 6429TIP3    H240779   4.862   1.234   6.199 -1.8695  2.6624  1.6537
 6430TIP3   OH240780   6.646   5.152  12.235  0.0117  0.2067  0.1700
 6430TIP3    H140781   6.719   5.098  12.264 -0.7164 -2.7414 -2.9112
 6430TIP3    H240782   6.685   5.213  12.172  0.4646  2.0760  2.1078
 6431TIP3   OH240783   2.383   2.808   1.629  0.0913  0.2523  0.0089
 6431TIP3    H140784   2.460   2.864   1.623 -0.6492  1.2073 -0.7843
 6431TIP3    H240785   2.416   2.720   1.611  1.0353  0.6061 -0.0433
 6432TIP3   OH240786   2.392   3.504   2.584  0.1019 -0.8076  0.2622
 6432TIP3    H140787   2.470   3.491   2.637  0.6113  1.4154  0.1475
 6432TIP3    H240788   2.337   3.563   2.635  1.5677  3.2644 -2.4046
 6433TIP3   OH240789   0.302   2.831   5.359  0.2626  1.1240 -0.0008
 6433TIP3    H140790   0.296   2.901   5.294 -0.1392  1.0183 -0.0800
 6433TIP3    H240791   0.256   2.864   5.435  1.9296  1.8162  0.7589
 6434TIP3   OH240792   2.501   1.792  14.239  0.0325  0.1843 -0.3456
 6434TIP3    H140793   2.497   1.882  14.273 -0.9186  1.2963 -3.1213
 6434TIP3    H240794   2.413   1.776  14.204  1.0265 -0.6546 -2.6123
 6435TIP3   OH240795   3.170   6.250  17.133 -0.3947 -0.0794 -0.0216
 6435TIP3    H140796   3.097   6.208  17.178 -0.5185  1.2127  1.0360
 6435TIP3    H240797   3.203   6.183  17.073 -2.2986 -0.7624 -0.3648
 6436TIP3   OH240798   3.555   3.819  14.352 -0.1021 -0.3201  0.2464
 6436TIP3    H140799   3.631   3.877  14.358 -1.7121  2.0878 -1.0508
 6436TIP3    H240800   3.541   3.806  14.259 -0.0587 -2.5289  0.5010
 6437TIP3   OH240801   1.181   0.353   3.413 -0.3272 -1.3084  0.0785
 6437TIP3    H140802   1.142   0.323   3.495  0.8444  1.3748  1.7531
 6437TIP3    H240803   1.273   0.327   3.419  0.4874  1.5353  1.1408
 6438TIP3   OH240804   2.750   3.106  13.309 -0.4453 -0.5413 -0.1570
 6438TIP3    H140805   2.677   3.084  13.367  1.4880 -1.6832  2.0212
 6438TIP3    H240806   2.719   3.180  13.257 -2.0558  1.1962  2.9872
 6439TIP3   OH240807   6.554   2.848  15.463  0.8888  0.2096 -0.5346
 6439TIP3    H140808   6.528   2.902  15.538 -1.7932 -0.9832 -0.4997
 6439TIP3    H240809   6.633   2.803  15.492  1.8696  2.3112  0.2739
 6440TIP3   OH240810   4.212   5.604  10.710 -0.1879  0.7200  0.6234
 6440TIP3    H140811   4.193   5.612  10.616  2.4764  0.7257  0.0072
 6440TIP3    H240812   4.274   5.531  10.715 -1.6387 -0.4610  2.6435
 6441TIP3   OH240813   0.077   2.830   0.671 -0.3952 -0.6302 -0.3021
 6441TIP3    H140814   0.066   2.823   0.576 -2.6330  0.7114 -0.2096
 6441TIP3    H240815   0.028   2.756   0.705 -1.2097 -0.0328 -0.1555
 6442TIP3   OH240816   5.414   6.505  12.229 -0.1151  0.0465 -0.0889
 6442TIP3    H140817   5.367   6.422  12.226  0.4273 -0.2940  0.5005
 6442TIP3    H240818   5.507   6.480  12.226  0.0446  0.6587 -0.4109
 6443TIP3   OH240819   0.837   0.766  10.926 -0.4906 -0.2377 -0.5046
 6443TIP3    H140820   0.930   0.750  10.936 -0.4068  0.4935  0.0152
 6443TIP3    H240821   0.831   0.857  10.895 -1.0655  0.2694  0.9895
 6444TIP3   OH240822   3.568   0.337  16.111 -0.5755  0.1060 -0.2783
 6444TIP3    H140823   3.640   0.400  16.115 -0.1827 -0.2282 -1.5768
 6444TIP3    H240824   3.536   0.343  16.021  0.8817 -3.0309 -1.1518
 6445TIP3   OH240825   5.830   2.254  12.433 -0.1181 -0.1002  0.1876
 6445TIP3    H140826   5.913   2.232  12.389 -0.0890 -0.3925  0.3832
 6445TIP3    H240827   5.767   2.192  12.397 -0.2085 -0.0044  0.1818
 6446TIP3   OH240828   4.239   0.584   4.696 -0.0130 -0.7248 -0.5954
 6446TIP3    H140829   4.183   0.513   4.730  0.1970 -0.8941 -0.6001
 6446TIP3    H240830   4.190   0.619   4.622 -1.8841  1.6090  1.5850
 6447TIP3   OH240831   3.424   5.032  16.766 -0.1706 -0.1038  0.2483
 6447TIP3    H140832   3.419   5.085  16.845 -0.6142 -0.6225  0.5768
 6447TIP3    H240833   3.453   4.946  16.797 -1.0948 -0.5316 -0.0462
 6448TIP3   OH240834   3.300   0.413  12.657  0.8563  0.1205 -0.1017
 6448TIP3    H140835   3.216   0.371  12.674  1.3334 -0.3568  1.2920
 6448TIP3    H240836   3.330   0.375  12.575 -0.0910 -0.0219 -0.3891
 6449TIP3   OH240837   6.448   2.066  12.413 -0.1898  0.7382  0.2583
 6449TIP3    H140838   6.406   2.102  12.491  0.7378 -0.3005  1.2631
 6449TIP3    H240839   6.399   1.986  12.394 -1.2064  1.6125 -1.0056
 6450TIP3   OH240840   3.000   5.376  11.153 -0.3252 -0.3599  0.2413
 6450TIP3    H140841   3.057   5.306  11.185 -0.9919 -0.6942  0.7051
 6450TIP3    H240842   2.962   5.340  11.072  1.0535  0.3350 -0.7614
 6451TIP3   OH240843   4.908   3.640  10.329  0.6206 -0.0493 -0.5338
 6451TIP3    H140844   4.972   3.690  10.380 -0.8122  1.3739 -0.0393
 6451TIP3    H240845   4.959   3.572  10.285  2.6648  1.7759 -1.1502
 6452TIP3   OH240846   1.971   3.847   2.413 -0.4615 -0.0488 -0.1000
 6452TIP3    H140847   1.972   3.939   2.389 -0.7508  0.7409  2.5993
 6452TIP3    H240848   1.888   3.834   2.458  0.3742 -1.0942  1.2504
 6453TIP3   OH240849   3.255   5.717  15.907  0.0072 -0.2239 -0.1525
 6453TIP3    H140850   3.207   5.695  15.827 -0.6059 -0.7564  0.3533
 6453TIP3    H240851   3.198   5.688  15.978  1.5440 -1.9299  0.4682
 6454TIP3   OH240852   0.720   0.929   2.765 -0.2413 -0.1835 -0.4416
 6454TIP3    H140853   0.775   0.865   2.720  0.3769  0.5235 -0.7161
 6454TIP3    H240854   0.702   0.890   2.851 -0.4231 -1.0061 -0.8497
 6455TIP3   OH240855   3.451   6.143   0.146 -0.2364 -0.1676  0.4559
 6455TIP3    H140856   3.370   6.106   0.179 -0.5825  0.4904  0.3747
 6455TIP3    H240857   3.462   6.225   0.195 -0.0836  0.1806 -0.1431
 6456TIP3   OH240858   6.706   6.437   1.865 -0.4367 -1.2988  0.3647
 6456TIP3    H140859   6.704   6.356   1.814  0.7622 -0.0556 -1.8448
 6456TIP3    H240860   6.631   6.487   1.834 -0.4381 -1.0497  0.7631
 6457TIP3   OH240861   2.629   6.170  12.221  0.4365  0.2099 -0.5672
 6457TIP3    H140862   2.688   6.228  12.173 -1.8609  1.6508 -1.7920
 6457TIP3    H240863   2.550   6.166  12.168 -1.0110 -0.7580  1.5331
 6458TIP3   OH240864   5.866   1.983  15.026 -0.1855  0.1251 -0.1406
 6458TIP3    H140865   5.885   1.890  15.019  1.3535  0.3227  0.9409
 6458TIP3    H240866   5.783   1.994  14.979 -0.1221 -1.6761 -0.7519
 6459TIP3   OH240867   2.930   2.687  11.534 -0.1502  0.1801 -0.0041
 6459TIP3    H140868   2.863   2.756  11.531 -0.1851  0.1272 -0.5547
 6459TIP3    H240869   2.970   2.689  11.447  0.9877  0.6250  0.5167
 6460TIP3   OH240870   2.292   0.743  11.844 -0.1808  0.4423 -0.4959
 6460TIP3    H140871   2.367   0.792  11.810 -0.2343  0.6726 -0.2891
 6460TIP3    H240872   2.280   0.671  11.783  1.7590 -1.0528  0.7353
 6461TIP3   OH240873   1.977   4.373   2.309 -0.2242 -0.1151 -0.4780
 6461TIP3    H140874   2.071   4.370   2.289 -0.2784 -1.5974 -0.6226
 6461TIP3    H240875   1.973   4.396   2.402  0.1728  2.2862 -0.9937
 6462TIP3   OH240876   0.471   3.522   5.972 -0.0427  0.0756  0.4624
 6462TIP3    H140877   0.459   3.450   6.035  0.8540  0.4155  1.0461
 6462TIP3    H240878   0.541   3.491   5.914 -0.7335 -0.1559 -0.2699
 6463TIP3   OH240879   2.577   4.658  13.377  0.4654  0.4299  0.7197
 6463TIP3    H140880   2.517   4.701  13.439  0.6225  1.0125  0.4633
 6463TIP3    H240881   2.562   4.564  13.392 -1.2214  0.5377 -0.0015
 6464TIP3   OH240882   6.669   5.386   4.836  0.6416 -0.2353 -0.4862
 6464TIP3    H140883   6.719   5.314   4.796 -0.3157 -0.7888 -0.7166
 6464TIP3    H240884   6.698   5.386   4.928  2.0705  0.3574 -0.9032
 6465TIP3   OH240885   1.292   5.499  14.770 -0.3035  0.0690 -0.5884
 6465TIP3    H140886   1.275   5.550  14.849  1.8896  0.2183 -0.1425
 6465TIP3    H240887   1.206   5.487  14.730 -1.5961 -0.5093  2.1023
 6466TIP3   OH240888   2.241   0.746  16.883 -0.2443 -0.0331  0.0746
 6466TIP3    H140889   2.153   0.782  16.884  0.2380  1.3301 -1.4104
 6466TIP3    H240890   2.280   0.774  16.966 -0.9419  0.0601  0.3700
 6467TIP3   OH240891   3.645   0.174   0.969  0.4008 -0.1927 -0.3589
 6467TIP3    H140892   3.639   0.107   0.901 -0.8704 -0.1568 -0.3198
 6467TIP3    H240893   3.616   0.254   0.927 -1.1243 -0.3163  0.3817
 6468TIP3   OH240894   4.191   5.060  17.103 -0.3352  0.5696 -0.0872
 6468TIP3    H140895   4.124   4.999  17.133  0.6849  0.6632  2.6071
 6468TIP3    H240896   4.249   5.008  17.048 -0.9787 -0.2039 -0.0512
 6469TIP3   OH240897   5.526   6.061   1.000 -0.0772  0.8935  0.3090
 6469TIP3    H140898   5.617   6.040   1.019  0.5425  1.8250 -1.4005
 6469TIP3    H240899   5.494   5.985   0.950  0.2246  1.1789 -0.3360
 6470TIP3   OH240900   1.053   5.280  16.822  0.0373  0.2139 -0.0722
 6470TIP3    H140901   1.009   5.325  16.750 -1.3768  0.6644  1.0222
 6470TIP3    H240902   1.076   5.349  16.884 -0.2667 -0.3381  0.6711
 6471TIP3   OH240903   0.085   4.491   1.849 -0.2845  0.8499 -0.0697
 6471TIP3    H140904   0.034   4.518   1.772 -0.4962  1.6471  0.3368
 6471TIP3    H240905   0.091   4.571   1.902 -1.6230 -0.0793  1.5738
 6472TIP3   OH240906   2.014   3.464  13.838 -0.0702  0.0722 -0.2902
 6472TIP3    H140907   2.009   3.511  13.922 -1.2105  1.1708 -0.9476
 6472TIP3    H240908   1.991   3.374  13.861  0.2073  0.2238  0.6692
 6473TIP3   OH240909   2.460   4.814  15.993 -0.3744  0.2907  0.2379
 6473TIP3    H140910   2.453   4.788  16.085 -1.9668  1.2894  0.4539
 6473TIP3    H240911   2.513   4.746  15.953  1.3928  0.4483  2.1203
 6474TIP3   OH240912   2.750   4.923   0.391 -0.5252  0.0130  0.0922
 6474TIP3    H140913   2.815   4.955   0.453  0.1193 -1.9287  0.4983
 6474TIP3    H240914   2.699   4.859   0.441 -0.3091 -1.2307 -1.2173
 6475TIP3   OH240915   0.279   5.522  15.271  0.4171  0.2845 -0.2633
 6475TIP3    H140916   0.363   5.487  15.300  0.1376 -0.3370 -0.2028
 6475TIP3    H240917   0.215   5.482  15.329 -0.1276 -0.7233 -1.5185
 6476TIP3   OH240918   3.502   0.746  11.587  0.0878  0.1438  0.6811
 6476TIP3    H140919   3.470   0.822  11.635 -1.2833  0.8217 -1.1958
 6476TIP3    H240920   3.423   0.703  11.555  0.9105 -1.1187  0.2709
 6477TIP3   OH240921   5.439   5.508  12.324  0.1864 -0.4518  0.4008
 6477TIP3    H140922   5.448   5.481  12.233 -0.3478  0.7909 -0.0418
 6477TIP3    H240923   5.526   5.541  12.348  0.3537 -0.8733  0.3780
 6478TIP3   OH240924   4.410   5.269  12.611  0.6673  0.3275 -0.0856
 6478TIP3    H140925   4.455   5.333  12.557 -1.4911  0.3531 -1.9889
 6478TIP3    H240926   4.317   5.287  12.599  0.0465 -1.0269  2.0195
 6479TIP3   OH240927   4.405   6.758  13.844 -0.2296 -0.0700  0.4331
 6479TIP3    H140928   4.473   6.716  13.896 -0.1843 -1.0738 -0.3865
 6479TIP3    H240929   4.431   6.850  13.839 -0.3045  0.0777  2.2382
 6480TIP3   OH240930   2.990   6.417  15.720  0.5840 -0.3588 -0.7199
 6480TIP3    H140931   2.992   6.349  15.653  0.1704 -0.3662 -0.7251
 6480TIP3    H240932   3.032   6.377  15.796 -0.7865 -1.0761 -0.3020
 6481TIP3   OH240933   3.247   5.811  12.270 -0.0807  0.2982  0.0042
 6481TIP3    H140934   3.266   5.741  12.333 -0.4548  0.5320  0.3875
 6481TIP3    H240935   3.204   5.767  12.197  1.5548 -0.1824 -0.7166
 6482TIP3   OH240936   3.695   1.176   2.719 -0.4022  0.6177  0.3170
 6482TIP3    H140937   3.612   1.178   2.670 -0.9282  0.2135  1.1776
 6482TIP3    H240938   3.681   1.110   2.787  0.3579  1.0849  0.9390
 6483TIP3   OH240939   4.524   4.808   2.940 -0.2800 -0.3003 -0.5365
 6483TIP3    H140940   4.577   4.737   2.903 -0.7349 -1.2869  0.6472
 6483TIP3    H240941   4.551   4.812   3.032 -1.7874 -0.3906 -0.0695
 6484TIP3   OH240942   5.997   1.483  16.975 -0.6432  0.2619  0.2113
 6484TIP3    H140943   5.981   1.390  16.988  1.2948  0.0813  1.7191
 6484TIP3    H240944   6.028   1.515  17.060  1.1849  1.6998 -0.8947
 6485TIP3   OH240945   1.144   3.191  15.826 -0.1034 -0.1890 -0.1185
 6485TIP3    H140946   1.093   3.114  15.849 -1.0615  0.9554  1.9457
 6485TIP3    H240947   1.093   3.235  15.758 -1.0111  0.0423  0.6907
 6486TIP3   OH240948   3.371   4.591   1.515 -0.0963  0.0862  0.5557
 6486TIP3    H140949   3.420   4.518   1.478 -0.6795  0.4996 -1.1056
 6486TIP3    H240950   3.280   4.574   1.491 -0.4697  0.4818  1.6515
 6487TIP3   OH240951   4.910   6.368   1.376 -0.2347 -0.2402  0.0225
 6487TIP3    H140952   4.961   6.449   1.374  1.2654 -1.1611 -0.9696
 6487TIP3    H240953   4.975   6.298   1.374 -1.5386 -1.4875 -1.4451
 6488TIP3   OH240954   4.221   3.875  11.337  0.1142  0.1260  0.0294
 6488TIP3    H140955   4.316   3.885  11.336  0.1764 -0.4290  0.2797
 6488TIP3    H240956   4.199   3.848  11.248  0.3119 -0.8358  0.2699
 6489TIP3   OH240957   0.174   4.855   5.445 -0.1955  0.1097  0.2628
 6489TIP3    H140958   0.170   4.769   5.404 -0.8729 -1.0077  2.5128
 6489TIP3    H240959   0.225   4.908   5.384 -1.4323 -1.3023 -2.1566
 6490TIP3   OH240960   2.293   3.315   0.787  0.2004  0.6534  0.1474
 6490TIP3    H140961   2.330   3.354   0.866  0.9503 -3.7133  2.2176
 6490TIP3    H240962   2.363   3.320   0.722  1.2100  0.4130  1.1964
 6491TIP3   OH240963   1.571   2.844   0.250  0.7126  0.1453  0.0233
 6491TIP3    H140964   1.660   2.868   0.225  1.8884 -0.4076  3.2305
 6491TIP3    H240965   1.533   2.926   0.283  0.7300 -0.0255  0.4690
 6492TIP3   OH240966   5.179   0.911   4.695  0.1015 -0.0750 -0.3935
 6492TIP3    H140967   5.181   0.996   4.739  0.3294  0.1534 -0.8351
 6492TIP3    H240968   5.267   0.902   4.657  0.2906 -0.7953  0.1860
 6493TIP3   OH240969   1.970   3.072  15.480  0.0591  1.1601 -0.2202
 6493TIP3    H140970   1.982   3.059  15.386 -0.3343 -2.0724  0.0476
 6493TIP3    H240971   1.875   3.070  15.493  0.1330  0.6681  0.3110
 6494TIP3   OH240972   6.644   2.360  11.127 -0.0317 -0.5037 -0.1649
 6494TIP3    H140973   6.617   2.297  11.194 -2.1530  1.1957  0.6919
 6494TIP3    H240974   6.569   2.420  11.118  1.4763  1.3003 -1.6671
 6495TIP3   OH240975   2.801   4.374   1.580  0.1572  0.1985  0.4028
 6495TIP3    H140976   2.719   4.424   1.584 -0.7744 -1.3141  0.8886
 6495TIP3    H240977   2.827   4.364   1.671 -0.1712 -0.9670  0.3838
 6496TIP3   OH240978   1.196   1.159   3.035  0.4393  0.2596 -0.3287
 6496TIP3    H140979   1.274   1.214   3.045 -0.3817  1.1074  2.1309
 6496TIP3    H240980   1.137   1.212   2.982  1.3184 -0.2126 -1.8448
 6497TIP3   OH240981   1.051   4.736   2.081  0.8314  0.2385 -0.1106
 6497TIP3    H140982   1.022   4.796   2.150  1.5166 -1.0859  1.3737
 6497TIP3    H240983   0.973   4.722   2.028  0.5120  1.9733 -0.1523
 6498TIP3   OH240984   6.321   5.814  13.045  0.4177 -0.7124  0.4643
 6498TIP3    H140985   6.379   5.794  13.119  2.3858  0.7679 -0.5924
 6498TIP3    H240986   6.370   5.877  12.993 -3.2036  2.7136  0.8065
 6499TIP3   OH240987   2.883   4.120   1.094 -0.5879 -0.1663  0.3176
 6499TIP3    H140988   2.879   4.176   1.172 -0.3334  0.8259 -0.3642
 6499TIP3    H240989   2.817   4.053   1.109  0.4110 -0.8471  2.0312
 6500TIP3   OH240990   2.068   5.009  15.110 -0.0260 -0.1239 -0.3488
 6500TIP3    H140991   2.137   5.075  15.121  2.5766 -2.5109 -1.2328
 6500TIP3    H240992   2.033   5.025  15.022  0.5373  0.1211 -0.5323
 6501TIP3   OH240993   1.087   4.773   2.828  0.6608 -0.6627 -0.4902
 6501TIP3    H140994   1.161   4.767   2.768  0.1208 -1.0862 -1.1343
 6501TIP3    H240995   1.061   4.682   2.844  1.3968 -0.6215  1.1857
 6502TIP3   OH240996   2.658   2.705  12.430  1.0831  0.5803 -0.2247
 6502TIP3    H140997   2.648   2.611  12.415  0.0878  0.8119 -1.1828
 6502TIP3    H240998   2.569   2.736  12.448  1.5141  1.2207  0.8949
 6503TIP3   OH240999   3.461   4.386  13.200 -0.2595 -0.1501 -0.1560
 6503TIP3    H141000   3.536   4.394  13.142  0.2868 -0.3192  0.5252
 6503TIP3    H241001   3.389   4.426  13.151  0.5865  1.4107 -0.2002
 6504TIP3   OH241002   4.359   0.485   3.462  0.4627  1.0165  0.5885
 6504TIP3    H141003   4.358   0.435   3.380 -0.1569  0.2386  1.0607
 6504TIP3    H241004   4.447   0.472   3.498  0.6707  1.1971  0.1517
 6505TIP3   OH241005   2.069   5.307   4.247 -0.3322 -0.4556  0.7213
 6505TIP3    H141006   2.153   5.263   4.264 -0.1142 -0.2482  0.2028
 6505TIP3    H241007   2.060   5.368   4.320  0.1473 -0.2311  0.6039
 6506TIP3   OH241008   4.563   2.217   0.575  0.4444  0.0115  0.3650
 6506TIP3    H141009   4.499   2.264   0.628 -0.1307 -2.0693  1.6497
 6506TIP3    H241010   4.610   2.285   0.528 -1.6049  1.7063  0.6354
 6507TIP3   OH241011   5.766   2.486   2.512 -0.0536 -0.0752  0.5204
 6507TIP3    H141012   5.752   2.436   2.432 -0.4869 -0.5114  0.8604
 6507TIP3    H241013   5.708   2.445   2.577  0.1386  0.3961  1.0038
 6508TIP3   OH241014   5.522   4.724  13.716 -0.2477 -0.2528  0.0485
 6508TIP3    H141015   5.584   4.660  13.681  0.6083  0.6913 -0.1893
 6508TIP3    H241016   5.551   4.808  13.681 -1.5212  0.2443  0.1327
 6509TIP3   OH241017   1.142   4.706  11.222 -0.0528  0.6190 -0.3171
 6509TIP3    H141018   1.081   4.771  11.257 -2.3335 -0.5066 -1.9489
 6509TIP3    H241019   1.118   4.625  11.265  0.8660  0.2816 -0.4075
 6510TIP3   OH241020   3.123   1.601  15.300 -0.8347 -0.7636 -0.2844
 6510TIP3    H141021   3.185   1.540  15.260  1.4422  1.4401 -0.3437
 6510TIP3    H241022   3.126   1.580  15.393 -0.6114 -1.1629 -0.3766
 6511TIP3   OH241023   0.903   6.028  13.527 -0.3160 -0.3133 -0.1711
 6511TIP3    H141024   0.832   6.080  13.563 -0.6331 -1.3444  0.7480
 6511TIP3    H241025   0.884   6.022  13.434 -0.7003  0.5429 -0.1528
 6512TIP3   OH241026   0.860   5.089  15.311  0.0648  0.3406  0.2128
 6512TIP3    H141027   0.949   5.059  15.328 -0.4918 -1.1866  0.6055
 6512TIP3    H241028   0.867   5.143  15.233  1.3039  0.0714  0.1238
 6513TIP3   OH241029   4.518   2.044   2.034  0.1463 -0.0201  0.1978
 6513TIP3    H141030   4.441   1.991   2.051 -0.3806  0.1013 -1.5458
 6513TIP3    H241031   4.545   2.020   1.945 -0.7886  3.3208 -1.1633
 6514TIP3   OH241032   2.673   2.875  11.861 -0.2030  0.1980 -0.1837
 6514TIP3    H141033   2.674   2.780  11.867  2.9967 -0.1196 -3.2576
 6514TIP3    H241034   2.674   2.904  11.953  1.8101 -2.7966  0.9010
 6515TIP3   OH241035   2.689   3.011  14.674 -0.2862  0.4669 -1.0351
 6515TIP3    H141036   2.675   2.992  14.767  0.5317 -1.9137 -1.3087
 6515TIP3    H241037   2.605   3.042  14.642 -0.8820  0.2803  0.2892
 6516TIP3   OH241038   6.559   1.070   2.552  0.1434  0.0687 -0.2648
 6516TIP3    H141039   6.526   1.139   2.496  2.1998  0.2799 -1.2990
 6516TIP3    H241040   6.505   0.993   2.530  0.8235  0.1648 -2.4883
 6517TIP3   OH241041   1.560   0.040   3.411  0.5545 -0.2941  0.5486
 6517TIP3    H141042   1.571   0.015   3.319 -0.4963 -1.5671  0.7364
 6517TIP3    H241043   1.640   0.008   3.454  1.2144  0.6234  0.0362
 6518TIP3   OH241044   6.184   0.422  14.484 -0.1168  0.0878 -0.7709
 6518TIP3    H141045   6.108   0.467  14.521 -0.3584 -0.3129 -0.7690
 6518TIP3    H241046   6.259   0.456  14.533 -0.5745 -1.6510  1.3276
 6519TIP3   OH241047   5.506   4.440   1.927  0.2271  0.5808  0.4560
 6519TIP3    H141048   5.557   4.508   1.883  1.2139 -1.8014 -2.3944
 6519TIP3    H241049   5.517   4.362   1.873 -6.2861 -0.3408 -0.4141
 6520TIP3   OH241050   1.113   2.612   3.718 -0.4353  0.5208  0.7152
 6520TIP3    H141051   1.184   2.673   3.701  0.1979 -0.3592  0.0878
 6520TIP3    H241052   1.047   2.664   3.763  0.9204  1.1934  2.0294
 6521TIP3   OH241053   0.130   1.047  13.645  0.0866 -0.3245 -0.4069
 6521TIP3    H141054   0.132   0.979  13.577  1.8345 -1.4547  0.7118
 6521TIP3    H241055   0.181   1.119  13.609 -0.9687  0.0408 -1.2130
 6522TIP3   OH241056   0.033   1.953   5.389 -0.3683 -0.1856 -0.0987
 6522TIP3    H141057   0.008   1.916   5.304 -0.3285 -2.1938  0.7193
 6522TIP3    H241058  -0.040   2.012   5.411  0.6045  2.1228 -2.4432
 6523TIP3   OH241059   2.333   1.956  14.414 -0.1459 -0.0797 -0.0369
 6523TIP3    H141060   2.305   1.879  14.464  0.8047 -0.9584 -0.7890
 6523TIP3    H241061   2.253   1.990  14.375 -0.6177 -0.5433  0.5075
 6524TIP3   OH241062   1.141   3.890   6.395  0.0920  0.4060  0.3031
 6524TIP3    H141063   1.065   3.894   6.454  0.1389  2.2274  0.2879
 6524TIP3    H241064   1.192   3.816   6.428 -1.1733 -0.2268  0.9407
 6525TIP3   OH241065   6.330   0.862  15.038  0.5320 -0.0748 -0.1455
 6525TIP3    H141066   6.251   0.809  15.045  1.0748 -1.2587 -2.0928
 6525TIP3    H241067   6.301   0.942  14.993  0.2090  0.1138  0.3860
 6526TIP3   OH241068   4.619   1.424   4.358  0.1380 -0.1231  0.0111
 6526TIP3    H141069   4.598   1.513   4.387  0.9213 -0.3000  1.2189
 6526TIP3    H241070   4.548   1.400   4.299  0.0787  1.4161 -0.5802
 6527TIP3   OH241071   5.527   1.015   5.573 -0.1944  0.0304 -0.4628
 6527TIP3    H141072   5.595   0.958   5.538  1.1051  1.2369 -0.0240
 6527TIP3    H241073   5.469   1.032   5.498  1.2776  0.7869 -1.4947
 6528TIP3   OH241074   6.557   0.744  14.998 -0.0790  0.0817 -0.1475
 6528TIP3    H141075   6.476   0.790  14.979  0.7603  0.7755 -2.4079
 6528TIP3    H241076   6.619   0.812  15.024 -0.2383 -0.4656  1.7790
 6529TIP3   OH241077   1.180   2.900  14.136 -0.5068 -0.6519 -0.2531
 6529TIP3    H141078   1.119   2.830  14.162 -3.3221  1.0714 -1.6983
 6529TIP3    H241079   1.255   2.854  14.100 -1.1839 -2.9350  1.0415
 6530TIP3   OH241080   1.602   3.362  11.032 -0.5835  0.6461 -0.8619
 6530TIP3    H141081   1.634   3.274  11.013 -0.3931  0.5787 -0.2765
 6530TIP3    H241082   1.641   3.383  11.117  0.1190  1.6650 -1.4192
 6531TIP3   OH241083   4.376   0.318   0.234  0.0020  1.1009  0.5829
 6531TIP3    H141084   4.467   0.338   0.258  1.7880 -2.6014 -2.1186
 6531TIP3    H241085   4.357   0.236   0.279 -1.6506  1.2573  0.2285
 6532TIP3   OH241086   0.577   5.752  14.693  0.1613  0.4843 -0.2442
 6532TIP3    H141087   0.571   5.787  14.604  4.0780  0.7562 -0.5675
 6532TIP3    H241088   0.601   5.660  14.680  1.3108  0.6626  0.4567
 6533TIP3   OH241089   0.072   0.797   2.023  0.0866 -0.1024 -0.2357
 6533TIP3    H141090   0.005   0.847   1.976  0.6527  0.3289 -0.6017
 6533TIP3    H241091   0.032   0.712   2.039 -0.3538 -0.0353 -0.9410
 6534TIP3   OH241092   6.236   1.885  14.796 -0.1019 -0.8523  0.1083
 6534TIP3    H141093   6.226   1.970  14.839 -0.2533 -0.6566 -0.3069
 6534TIP3    H241094   6.324   1.856  14.821 -0.1516 -0.6970  0.4663
 6535TIP3   OH241095   5.335   0.673  15.122  0.3665  0.6621  0.4786
 6535TIP3    H141096   5.309   0.598  15.175  0.0261  1.6415  1.7293
 6535TIP3    H241097   5.254   0.703  15.080  0.2868  1.0553  0.9164
 6536TIP3   OH241098   5.100   5.143   4.154  0.1655 -0.1787 -0.3584
 6536TIP3    H141099   5.047   5.153   4.075 -1.9468  0.7917  1.0923
 6536TIP3    H241100   5.094   5.228   4.198 -0.6967 -1.3673  1.9797
 6537TIP3   OH241101   2.736   4.984   3.160 -0.2782 -0.4867  0.3167
 6537TIP3    H141102   2.705   4.942   3.240 -0.9163 -0.8376 -0.1113
 6537TIP3    H241103   2.662   4.982   3.100 -0.1421  0.7247  0.0689
 6538TIP3   OH241104   6.659   5.250  15.472 -0.7491  0.0655  0.0932
 6538TIP3    H141105   6.691   5.304  15.544  0.3805  1.0941 -1.1361
 6538TIP3    H241106   6.727   5.183  15.461 -1.0015 -0.1908  0.0719
 6539TIP3   OH241107   4.811   2.435   1.578  0.3966  0.8846  0.3307
 6539TIP3    H141108   4.826   2.470   1.666 -0.2174  0.3088  0.6775
 6539TIP3    H241109   4.831   2.342   1.586  0.6833  0.8907 -0.2364
 6540TIP3   OH241110   3.945   2.817   0.504 -0.1346  0.5223  0.0686
 6540TIP3    H141111   3.885   2.884   0.537 -0.9588 -1.1847  2.3752
 6540TIP3    H241112   3.888   2.751   0.464  0.2571 -0.4905  1.0990
 6541TIP3   OH241113   5.046   2.903   5.630 -0.1230 -0.3334  0.0124
 6541TIP3    H141114   5.080   2.973   5.574  2.3619  0.4252  2.2534
 6541TIP3    H241115   4.960   2.882   5.593 -0.5161  3.1431 -1.4276
 6542TIP3   OH241116   3.494   2.404   4.614 -0.8740  0.9321 -0.1280
 6542TIP3    H141117   3.532   2.372   4.696  0.8527 -0.6718 -1.4797
 6542TIP3    H241118   3.446   2.483   4.640 -0.9756  0.1140  2.5261
 6543TIP3   OH241119   2.379   5.113   0.401 -0.2362 -0.1177  0.2855
 6543TIP3    H141120   2.360   5.021   0.380  0.1793 -0.0536 -0.4151
 6543TIP3    H241121   2.475   5.119   0.397 -0.3151  0.6057 -0.8222
 6544TIP3   OH241122   1.267   4.545  15.755 -0.1679  0.3264  0.4660
 6544TIP3    H141123   1.212   4.486  15.704  1.3530  0.3739 -1.3239
 6544TIP3    H241124   1.236   4.633  15.731  2.2105  0.4869 -2.6063
 6545TIP3   OH241125   3.730   4.077   2.575  0.4011 -0.1778 -0.8797
 6545TIP3    H141126   3.702   4.146   2.515  0.0063 -0.1103 -0.6221
 6545TIP3    H241127   3.781   4.123   2.642  0.7634 -0.2406 -1.1104
 6546TIP3   OH241128   5.527   6.580   2.870 -0.3259  0.0451  0.3542
 6546TIP3    H141129   5.485   6.509   2.822 -1.2712 -0.0663  1.3102
 6546TIP3    H241130   5.553   6.541   2.953  0.1051  0.5596  0.4660
 6547TIP3   OH241131   4.338   4.913   4.307  0.9037 -0.0498  0.0332
 6547TIP3    H141132   4.383   4.832   4.330  0.8717 -0.9564 -2.7297
 6547TIP3    H241133   4.391   4.983   4.346  0.6528 -1.3353  2.9099
 6548TIP3   OH241134   4.754   3.030   2.544  0.4457  0.7078 -0.3000
 6548TIP3    H141135   4.659   3.017   2.551  0.6290 -0.4169  0.2559
 6548TIP3    H241136   4.782   3.054   2.632  0.6378  1.3587 -0.5354
 6549TIP3   OH241137   0.029   5.203  13.264 -0.0127 -0.2534  0.5825
 6549TIP3    H141138   0.093   5.219  13.334  0.8642 -0.8989 -0.0615
 6549TIP3    H241139  -0.050   5.248  13.294  1.2089  2.0325  0.6106
 6550TIP3   OH241140   1.205   3.482   5.352 -0.3141  0.2542 -0.0049
 6550TIP3    H141141   1.273   3.417   5.336 -0.4555  0.0824  0.0962
 6550TIP3    H241142   1.135   3.459   5.292 -0.9974 -0.6108  1.0843
 6551TIP3   OH241143   6.148   1.754   1.989  0.4534 -0.2215 -0.1071
 6551TIP3    H141144   6.193   1.736   1.907 -1.3865  1.4710 -1.5826
 6551TIP3    H241145   6.057   1.730   1.973 -0.4861  2.5825  0.4446
 6552TIP3   OH241146   5.584   2.769  12.443 -0.3883  0.0903 -0.1297
 6552TIP3    H141147   5.523   2.803  12.376 -0.0307  0.0503 -0.4816
 6552TIP3    H241148   5.652   2.725  12.392  0.4418  0.9524  0.1982
 6553TIP3   OH241149   6.299   6.716  16.723 -0.2609 -0.1075  0.0648
 6553TIP3    H141150   6.318   6.624  16.739  0.5067 -0.2812 -1.5661
 6553TIP3    H241151   6.384   6.759  16.725 -0.6945  0.7278  1.6028
 6554TIP3   OH241152   0.850   5.228  11.884 -0.5005 -0.0517 -0.0265
 6554TIP3    H141153   0.852   5.141  11.846 -1.0813  1.0753 -2.8648
 6554TIP3    H241154   0.771   5.228  11.939 -1.8586 -0.6512 -1.8697
 6555TIP3   OH241155   3.894   0.834   4.201 -0.8550 -0.0351 -0.6894
 6555TIP3    H141156   3.822   0.870   4.252 -0.6040 -0.0655 -0.3161
 6555TIP3    H241157   3.858   0.754   4.162 -0.9552 -0.1691 -0.3233
 6556TIP3   OH241158   4.012   0.858   1.571 -0.5659 -0.4340  0.4386
 6556TIP3    H141159   4.016   0.898   1.485 -1.9097  0.8456  0.9380
 6556TIP3    H241160   4.005   0.931   1.632  0.6819 -1.2941  1.6836
 6557TIP3   OH241161   4.371   0.100   4.136 -0.6926 -0.4063  0.1457
 6557TIP3    H141162   4.338   0.012   4.121 -0.1797 -0.5458 -0.2037
 6557TIP3    H241163   4.419   0.094   4.218  0.1984 -0.7105 -0.3773
 6558TIP3   OH241164   3.811   2.731  12.665  0.0525  0.2280 -0.1457
 6558TIP3    H141165   3.786   2.738  12.573 -2.4501 -1.3357  0.2931
 6558TIP3    H241166   3.842   2.818  12.689 -2.2938  1.6075 -1.7065
 6559TIP3   OH241167   0.722   4.865   4.886 -0.3354  0.0233  0.5880
 6559TIP3    H141168   0.774   4.945   4.875  0.9448 -0.9103 -0.4843
 6559TIP3    H241169   0.763   4.819   4.959 -1.4024  0.5725  1.5561
 6560TIP3   OH241170   4.492   5.758   0.279  0.1660  0.1401 -0.2272
 6560TIP3    H141171   4.430   5.703   0.232  0.0303 -0.5020  0.6780
 6560TIP3    H241172   4.438   5.814   0.334  0.3566  0.2833 -0.1829
 6561TIP3   OH241173   2.284   3.901  15.213  0.3705 -0.0973  0.1955
 6561TIP3    H141174   2.232   3.889  15.293  0.4432 -0.1959  0.2282
 6561TIP3    H241175   2.221   3.891  15.142  0.3008  0.0157  0.2415
 6562TIP3   OH241176   2.012   4.816  16.404 -0.6533  0.0280  0.5028
 6562TIP3    H141177   1.957   4.818  16.483  0.4835  0.9536  1.3078
 6562TIP3    H241178   1.994   4.899  16.360 -0.0753  0.2442  0.6617
 6563TIP3   OH241179   3.318   2.131   5.672  0.4988 -0.3787  0.0116
 6563TIP3    H141180   3.372   2.204   5.701  0.0761 -0.3129  0.6523
 6563TIP3    H241181   3.380   2.061   5.654  0.7275 -0.9206  2.4985
 6564TIP3   OH241182   1.976   1.227   0.505  0.5811  0.1446 -0.1101
 6564TIP3    H141183   2.000   1.150   0.557  0.7287  0.8313  0.8816
 6564TIP3    H241184   1.969   1.195   0.416  4.0665 -0.3723 -0.3427
 6565TIP3   OH241185   4.324   6.072   0.017  0.2125 -0.2465  0.4139
 6565TIP3    H141186   4.362   6.102  -0.065  0.2357 -1.2276  0.0473
 6565TIP3    H241187   4.398   6.064   0.077 -0.1456  3.9149  1.7540
 6566TIP3   OH241188   4.465   5.967   2.635 -0.5351 -0.1234 -0.6166
 6566TIP3    H141189   4.382   6.011   2.654  0.4067  1.6282 -0.3925
 6566TIP3    H241190   4.525   5.998   2.702  0.9562  0.5729 -2.1989
 6567TIP3   OH241191   2.087   6.603   3.814 -0.0402  0.1364 -0.9389
 6567TIP3    H141192   2.117   6.634   3.729  0.0813 -1.2401 -1.4215
 6567TIP3    H241193   2.007   6.653   3.831  0.7886  1.5764 -1.0942
 6568TIP3   OH241194   4.098   4.374  14.018  0.0464  0.1849  0.3465
 6568TIP3    H141195   4.037   4.310  14.054 -2.2926  1.8628 -0.3633
 6568TIP3    H241196   4.143   4.328  13.948  1.5602 -1.8558  2.5301
 6569TIP3   OH241197   5.416   0.027  13.215  0.7311  0.2821  0.3653
 6569TIP3    H141198   5.509   0.044  13.197  0.6474  0.0335 -0.3275
 6569TIP3    H241199   5.386  -0.024  13.140 -0.2485  1.3108  0.0310
 6570TIP3   OH241200   4.647   1.496   4.825  0.3690  0.1416 -0.2869
 6570TIP3    H141201   4.557   1.495   4.792  0.1577  1.3097  0.2047
 6570TIP3    H241202   4.661   1.409   4.861 -0.8525  0.1953  0.3596
 6571TIP3   OH241203   3.307   1.444  16.019  0.3384  0.2165 -0.5763
 6571TIP3    H141204   3.311   1.439  15.924  1.2512  2.4969 -0.7135
 6571TIP3    H241205   3.391   1.484  16.044  0.4238 -0.9807  1.2607
 6572TIP3   OH241206   6.729   1.713   4.392 -0.3131  0.1400  0.6241
 6572TIP3    H141207   6.651   1.678   4.435  0.0171  0.4931  1.5287
 6572TIP3    H241208   6.709   1.709   4.298 -0.1257 -2.8653  0.6283
 6573TIP3   OH241209   5.026   3.985  16.966  0.2776  0.4495 -0.1246
 6573TIP3    H141210   5.117   3.999  16.937  0.7107 -0.5265  0.7036
 6573TIP3    H241211   5.007   4.061  17.021  0.0626  1.4051 -1.4452
 6574TIP3   OH241212   0.093   5.508   3.116  0.5135  0.2045  0.5629
 6574TIP3    H141213   0.015   5.455   3.101  1.5762 -1.2058 -0.2706
 6574TIP3    H241214   0.128   5.524   3.029  2.1614 -0.8328  0.9725
 6575TIP3   OH241215   1.240   6.411  13.830  0.4226 -0.2362 -0.2570
 6575TIP3    H141216   1.155   6.369  13.843 -0.7770  1.8991 -0.7197
 6575TIP3    H241217   1.303   6.340  13.842 -1.3397 -1.6966  1.0990
 6576TIP3   OH241218   5.633   1.193  15.822  0.0420  0.1189  0.1671
 6576TIP3    H141219   5.724   1.168  15.809  0.1859  0.1510  1.0837
 6576TIP3    H241220   5.583   1.114  15.804  0.3928 -0.4389  1.5338
 6577TIP3   OH241221   4.694   5.236  15.133  0.5046  0.9657  0.2212
 6577TIP3    H141222   4.699   5.154  15.182 -0.5843 -0.2404 -1.5702
 6577TIP3    H241223   4.601   5.253  15.123  0.6649  0.8026 -1.9541
 6578TIP3   OH241224   0.945   0.754  14.429 -0.2099  0.2326 -0.0998
 6578TIP3    H141225   0.930   0.845  14.454  0.4456  0.3309 -0.0436
 6578TIP3    H241226   1.015   0.759  14.364 -0.4648 -0.1950 -0.4026
 6579TIP3   OH241227   6.665   2.002   4.491 -0.0046 -0.0652 -0.1689
 6579TIP3    H141228   6.607   2.006   4.415 -2.3923 -1.5799  1.4499
 6579TIP3    H241229   6.714   1.920   4.480 -0.8357 -0.6240  0.2306
 6580TIP3   OH241230   0.576   4.461  16.618 -0.1029  0.2090 -0.4398
 6580TIP3    H141231   0.502   4.497  16.667 -0.1005 -0.9076  0.4089
 6580TIP3    H241232   0.631   4.420  16.685  0.4623 -0.3842 -1.2573
 6581TIP3   OH241233   5.981   0.965   1.364 -0.0670  0.4280 -0.1076
 6581TIP3    H141234   5.903   0.971   1.419 -0.1385  1.4660 -0.3013
 6581TIP3    H241235   6.000   1.055   1.339  0.5507  0.0747 -0.9726
 6582TIP3   OH241236   3.277   1.792   5.629 -0.5246  1.0777 -0.2710
 6582TIP3    H141237   3.191   1.821   5.598 -0.0372  1.6723 -1.1341
 6582TIP3    H241238   3.338   1.857   5.593  0.2728  0.7647  0.4678
 6583TIP3   OH241239   3.331   1.278   1.473  0.2700 -0.0507  0.3398
 6583TIP3    H141240   3.318   1.355   1.528  0.5514 -0.7935  1.4674
 6583TIP3    H241241   3.316   1.310   1.384 -1.3942  0.9118  0.9103
 6584TIP3   OH241242   0.475   1.166   2.299  0.5801 -0.5533 -0.0914
 6584TIP3    H141243   0.453   1.073   2.310 -0.5197 -0.5577 -1.9188
 6584TIP3    H241244   0.450   1.186   2.208  0.8986  1.5095  0.2255
 6585TIP3   OH241245   3.698   2.955   0.060  0.4403  0.4956 -0.2951
 6585TIP3    H141246   3.698   2.913  -0.026 -0.1121  1.6341 -0.8736
 6585TIP3    H241247   3.664   3.042   0.044  2.7800  1.6852  0.6255
 6586TIP3   OH241248   4.283   5.878   3.698  0.3384  0.2274  0.5107
 6586TIP3    H141249   4.250   5.901   3.611  0.7320 -0.9695  0.0254
 6586TIP3    H241250   4.368   5.922   3.703  0.2272  0.4618  0.3742
 6587TIP3   OH241251   4.421   6.431  15.287 -0.2436 -0.1337 -0.0525
 6587TIP3    H141252   4.443   6.497  15.352 -1.1908  0.4425 -0.2988
 6587TIP3    H241253   4.325   6.433  15.282 -0.1976 -0.3824 -1.2434
 6588TIP3   OH241254   2.954   5.836   1.243  0.4499 -0.0402  0.0478
 6588TIP3    H141255   2.986   5.761   1.192 -1.6643 -1.1529  0.2060
 6588TIP3    H241256   3.014   5.842   1.317  1.7499 -0.3665 -0.9428
 6589TIP3   OH241257   0.423   5.177   4.733  0.2587 -0.4603  0.6430
 6589TIP3    H141258   0.376   5.153   4.812  1.4763 -2.1469  0.9162
 6589TIP3    H241259   0.475   5.253   4.757 -0.1028 -0.3771  1.1662
 6590TIP3   OH241260   2.103   3.737  12.427  0.2265  0.4330  0.4464
 6590TIP3    H141261   2.046   3.702  12.496  1.0837  0.7363  1.3281
 6590TIP3    H241262   2.177   3.677  12.423 -0.8197 -0.8743 -1.8030
 6591TIP3   OH241263   1.429   0.819  13.398 -0.3582 -0.0183 -0.2835
 6591TIP3    H141264   1.350   0.786  13.354 -0.6615 -0.3539  0.4936
 6591TIP3    H241265   1.417   0.794  13.490  0.1152  0.9385  0.0514
 6592TIP3   OH241266   5.279   4.823   3.646 -0.1864 -0.8023 -0.7831
 6592TIP3    H141267   5.278   4.805   3.552 -0.6814  0.5793 -1.0648
 6592TIP3    H241268   5.189   4.847   3.667 -0.3207 -2.1703  0.2812
 6593TIP3   OH241269   2.510   2.088   5.722 -0.2617  0.0668 -0.0214
 6593TIP3    H141270   2.458   2.013   5.751  1.4434 -0.7523  1.0576
 6593TIP3    H241271   2.505   2.150   5.795 -1.6029  1.0328 -0.8787
 6594TIP3   OH241272   3.494   4.195  15.431 -0.5277  0.4580 -0.3486
 6594TIP3    H141273   3.574   4.228  15.472 -0.9252 -0.3952  1.2089
 6594TIP3    H241274   3.485   4.106  15.464 -0.5085 -0.5749 -2.9130
 6595TIP3   OH241275   1.354   0.235  13.303 -0.4610 -0.1007 -0.4688
 6595TIP3    H141276   1.279   0.192  13.264 -0.5738  0.3598 -0.7652
 6595TIP3    H241277   1.428   0.176  13.285 -0.9232 -1.0997  0.7906
 6596TIP3   OH241278   6.473   3.611   1.492 -0.3459  0.1190  0.0582
 6596TIP3    H141279   6.441   3.603   1.402 -0.0296  1.0191 -0.1490
 6596TIP3    H241280   6.536   3.540   1.502  0.3977  0.6293 -0.7881
 6597TIP3   OH241281   3.647   3.065  17.013 -0.2728  0.2098 -0.1250
 6597TIP3    H141282   3.626   2.974  17.034  1.8670  0.3265  3.4811
 6597TIP3    H241283   3.562   3.108  17.003 -1.3666 -1.8289 -0.1100
 6598TIP3   OH241284   2.134   3.106   5.707  0.1787 -0.4319 -0.4759
 6598TIP3    H141285   2.059   3.165   5.718  0.5988  0.1108 -0.4507
 6598TIP3    H241286   2.136   3.089   5.612 -0.1104 -0.6354 -0.4478
 6599TIP3   OH241287   5.875   0.124  12.893  0.2736 -0.3360  0.3566
 6599TIP3    H141288   5.919   0.132  12.978  0.6932 -0.5167  0.1605
 6599TIP3    H241289   5.938   0.077  12.839 -0.2874 -0.8536  0.1516
 6600TIP3   OH241290   1.918   5.570   0.588  0.3316 -0.5071  0.1143
 6600TIP3    H141291   1.979   5.505   0.554  0.8075  0.2433 -0.4923
 6600TIP3    H241292   1.929   5.645   0.530 -2.0657 -0.7740 -0.8150
 6601TIP3   OH241293   5.901   1.520  10.854 -0.6474  0.4915 -0.0199
 6601TIP3    H141294   5.923   1.572  10.931 -1.3635  0.5010  0.1829
 6601TIP3    H241295   5.815   1.483  10.874  0.5988 -2.3436  0.6906
 6602TIP3   OH241296   0.214   2.846   1.907  0.0428 -0.1747  0.1261
 6602TIP3    H141297   0.253   2.922   1.949 -1.2431  2.2892 -2.7435
 6602TIP3    H241298   0.287   2.787   1.890  1.6544  1.8180 -0.2099
 6603TIP3   OH241299   3.749   0.221   6.614  0.3105 -0.1369 -0.0530
 6603TIP3    H141300   3.763   0.246   6.705  2.1028  0.6136 -0.4824
 6603TIP3    H241301   3.671   0.270   6.587 -1.2886 -1.7074  1.5244
 6604TIP3   OH241302   1.765   1.437  15.515  0.5113  0.3572 -0.7737
 6604TIP3    H141303   1.794   1.356  15.473 -1.8491 -0.1960 -1.4723
 6604TIP3    H241304   1.795   1.507  15.456  2.2043  0.0113 -0.3720
 6605TIP3   OH241305   3.230   3.056  11.412  0.1895  0.4946  0.7590
 6605TIP3    H141306   3.281   2.997  11.469  0.9930  1.3589  0.9643
 6605TIP3    H241307   3.139   3.036  11.432  0.2538 -3.2316 -1.7232
 6606TIP3   OH241308   3.083   6.136   5.945 -0.4368  0.2230  0.0765
 6606TIP3    H141309   3.177   6.150   5.955 -0.1151  0.0990 -2.2228
 6606TIP3    H241310   3.043   6.220   5.970  0.1856  0.0463  1.7870
 6607TIP3   OH241311   3.108   2.961   4.843 -0.0723 -0.2618  0.2353
 6607TIP3    H141312   3.159   3.005   4.911 -0.6598 -0.6125  0.9141
 6607TIP3    H241313   3.019   2.956   4.879  0.1907 -3.0572  0.7396
 6608TIP3   OH241314   3.383   2.915   3.803 -0.4174  0.0373 -0.8704
 6608TIP3    H141315   3.383   2.997   3.854  2.8415 -1.2113  1.4733
 6608TIP3    H241316   3.410   2.942   3.715  0.4489  1.5433 -0.1883
 6609TIP3   OH241317   6.439   5.235   5.806  0.1739 -0.1126  0.1764
 6609TIP3    H141318   6.469   5.262   5.893 -0.1514 -2.3394  1.0364
 6609TIP3    H241319   6.346   5.213   5.819  0.2104 -0.7800 -0.6588
 6610TIP3   OH241320   3.433   6.144  15.847  0.0276 -0.4936 -0.1081
 6610TIP3    H141321   3.349   6.180  15.818 -0.0158 -1.2525 -0.9915
 6610TIP3    H241322   3.409   6.077  15.911  0.0095 -0.1518  0.2457
 6611TIP3   OH241323   2.940   5.721   2.385  0.0187  0.2829 -1.0605
 6611TIP3    H141324   2.948   5.629   2.357  0.7355  0.3934 -1.2352
 6611TIP3    H241325   3.023   5.740   2.428 -0.2705  0.7446 -0.7015
 6612TIP3   OH241326   1.188   5.156  15.931 -0.0786 -0.1322  0.8917
 6612TIP3    H141327   1.148   5.241  15.948 -0.0634 -0.0267  0.4167
 6612TIP3    H241328   1.268   5.176  15.882 -0.8986 -0.4926 -0.6768
 6613TIP3   OH241329   2.986   5.926   6.551  0.6591  0.2943 -0.3899
 6613TIP3    H141330   2.964   5.832   6.554  0.7677  0.2399 -1.1967
 6613TIP3    H241331   3.080   5.929   6.568  0.3929  0.3985  1.3013
 6614TIP3   OH241332   3.415   6.741  15.987 -0.6383  0.0360 -0.1238
 6614TIP3    H141333   3.508   6.718  15.991 -0.2144  1.7497  0.7611
 6614TIP3    H241334   3.393   6.767  16.077 -1.8998 -0.0468 -0.3876
 6615TIP3   OH241335   2.584   3.081   5.744  0.0382 -0.1716  0.0384
 6615TIP3    H141336   2.655   3.020   5.767  0.9950  0.7299 -0.4179
 6615TIP3    H241337   2.619   3.130   5.670 -0.8218  0.7572  0.2357
 6616TIP3   OH241338   6.689   4.069  14.271 -0.1246 -0.4303  0.9333
 6616TIP3    H141339   6.727   4.071  14.359  1.1046  1.6227  0.4377
 6616TIP3    H241340   6.681   4.162  14.247 -2.7661 -0.8623 -0.1790
 6617TIP3   OH241341   2.826   0.289   5.989  0.5291  0.0985  0.1847
 6617TIP3    H141342   2.850   0.322   5.902 -1.0930  0.9667  0.0367
 6617TIP3    H241343   2.910   0.282   6.035  1.4399 -0.4696 -1.4548
 6618TIP3   OH241344   4.614   6.806  12.397  0.0628 -0.3155  0.2286
 6618TIP3    H141345   4.579   6.787  12.484  2.0232  0.9299  1.3575
 6618TIP3    H241346   4.675   6.735  12.379 -0.1303 -0.4226 -0.0119
 6619TIP3   OH241347   4.042   1.175   3.065 -0.3790  0.2484  0.1636
 6619TIP3    H141348   3.995   1.125   2.999  0.1528 -0.3542  0.2291
 6619TIP3    H241349   4.100   1.111   3.107 -0.7718  0.6106  1.2739
 6620TIP3   OH241350   1.344   2.391   3.183 -0.2010  0.3396 -0.1360
 6620TIP3    H141351   1.251   2.400   3.202 -0.2427  1.9511 -0.9056
 6620TIP3    H241352   1.375   2.326   3.246 -1.7104  0.2479  0.5638
 6621TIP3   OH241353   4.569   2.725  15.654 -0.3221 -0.0853  0.3010
 6621TIP3    H141354   4.479   2.751  15.673 -0.5250 -0.6307  0.1059
 6621TIP3    H241355   4.588   2.657  15.718 -0.6495 -1.1928 -0.7428
 6622TIP3   OH241356   5.932   5.078  13.750  0.5035 -0.2732  0.4429
 6622TIP3    H141357   5.867   5.132  13.705  0.8625 -1.5188 -1.7121
 6622TIP3    H241358   5.924   5.102  13.842 -2.4118  0.2360  0.1426
 6623TIP3   OH241359   1.589   4.181  15.396 -0.4372 -0.1087 -0.3226
 6623TIP3    H141360   1.512   4.171  15.340 -0.5231 -1.6468  0.0416
 6623TIP3    H241361   1.582   4.271  15.430 -1.3242  0.2366 -1.3617
 6624TIP3   OH241362   5.214   3.641   2.998 -0.3329 -0.0570  0.1534
 6624TIP3    H141363   5.217   3.641   2.903 -1.1531 -1.1686  0.1142
 6624TIP3    H241364   5.302   3.616   3.025  0.1066  0.9669 -0.2820
 6625TIP3   OH241365   4.478   2.195   5.652 -0.2533  0.1912 -0.5720
 6625TIP3    H141366   4.422   2.227   5.581 -0.9177 -0.9124 -0.5580
 6625TIP3    H241367   4.420   2.141   5.706 -0.0975  1.9904  1.5641
 6626TIP3   OH241368   4.599   6.824   1.245  0.1290  0.0399  0.3697
 6626TIP3    H141369   4.613   6.854   1.155 -0.5658 -0.1310  0.2033
 6626TIP3    H241370   4.686   6.832   1.286  0.0093  2.2747  0.3434
 6627TIP3   OH241371   1.716   4.577  13.315  0.0519  0.4421  0.0044
 6627TIP3    H141372   1.657   4.651  13.329  0.0867  0.8546 -1.8185
 6627TIP3    H241373   1.798   4.605  13.356  0.4212  1.9706 -1.6294
 6628TIP3   OH241374   2.444   2.432  13.469 -0.0954 -0.5056  0.2575
 6628TIP3    H141375   2.401   2.404  13.388 -0.3000 -0.1257  0.2343
 6628TIP3    H241376   2.408   2.519  13.486  0.8191 -0.0932  0.1287
 6629TIP3   OH241377   0.405   0.489  14.001  0.0903  0.5875  0.4677
 6629TIP3    H141378   0.430   0.409  14.048 -2.1883 -0.2439  0.4242
 6629TIP3    H241379   0.350   0.537  14.064 -1.1717  0.5429 -0.5544
 6630TIP3   OH241380   2.443   0.102   6.476  0.3917  0.6746  0.4295
 6630TIP3    H141381   2.382   0.154   6.423 -1.6123 -1.0137  0.9334
 6630TIP3    H241382   2.415   0.117   6.566  1.5552  0.8348  0.7791
 6631TIP3   OH241383   4.177   3.789  15.995 -0.0903 -0.1532 -0.3421
 6631TIP3    H141384   4.248   3.784  15.932  0.1068  0.1789 -0.1525
 6631TIP3    H241385   4.173   3.701  16.035  0.6582  0.0151  0.1201
 6632TIP3   OH241386   0.931   3.184  10.713  0.9557 -0.5960  0.2722
 6632TIP3    H141387   0.998   3.129  10.673  0.7905  0.4910 -1.5975
 6632TIP3    H241388   0.854   3.171  10.657  0.6989  0.9347  0.2367
 6633TIP3   OH241389   3.688   4.976  13.801 -0.6571  0.1432  0.4608
 6633TIP3    H141390   3.630   4.961  13.876 -0.7870  1.6199  0.6790
 6633TIP3    H241391   3.629   5.001  13.730 -0.3093  2.0079  0.7807
 6634TIP3   OH241392   0.122   4.786   3.998  1.0595 -0.3667  0.2627
 6634TIP3    H141393   0.101   4.693   4.005  1.3335 -0.3559  1.4621
 6634TIP3    H241394   0.051   4.831   4.045  0.2037  0.1434 -1.4454
 6635TIP3   OH241395   0.106   1.212  15.952 -0.3487  0.3572  0.4430
 6635TIP3    H141396   0.201   1.224  15.952 -0.1029 -0.7093 -2.7124
 6635TIP3    H241397   0.071   1.300  15.965  1.1384  1.1157 -0.3943
 6636TIP3   OH241398   5.140   6.689   1.600 -0.2320 -0.3443 -0.3431
 6636TIP3    H141399   5.101   6.626   1.661 -0.3918  0.3038  0.2314
 6636TIP3    H241400   5.233   6.670   1.603 -0.0846  0.4645  1.0390
 6637TIP3   OH241401   2.518   0.726   1.021 -0.6117 -0.5406 -0.1117
 6637TIP3    H141402   2.535   0.773   0.939  2.1927  0.9322  1.2037
 6637TIP3    H241403   2.437   0.765   1.055 -1.7618 -1.1005 -2.0530
 6638TIP3   OH241404   2.821   5.652   3.858  0.0988  0.3749 -0.0908
 6638TIP3    H141405   2.826   5.743   3.830  0.3005  0.1281 -0.8860
 6638TIP3    H241406   2.832   5.655   3.953 -1.2603  1.2881  0.0501
 6639TIP3   OH241407   3.904   1.290   6.412  0.2295  0.3114  0.6737
 6639TIP3    H141408   3.883   1.268   6.502  2.2849  0.5738  1.2580
 6639TIP3    H241409   3.858   1.224   6.359 -0.2861 -0.3694  1.9450
 6640TIP3   OH241410   2.668   3.420  16.950  0.9128 -0.0065  0.3707
 6640TIP3    H141411   2.637   3.339  16.989 -0.6943 -0.6422 -2.0207
 6640TIP3    H241412   2.711   3.393  16.869  0.2678  1.5003 -0.5191
 6641TIP3   OH241413   4.562   2.912   3.307  0.1674 -0.7443 -0.3800
 6641TIP3    H141414   4.479   2.938   3.346  0.4141  1.5393 -1.2562
 6641TIP3    H241415   4.537   2.852   3.236 -0.9214  1.0247 -1.5765
 6642TIP3   OH241416   2.800   4.132  14.649  0.1573  0.3694 -0.6992
 6642TIP3    H141417   2.882   4.148  14.602 -0.1888  0.4666 -1.2777
 6642TIP3    H241418   2.753   4.215  14.645 -0.3936  0.0387 -1.2220
 6643TIP3   OH241419   5.097   3.361   6.708  0.4256 -0.1413 -0.1055
 6643TIP3    H141420   5.114   3.436   6.651  0.9154  0.6727  1.0670
 6643TIP3    H241421   5.006   3.337   6.690 -0.4902  2.1423  1.0298
 6644TIP3   OH241422   2.435   3.822   2.174  0.1344 -0.4074  0.3345
 6644TIP3    H141423   2.378   3.820   2.252 -1.5444  0.4193 -0.8154
 6644TIP3    H241424   2.419   3.738   2.131 -2.2077  0.7605 -1.2777
 6645TIP3   OH241425   4.285   2.710   5.188  0.3358  0.0531  0.3179
 6645TIP3    H141426   4.294   2.713   5.093 -0.0688  0.1078  0.2819
 6645TIP3    H241427   4.200   2.670   5.203  1.2381 -1.7979  0.6915
 6646TIP3   OH241428   6.461   0.689   2.886 -0.1319  0.1056 -0.4912
 6646TIP3    H141429   6.529   0.724   2.943  1.3760 -0.1439 -2.0443
 6646TIP3    H241430   6.470   0.594   2.893 -0.0691  0.0714 -0.9831
 6647TIP3   OH241431   3.346   3.873   4.947 -0.0035  0.0993  0.2223
 6647TIP3    H141432   3.319   3.884   5.038  0.0705 -1.2035  0.4268
 6647TIP3    H241433   3.406   3.798   4.949  0.6423  0.5688 -0.7838
 6648TIP3   OH241434   6.107   3.797  14.176  0.0228  0.4373 -0.4085
 6648TIP3    H141435   6.051   3.734  14.221 -0.0810  2.0627  1.9028
 6648TIP3    H241436   6.046   3.864  14.144  0.3656  0.6002 -0.7338
 6649TIP3   OH241437   3.787   0.718  13.650  0.2674  0.3070 -0.0120
 6649TIP3    H141438   3.738   0.677  13.721  0.8511 -3.4849 -1.5317
 6649TIP3    H241439   3.870   0.670  13.649  0.5072  0.6464 -2.7882
 6650TIP3   OH241440   3.651   5.877   5.830 -0.1500 -0.1892 -0.0053
 6650TIP3    H141441   3.677   5.890   5.921 -0.8278  1.1640  0.0193
 6650TIP3    H241442   3.614   5.961   5.803 -0.2152 -0.6491 -1.4529
 6651TIP3   OH241443   2.194   2.777   3.316 -0.2173 -1.0477 -0.4992
 6651TIP3    H141444   2.176   2.852   3.259  1.4477 -0.8340 -0.7827
 6651TIP3    H241445   2.290   2.771   3.320 -0.3039 -2.3961  0.5333
 6652TIP3   OH241446   3.538   2.332   0.848  0.1559 -0.1981 -0.1523
 6652TIP3    H141447   3.605   2.401   0.853  0.8937 -0.8588 -0.6421
 6652TIP3    H241448   3.491   2.339   0.931 -0.6794  1.7664 -0.7248
 6653TIP3   OH241449   4.230   0.340  12.895  0.4528 -0.0855  0.7807
 6653TIP3    H141450   4.144   0.299  12.883  0.1228  0.8762 -0.3097
 6653TIP3    H241451   4.293   0.270  12.875 -0.1062 -0.0898 -1.1731
 6654TIP3   OH241452   3.830   4.127   3.929  0.1086 -0.0853  0.3305
 6654TIP3    H141453   3.826   4.222   3.927  0.8188 -0.0067  1.5692
 6654TIP3    H241454   3.744   4.100   3.961  0.3507  0.2235  1.2707
 6655TIP3   OH241455   2.345   1.593  17.105 -0.3686 -0.3426 -0.0012
 6655TIP3    H141456   2.272   1.650  17.125 -1.7354 -2.3369  0.9659
 6655TIP3    H241457   2.377   1.563  17.190 -0.0897 -1.4871 -0.4923
 6656TIP3   OH241458   0.305   3.695   3.944  0.0030  0.4128  0.1947
 6656TIP3    H141459   0.358   3.638   4.000  0.6428  0.7669 -0.0560
 6656TIP3    H241460   0.223   3.646   3.932  0.4027 -0.2879  0.2897
 6657TIP3   OH241461   6.112   3.518  17.050 -0.6404 -0.1642  0.3723
 6657TIP3    H141462   6.077   3.558  17.130 -0.6607 -0.7669  0.6723
 6657TIP3    H241463   6.204   3.502  17.070 -0.7042 -0.5416  0.3650
 6658TIP3   OH241464   6.346   6.169  14.386 -0.4317  0.1190  0.7971
 6658TIP3    H141465   6.366   6.253  14.429 -0.8170 -0.2393  1.7097
 6658TIP3    H241466   6.374   6.103  14.450  0.1377 -0.4613 -0.0315
 6659TIP3   OH241467   6.556   3.030  14.983 -0.8088  0.1398 -0.2381
 6659TIP3    H141468   6.569   2.953  14.926 -1.3059  1.7308 -2.6699
 6659TIP3    H241469   6.559   2.995  15.072 -0.5950 -2.6202 -1.2300
 6660TIP3   OH241470   3.723   3.636   2.154  0.3328 -0.3568  0.5625
 6660TIP3    H141471   3.777   3.607   2.227  0.4884 -0.3893  0.4350
 6660TIP3    H241472   3.780   3.628   2.077  0.7337  1.3144  0.6536
 6661TIP3   OH241473   4.963   1.813  10.640 -0.0864 -0.7992 -0.8617
 6661TIP3    H141474   5.007   1.776  10.716 -0.6701 -1.4642 -0.8395
 6661TIP3    H241475   5.013   1.892  10.619  0.5170 -1.0116 -0.2414
 6662TIP3   OH241476   3.321   6.706   4.285 -0.2760  0.0780 -0.0576
 6662TIP3    H141477   3.261   6.635   4.303 -0.3972 -0.1177 -1.1678
 6662TIP3    H241478   3.408   6.671   4.306 -0.3782 -0.2288 -0.1572
 6663TIP3   OH241479   5.225   2.446  11.394 -0.4728 -0.0260  0.3986
 6663TIP3    H141480   5.172   2.526  11.394 -1.5462 -0.7330  0.3535
 6663TIP3    H241481   5.215   2.411  11.305  0.2592 -0.0542  0.3178
 6664TIP3   OH241482   6.618   1.180   5.238  0.0482 -0.0020  0.4467
 6664TIP3    H141483   6.623   1.269   5.205  0.0623 -0.1089  0.1628
 6664TIP3    H241484   6.685   1.132   5.188  1.3160  0.2254  1.8367
 6665TIP3   OH241485   1.557   4.840   0.698  0.9644 -0.1227  0.1109
 6665TIP3    H141486   1.565   4.920   0.750  1.9450 -0.0508 -0.1291
 6665TIP3    H241487   1.632   4.843   0.638 -0.1560 -0.1520 -1.3743
 6666TIP3   OH241488   4.290   0.299   0.921 -0.0755  0.1976  0.2218
 6666TIP3    H141489   4.296   0.238   0.994  0.5865 -0.0102 -0.0027
 6666TIP3    H241490   4.216   0.356   0.943  0.0905  0.1058  1.0200
 6667TIP3   OH241491   0.958   2.611   2.902 -0.1414  0.0518 -0.0309
 6667TIP3    H141492   1.019   2.641   2.834 -0.2648 -1.4803 -0.8603
 6667TIP3    H241493   0.989   2.652   2.982  0.1522  1.7261 -0.9531
 6668TIP3   OH241494   5.308   3.962   2.604 -0.2811  0.0378 -0.0916
 6668TIP3    H141495   5.401   3.949   2.625 -0.3453  0.5842  0.5819
 6668TIP3    H241496   5.268   3.986   2.688 -0.6878  1.6177 -0.7008
 6669TIP3   OH241497   6.800   6.700   2.745 -0.0354 -0.1393 -0.1050
 6669TIP3    H141498   6.788   6.605   2.748 -1.8403 -0.0392 -1.9007
 6669TIP3    H241499   6.769   6.730   2.831  0.3274 -1.1259  0.3983
 6670TIP3   OH241500   4.958   4.052   2.689  0.4970  0.0371  0.5597
 6670TIP3    H141501   4.975   3.969   2.735  0.3188 -1.1429 -1.3860
 6670TIP3    H241502   4.891   4.095   2.742  0.5837 -1.0540  1.6067
 6671TIP3   OH241503   6.568   1.726  12.380 -0.1857 -0.7202 -0.6464
 6671TIP3    H141504   6.579   1.632  12.364  1.1801 -0.4909 -1.1934
 6671TIP3    H241505   6.515   1.756  12.307 -0.5978 -1.0622 -0.4911
 6672TIP3   OH241506   5.636   5.457   0.183  0.4423 -0.5800  0.0556
 6672TIP3    H141507   5.696   5.389   0.213 -0.3141 -2.1441 -1.8402
 6672TIP3    H241508   5.678   5.494   0.106  0.1753  0.1380  0.2491
 6673TIP3   OH241509   1.112   1.038   1.043 -0.0985  0.4901 -0.2195
 6673TIP3    H141510   1.081   0.997   0.962 -0.6482  0.7590 -0.1503
 6673TIP3    H241511   1.037   1.089   1.074 -0.3701 -0.7002  1.2013
 6674TIP3   OH241512   0.224   2.990  11.782 -0.0896  0.2162  0.1581
 6674TIP3    H141513   0.133   3.011  11.805 -0.4870  0.4355 -1.4722
 6674TIP3    H241514   0.267   3.075  11.775 -0.4946  0.3121 -1.7734
 6675TIP3   OH241515   3.314   5.699   1.192  0.6802  0.0731  0.7202
 6675TIP3    H141516   3.361   5.618   1.209  0.8867  0.2696  1.0721
 6675TIP3    H241517   3.294   5.695   1.098  0.2556 -0.6139  0.8336
 6676TIP3   OH241518   4.363   2.211   0.811  0.4767 -0.2063 -0.1493
 6676TIP3    H141519   4.293   2.175   0.757 -0.6853  2.0325 -0.2492
 6676TIP3    H241520   4.369   2.152   0.885 -0.6122 -1.1679 -0.7985
 6677TIP3   OH241521   1.977   4.767   4.733  0.0810  0.1286  0.4338
 6677TIP3    H141522   1.970   4.775   4.638  0.6376  0.6406  0.4341
 6677TIP3    H241523   1.938   4.682   4.753  1.3823 -0.6994 -0.4108
 6678TIP3   OH241524   3.509   6.735  13.320 -0.5953 -0.4111  0.6941
 6678TIP3    H141525   3.425   6.697  13.348 -0.4229  0.0481  1.8870
 6678TIP3    H241526   3.563   6.734  13.399  0.6205 -0.9297 -0.1143
 6679TIP3   OH241527   0.934   3.254  12.015 -0.5801 -0.1089  0.5399
 6679TIP3    H141528   1.018   3.293  12.039  0.1561 -0.9318 -0.5771
 6679TIP3    H241529   0.886   3.325  11.972  0.2458 -0.0536 -0.3417
 6680TIP3   OH241530   2.165   5.747  13.074  0.3632  0.1517 -1.3836
 6680TIP3    H141531   2.258   5.755  13.054  0.9256 -2.0933 -0.0432
 6680TIP3    H241532   2.143   5.657  13.051 -0.8194 -0.1241  0.6025
 6681TIP3   OH241533   2.107   3.707  13.719  0.3196 -0.0181  0.3500
 6681TIP3    H141534   2.101   3.612  13.729 -1.3059  0.0811  0.5189
 6681TIP3    H241535   2.069   3.725  13.633 -0.9437  0.6122  1.0183
 6682TIP3   OH241536   5.883   5.334   3.299 -0.1976 -0.4385  0.1583
 6682TIP3    H141537   5.870   5.267   3.366 -0.4592 -0.1277  0.4192
 6682TIP3    H241538   5.944   5.397   3.338  1.8608 -1.6620 -0.9005
 6683TIP3   OH241539   5.640   1.936   0.296  0.4805 -0.1285 -0.4006
 6683TIP3    H141540   5.733   1.915   0.306  1.0043  1.9744 -0.4539
 6683TIP3    H241541   5.612   1.887   0.218  1.4589 -0.9991 -0.2176
 6684TIP3   OH241542   1.769   4.689   1.203  0.2218  0.0651 -0.0325
 6684TIP3    H141543   1.820   4.748   1.259  1.1684 -0.7259 -0.0267
 6684TIP3    H241544   1.821   4.679   1.124  0.9858 -2.0987  0.6551
 6685TIP3   OH241545   3.686   5.236   0.903  0.0326  0.2076 -0.0327
 6685TIP3    H141546   3.779   5.221   0.917 -0.2260 -0.8965  0.6712
 6685TIP3    H241547   3.643   5.165   0.951 -1.1370  0.1442 -1.1133
 6686TIP3   OH241548   3.666   4.418  14.695 -0.3348 -0.4917 -0.4677
 6686TIP3    H141549   3.582   4.464  14.704 -0.1133 -0.1763  0.0272
 6686TIP3    H241550   3.730   4.477  14.734 -0.0310 -1.1881  0.1267
 6687TIP3   OH241551   5.045   4.724  11.026 -0.4900 -0.1179  0.4190
 6687TIP3    H141552   5.007   4.752  11.109 -0.2385  0.9433  0.1987
 6687TIP3    H241553   5.099   4.648  11.048 -2.2729 -1.3228  0.8178
 6688TIP3   OH241554   3.780   2.751  13.132  0.1969  0.2411 -0.1415
 6688TIP3    H141555   3.804   2.699  13.055 -0.5309  0.8251 -0.7890
 6688TIP3    H241556   3.689   2.727  13.149  0.1676  0.5599  0.1641
 6689TIP3   OH241557   5.958   4.929   3.861 -0.0160 -0.1766 -0.3985
 6689TIP3    H141558   5.978   4.910   3.769  0.3001  0.3375 -0.4442
 6689TIP3    H241559   5.938   4.844   3.900  1.2504 -0.5891 -0.6107
 6690TIP3   OH241560   4.572   3.398   1.685  0.3150  0.2686 -0.4378
 6690TIP3    H141561   4.639   3.333   1.703  1.4662  1.5822  0.2231
 6690TIP3    H241562   4.619   3.481   1.679 -1.4495  1.5992  2.1878
 6691TIP3   OH241563   1.595   3.887  11.134  0.0539 -0.5416 -0.4023
 6691TIP3    H141564   1.686   3.874  11.160  1.0951  0.7545 -3.0658
 6691TIP3    H241565   1.593   3.867  11.041 -2.5433 -1.0481 -0.3173
 6692TIP3   OH241566   2.397   1.796   2.752 -0.2437 -0.0916  0.4522
 6692TIP3    H141567   2.418   1.822   2.663  0.2652 -0.8998  0.3304
 6692TIP3    H241568   2.452   1.719   2.769 -0.6802 -0.2332  1.2944
 6693TIP3   OH241569   0.191   0.272   4.460 -0.1484  0.0778  0.0549
 6693TIP3    H141570   0.173   0.186   4.421 -1.8699 -0.8834  2.6785
 6693TIP3    H241571   0.278   0.262   4.498 -0.0439 -0.2798 -0.2690
 6694TIP3   OH241572   1.193   0.723  14.819 -0.2691 -0.1276  0.1572
 6694TIP3    H141573   1.246   0.650  14.852  0.8663 -0.4584 -2.2225
 6694TIP3    H241574   1.118   0.680  14.778 -0.0841  0.0862 -0.4096
 6695TIP3   OH241575   0.326   3.807   2.274 -0.3303  0.3669  0.2156
 6695TIP3    H141576   0.259   3.768   2.218  0.0609 -0.7133  0.4785
 6695TIP3    H241577   0.277   3.859   2.337 -1.0022 -1.0029  0.8672
 6696TIP3   OH241578   1.654   1.385   1.378  0.7043  0.8712 -0.3094
 6696TIP3    H141579   1.630   1.474   1.405 -0.4244  0.2068  1.0095
 6696TIP3    H241580   1.601   1.368   1.301  0.7787  1.2622 -0.4510
 6697TIP3   OH241581   2.335   5.980   4.676  0.4112 -0.3393 -0.2673
 6697TIP3    H141582   2.412   5.949   4.724 -0.1743 -4.0990 -1.3902
 6697TIP3    H241583   2.266   5.988   4.743  1.4099  2.1174  0.5856
 6698TIP3   OH241584   4.269   6.662  15.049  0.1479  0.1281  0.2172
 6698TIP3    H141585   4.263   6.612  15.131 -0.5476  1.1171  0.7839
 6698TIP3    H241586   4.197   6.725  15.054  0.5311  0.6675 -0.8426
 6699TIP3   OH241587   1.136   0.977   3.237 -0.2749 -0.3846 -0.1648
 6699TIP3    H141588   1.049   1.016   3.244  0.1323  0.8378 -1.3663
 6699TIP3    H241589   1.178   1.025   3.166  1.3774 -0.9717  0.3599
 6700TIP3   OH241590   6.355   5.040   1.338 -0.1383 -0.0101 -0.1378
 6700TIP3    H141591   6.433   5.079   1.377  0.5579 -1.1663 -0.3339
 6700TIP3    H241592   6.380   5.022   1.247 -0.7945  0.0282 -0.3341
 6701TIP3   OH241593   0.453   1.650  15.613 -0.5159  0.3370  0.3555
 6701TIP3    H141594   0.504   1.729  15.596  1.7521 -1.2298 -0.6291
 6701TIP3    H241595   0.434   1.615  15.526 -0.6681 -0.6837  0.7845
 6702TIP3   OH241596   2.545   0.482   3.284 -0.0829  0.4416  0.5110
 6702TIP3    H141597   2.467   0.434   3.312  0.8092 -1.7359 -0.4459
 6702TIP3    H241598   2.551   0.556   3.343 -1.3797 -0.8474  2.3604
 6703TIP3   OH241599   5.323   6.816  13.494  0.4306 -0.2711 -0.0910
 6703TIP3    H141600   5.383   6.810  13.419  3.2971  1.8190  1.8324
 6703TIP3    H241601   5.364   6.763  13.561 -0.3747  0.4655  1.0114
 6704TIP3   OH241602   5.150   1.850   1.660  0.9280 -0.0714 -0.0661
 6704TIP3    H141603   5.166   1.814   1.748 -2.1134  0.5146  0.8542
 6704TIP3    H241604   5.151   1.944   1.673 -0.4217  0.0044 -0.4552
 6705TIP3   OH241605   3.077   3.001   4.364 -0.6822 -0.0528 -0.7116
 6705TIP3    H141606   3.155   2.975   4.314 -0.1598 -1.3540  0.6899
 6705TIP3    H241607   3.103   3.079   4.412  0.7073 -1.9064  1.7483
 6706TIP3   OH241608   4.674   5.388   0.250  0.3629  0.1250 -0.6463
 6706TIP3    H141609   4.612   5.405   0.178 -0.6049  0.9632  0.3457
 6706TIP3    H241610   4.720   5.471   0.261  1.4436 -0.3926 -1.1379
 6707TIP3   OH241611   4.528   1.248   2.483  0.3534 -0.0872  0.9654
 6707TIP3    H141612   4.590   1.175   2.488  3.4824  2.3730  1.0858
 6707TIP3    H241613   4.513   1.260   2.390 -0.3856 -0.9734  0.9502
 6708TIP3   OH241614   3.421   5.940  11.876  0.4505  0.0982  0.5089
 6708TIP3    H141615   3.397   5.969  11.787 -0.9548 -1.7392  0.2361
 6708TIP3    H241616   3.338   5.943  11.924  0.7405 -1.1634  1.0980
 6709TIP3   OH241617   5.397   2.382  16.030 -0.7738  0.0216 -0.2086
 6709TIP3    H141618   5.328   2.405  16.091 -0.6997 -0.6594  0.1455
 6709TIP3    H241619   5.414   2.289  16.047 -1.4519 -0.4619 -1.9335
 6710TIP3   OH241620   5.307   3.285  16.290  0.0331  0.4994 -0.5958
 6710TIP3    H141621   5.328   3.364  16.340 -1.1161 -0.2939  1.2821
 6710TIP3    H241622   5.392   3.247  16.269  0.5952  2.0314 -1.2229
 6711TIP3   OH241623   3.210   0.867   6.092 -0.5169  0.4224 -0.0467
 6711TIP3    H141624   3.242   0.813   6.164 -2.4099 -1.5541 -0.5813
 6711TIP3    H241625   3.133   0.912   6.128 -2.0135 -1.2588 -0.9834
 6712TIP3   OH241626   0.866   5.083  16.514  0.2033  0.4904  0.0444
 6712TIP3    H141627   0.940   5.136  16.486 -0.3778  1.7825  0.8529
 6712TIP3    H241628   0.790   5.139  16.501 -0.8163 -1.1756 -1.7812
 6713TIP3   OH241629   3.989   5.883  16.733  0.2601 -0.1082 -0.1186
 6713TIP3    H141630   4.027   5.852  16.815  0.9081  0.4160 -0.2145
 6713TIP3    H241631   4.010   5.815  16.669 -1.5432 -1.2513  0.4460
 6714TIP3   OH241632   2.885   0.085  12.740 -0.5415  0.0600  0.4892
 6714TIP3    H141633   2.801   0.045  12.717 -0.2099 -0.5082  0.2353
 6714TIP3    H241634   2.950   0.031  12.695  0.1799 -1.3430  3.0658
 6715TIP3   OH241635   3.555   5.156  15.316 -0.4541 -0.1334  0.2924
 6715TIP3    H141636   3.647   5.128  15.307 -0.8056 -1.4876  0.6065
 6715TIP3    H241637   3.548   5.183  15.407 -0.5629 -0.8445  0.5015
 6716TIP3   OH241638   3.820   4.650   5.262  0.1383 -0.3026 -0.2177
 6716TIP3    H141639   3.789   4.647   5.352 -3.3109 -1.9879 -1.2560
 6716TIP3    H241640   3.841   4.558   5.241  2.8474  0.3251 -0.6522
 6717TIP3   OH241641   2.399   4.849   5.331 -0.3135  0.5596  0.0190
 6717TIP3    H141642   2.406   4.777   5.394 -1.0778  1.7803  1.5570
 6717TIP3    H241643   2.308   4.844   5.300 -0.3152  0.7682 -0.0072
 6718TIP3   OH241644   0.287   4.608  16.409  0.3210  0.5775 -0.1976
 6718TIP3    H141645   0.228   4.679  16.433  0.2639  0.1564  0.9419
 6718TIP3    H241646   0.373   4.637  16.440  0.1845 -0.1278  0.8588
 6719TIP3   OH241647   4.736   6.001   3.825  0.0560  0.1559  0.1409
 6719TIP3    H141648   4.762   6.020   3.915  0.0516 -0.8664  0.3729
 6719TIP3    H241649   4.641   6.015   3.823  0.0743  0.3003  0.2547
 6720TIP3   OH241650   0.249   2.086  16.629  0.0091  0.3762  0.4383
 6720TIP3    H141651   0.293   2.051  16.552  0.0018 -1.9528  1.4189
 6720TIP3    H241652   0.312   2.075  16.700 -0.2201  1.9088  0.9278
 6721TIP3   OH241653   1.679   6.319  14.250 -0.0915  0.4989  0.3690
 6721TIP3    H141654   1.738   6.367  14.307  1.3504 -0.3592 -0.3440
 6721TIP3    H241655   1.670   6.233  14.290 -0.1930  0.3479  0.0315
 6722TIP3   OH241656   3.667   5.300  10.186  0.3124  0.1833  0.4117
 6722TIP3    H141657   3.595   5.363  10.195  0.8355  0.9267 -0.4459
 6722TIP3    H241658   3.709   5.323  10.103 -0.8175 -2.6606 -1.0998
 6723TIP3   OH241659   1.013   5.278  16.374  0.0375 -0.4012  0.4310
 6723TIP3    H141660   1.091   5.327  16.346  3.0572 -4.4789  0.8260
 6723TIP3    H241661   0.981   5.236  16.295 -0.4302 -0.4885  0.6656
 6724TIP3   OH241662   3.451   0.522   3.781  0.2670 -0.3580 -0.3231
 6724TIP3    H141663   3.385   0.561   3.723  0.6496 -1.2062 -1.3661
 6724TIP3    H241664   3.486   0.596   3.830  0.2246  0.4575 -1.4721
 6725TIP3   OH241665   5.724   0.414  11.242  0.6541  0.1388 -0.1233
 6725TIP3    H141666   5.640   0.458  11.253  1.3242  1.1955  1.0278
 6725TIP3    H241667   5.729   0.396  11.148 -1.0688 -0.4205 -0.1444
 6726TIP3   OH241668   2.535   2.500   1.802  1.0591 -0.7842 -0.3402
 6726TIP3    H141669   2.601   2.520   1.736  0.1164 -0.2255 -1.1174
 6726TIP3    H241670   2.560   2.413   1.834  2.0002 -0.7070 -0.8243
 6727TIP3   OH241671   4.514   4.248  11.950  0.0455  0.5723  0.0407
 6727TIP3    H141672   4.605   4.225  11.967 -0.4403 -1.0231  0.6968
 6727TIP3    H241673   4.513   4.277  11.859  0.9233 -1.2482 -0.6004
 6728TIP3   OH241674   6.508   0.259  15.871 -0.0974 -0.0283 -0.7434
 6728TIP3    H141675   6.485   0.256  15.964  0.1940 -0.5763 -0.6839
 6728TIP3    H241676   6.427   0.285  15.827 -0.3449 -0.1628 -0.3733
 6729TIP3   OH241677   3.368   4.195   3.320 -0.5413  0.0755  0.1190
 6729TIP3    H141678   3.338   4.281   3.291 -0.4631 -0.4869 -1.8113
 6729TIP3    H241679   3.457   4.209   3.353 -0.4263  0.6918 -0.4438
 6730TIP3   OH241680   3.493   3.351  12.967 -0.8797  0.0083  0.6347
 6730TIP3    H141681   3.438   3.428  12.974 -0.0378  0.6764  0.1593
 6730TIP3    H241682   3.524   3.335  13.056 -0.8418  0.3902  0.6927
 6731TIP3   OH241683   5.426   3.189  11.676 -0.1324  1.1495  0.1074
 6731TIP3    H141684   5.514   3.153  11.670 -0.3361  0.6945 -0.2956
 6731TIP3    H241685   5.433   3.260  11.740 -0.0004 -0.5169  2.0816
 6732TIP3   OH241686   1.150   0.222   4.074 -0.0999  0.1921 -0.2696
 6732TIP3    H141687   1.206   0.284   4.120  0.7799 -1.4442  0.9295
 6732TIP3    H241688   1.181   0.136   4.101 -0.5903 -0.8314 -2.7135
 6733TIP3   OH241689   4.897   4.221   1.399 -0.4973  0.2377 -0.5545
 6733TIP3    H141690   4.898   4.190   1.309  0.1384 -1.4565  0.0080
 6733TIP3    H241691   4.958   4.164   1.446 -0.8414  1.0461  0.9699
 6734TIP3   OH241692   0.400   3.490  11.272 -0.8195 -0.2689  0.2243
 6734TIP3    H141693   0.341   3.429  11.227 -0.9828 -1.0357  1.4151
 6734TIP3    H241694   0.404   3.456  11.362 -1.3615  1.8174  1.0903
 6735TIP3   OH241695   1.757   0.585   3.395 -0.1185  0.0814 -0.6825
 6735TIP3    H141696   1.830   0.524   3.406 -0.2399  0.1057  0.3718
 6735TIP3    H241697   1.694   0.538   3.340 -0.3652 -0.8918  0.4090
 6736TIP3   OH241698   5.249   2.968   3.363 -0.4269  0.3008 -0.2468
 6736TIP3    H141699   5.238   3.063   3.351 -0.4057  0.0342 -3.2483
 6736TIP3    H241700   5.333   2.958   3.407 -1.2696  1.6684  1.8529
 6737TIP3   OH241701   1.158   6.552  11.662 -0.1267  0.2258 -0.1950
 6737TIP3    H141702   1.169   6.494  11.737 -1.5863 -1.6088 -1.3128
 6737TIP3    H241703   1.244   6.555  11.621 -0.0624 -1.3923 -0.2401
 6738TIP3   OH241704   1.726   6.651   5.110 -0.8522 -0.6630 -0.0227
 6738TIP3    H141705   1.747   6.710   5.182 -0.3014 -0.5580 -0.2622
 6738TIP3    H241706   1.703   6.709   5.037  2.3718 -0.5770 -1.1191
 6739TIP3   OH241707   6.248   2.509   0.666 -0.5314  0.0537  0.2150
 6739TIP3    H141708   6.295   2.575   0.717 -0.6928 -1.4757  2.4397
 6739TIP3    H241709   6.303   2.495   0.589 -0.9816  3.4512 -0.9382
 6740TIP3   OH241710   5.115   3.411  11.349  0.1594  0.0585 -0.2727
 6740TIP3    H141711   5.154   3.463  11.279  0.0400 -0.9596 -1.1178
 6740TIP3    H241712   5.185   3.404  11.415  0.8829 -0.4046 -1.0654
 6741TIP3   OH241713   0.904   5.441   2.628 -0.8865  0.5398 -0.5206
 6741TIP3    H141714   0.914   5.397   2.543 -0.8518 -0.1328 -0.1703
 6741TIP3    H241715   0.848   5.516   2.609 -2.5841 -0.7384 -0.7697
 6742TIP3   OH241716   0.079   2.767  11.964 -0.2163  0.0842  0.2207
 6742TIP3    H141717   0.137   2.841  11.982 -0.4649  0.6014 -0.9968
 6742TIP3    H241718   0.013   2.771  12.034  0.1731  0.5769  0.5681
 6743TIP3   OH241719   3.728   0.871   1.972 -0.2893  0.6510  0.2640
 6743TIP3    H141720   3.783   0.797   1.943  0.4582  1.1316  0.4301
 6743TIP3    H241721   3.691   0.905   1.891 -0.1986  0.4289  0.1266
 6744TIP3   OH241722   4.672   1.017   3.261 -0.1931  0.2947 -0.6474
 6744TIP3    H141723   4.699   0.954   3.195 -1.6011 -0.4961 -0.5022
 6744TIP3    H241724   4.754   1.043   3.304  0.5351 -0.5442 -1.4709
 6745TIP3   OH241725   2.352   0.094  14.044  0.4078  0.1174  0.2075
 6745TIP3    H141726   2.428   0.072  14.098  1.1971  0.7452 -0.6116
 6745TIP3    H241727   2.388   0.147  13.972 -1.0236  1.8030  0.6615
 6746TIP3   OH241728   3.818   0.605  13.366  0.7337 -0.2046  0.4494
 6746TIP3    H141729   3.814   0.673  13.434  1.2688 -0.5504  0.8361
 6746TIP3    H241730   3.812   0.653  13.284 -2.2102  0.0664  0.7284
 6747TIP3   OH241731   4.979   2.691   0.602 -0.6654  0.4831  0.1007
 6747TIP3    H141732   4.962   2.600   0.625  1.3542 -0.1015 -0.5181
 6747TIP3    H241733   4.943   2.742   0.674  1.9249 -1.0388  2.6883
 6748TIP3   OH241734   4.787   0.985   5.993 -0.0347  0.9184 -0.0895
 6748TIP3    H141735   4.746   0.980   6.079  0.1758 -0.2759 -0.0409
 6748TIP3    H241736   4.724   0.945   5.933  0.9388 -0.7712 -0.0402
 6749TIP3   OH241737   1.540   5.542   5.098  0.6282 -0.3355 -0.2291
 6749TIP3    H141738   1.470   5.525   5.161  1.0610  0.8650  0.5974
 6749TIP3    H241739   1.621   5.518   5.144  0.8489 -0.8994 -0.8797
 6750TIP3   OH241740   4.666   1.157  16.756  0.2497  0.6554 -0.7323
 6750TIP3    H141741   4.599   1.181  16.691  0.1422 -0.3276 -0.9943
 6750TIP3    H241742   4.681   1.064  16.742  0.6973  0.5726  0.2403
 6751TIP3   OH241743   0.854   4.042   2.059 -0.2646  0.1563 -0.2985
 6751TIP3    H141744   0.761   4.038   2.033 -0.4657  0.5184  0.3445
 6751TIP3    H241745   0.901   4.001   1.986 -1.1602 -2.9360  0.6973
 6752TIP3   OH241746   0.677   0.510  13.527  0.5375  0.1456  1.0079
 6752TIP3    H141747   0.750   0.455  13.499  0.9363 -0.0851  2.4241
 6752TIP3    H241748   0.599   0.456  13.509  0.9407 -1.0997  2.7091
 6753TIP3   OH241749   2.874   2.882  15.025 -0.3425  0.0351 -0.5254
 6753TIP3    H141750   2.906   2.801  14.984  1.6561 -0.3072  1.4901
 6753TIP3    H241751   2.943   2.946  15.007  0.4647 -0.0528  1.8840
 6754TIP3   OH241752   1.427   2.259  15.146  0.3983 -0.5420  0.7592
 6754TIP3    H141753   1.508   2.293  15.107 -1.0829  2.0251 -0.2924
 6754TIP3    H241754   1.440   2.269  15.240  1.6844 -1.1290  0.6671
 6755TIP3   OH241755   4.455   5.648   1.737  0.1007 -0.0016  0.0029
 6755TIP3    H141756   4.516   5.710   1.777  0.0398 -0.4452  0.8066
 6755TIP3    H241757   4.404   5.613   1.811  0.3294 -1.2163 -0.3852
 6756TIP3   OH241758   6.591   1.511   2.249 -0.2285  0.2931 -0.2145
 6756TIP3    H141759   6.505   1.471   2.260  0.2415 -0.1983  2.2856
 6756TIP3    H241760   6.572   1.601   2.222 -1.7123  0.9982  2.7758
 6757TIP3   OH241761   4.612   2.291   1.768  0.5207  0.0351  0.1348
 6757TIP3    H141762   4.617   2.212   1.715  0.9314 -0.0128  0.2453
 6757TIP3    H241763   4.639   2.361   1.708 -1.1347  0.2875 -0.3661
 6758TIP3   OH241764   0.217   5.666   5.662 -0.5774  0.5281  0.1348
 6758TIP3    H141765   0.204   5.571   5.667 -0.1033  0.2827 -2.0213
 6758TIP3    H241766   0.171   5.701   5.738 -2.2941 -1.2867  0.0196
 6759TIP3   OH241767   6.153   0.348   2.660  0.3779  0.1333  0.0971
 6759TIP3    H141768   6.212   0.418   2.631 -0.4195  0.8896  0.2565
 6759TIP3    H241769   6.208   0.290   2.711  0.5645  2.0777  2.2703
 6760TIP3   OH241770   1.748   2.909  11.803  0.4813 -0.5517 -0.0946
 6760TIP3    H141771   1.758   3.003  11.819  0.5273 -0.7275  0.9666
 6760TIP3    H241772   1.668   2.884  11.848  1.3222 -1.3213  1.0335
 6761TIP3   OH241773   3.759   6.165   2.169 -0.1641  0.3807 -0.7604
 6761TIP3    H141774   3.801   6.216   2.239 -0.0930  0.4721 -0.8710
 6761TIP3    H241775   3.830   6.111   2.134 -0.7824 -2.1217  1.4083
 6762TIP3   OH241776   4.065   5.106   0.211  0.2820  0.1208  0.1231
 6762TIP3    H141777   4.148   5.150   0.190  0.3004 -0.7565 -1.7946
 6762TIP3    H241778   4.030   5.079   0.127 -1.3770 -0.6144  1.0087
 6763TIP3   OH241779   6.328   4.382  14.702 -0.2921 -0.1936  0.3602
 6763TIP3    H141780   6.392   4.315  14.681 -0.5138 -0.0453 -0.8640
 6763TIP3    H241781   6.252   4.334  14.734 -0.1600 -0.4753  0.2543
 6764TIP3   OH241782   4.009   5.467   5.474 -0.1056 -0.1633  0.2152
 6764TIP3    H141783   3.990   5.396   5.413  1.7768 -1.2862  0.8516
 6764TIP3    H241784   4.018   5.424   5.559 -0.4595  1.0640  0.8912
 6765TIP3   OH241785   5.934   1.879  16.410  0.1861  0.1168 -0.6533
 6765TIP3    H141786   6.020   1.920  16.401 -0.3612  1.2560 -0.8483
 6765TIP3    H241787   5.885   1.910  16.334 -1.2596  1.6761  0.8374
 6766TIP3   OH241788   1.700   0.231  16.744 -0.2011  0.2248 -0.2052
 6766TIP3    H141789   1.725   0.249  16.653 -1.5046 -1.7429 -1.0297
 6766TIP3    H241790   1.605   0.235  16.743 -0.2087  0.8304  1.2654
 6767TIP3   OH241791   0.782   1.602  11.597  0.4518  0.1557  0.2852
 6767TIP3    H141792   0.795   1.576  11.688  0.5956 -1.4340 -0.1644
 6767TIP3    H241793   0.696   1.565  11.574  0.8040 -0.2133 -0.4701
 6768TIP3   OH241794   1.478   6.469   5.411  0.6471  0.6800 -0.3331
 6768TIP3    H141795   1.497   6.471   5.505  0.5220  1.7105 -0.3186
 6768TIP3    H241796   1.476   6.561   5.385  2.8211  0.3845 -1.7971
 6769TIP3   OH241797   5.621   2.603   1.470 -0.2751 -0.2159 -0.1216
 6769TIP3    H141798   5.591   2.522   1.430 -0.7878  0.2958 -0.7963
 6769TIP3    H241799   5.546   2.633   1.522 -1.3062  1.4546 -2.4046
 6770TIP3   OH241800   5.019   4.465  10.826 -0.1808  0.8773  0.3636
 6770TIP3    H141801   5.024   4.472  10.921 -0.2036  1.7945  0.3031
 6770TIP3    H241802   4.945   4.521  10.801 -0.3326  0.4478 -0.1738
 6771TIP3   OH241803   4.152   1.690  17.153  0.5825  0.3693 -0.0734
 6771TIP3    H141804   4.127   1.629  17.083 -2.0628  0.3848  0.7707
 6771TIP3    H241805   4.087   1.759  17.149  0.3202  0.3563  2.4334
 6772TIP3   OH241806   5.271   1.145  15.738  0.1795 -0.4827  0.5516
 6772TIP3    H141807   5.175   1.144  15.742  0.0900 -1.2612 -0.9695
 6772TIP3    H241808   5.296   1.226  15.783 -1.5045  2.5517 -3.3728
 6773TIP3   OH241809   3.691   2.292  12.435 -0.4068  0.3090  0.1198
 6773TIP3    H141810   3.743   2.257  12.507 -3.1263 -2.6587  0.8908
 6773TIP3    H241811   3.755   2.332  12.376  2.8133 -3.2581  0.7943
 6774TIP3   OH241812   3.787   5.670  14.261  0.1041  0.0296 -0.3284
 6774TIP3    H141813   3.794   5.605  14.191  1.0955 -0.1466 -0.0811
 6774TIP3    H241814   3.878   5.690  14.284 -0.1299  2.3333 -1.1554
 6775TIP3   OH241815   1.370   1.420  14.239 -0.7381  0.0248  0.1578
 6775TIP3    H141816   1.288   1.406  14.288 -0.5724  0.3626  0.5344
 6775TIP3    H241817   1.385   1.514  14.245  0.3768 -0.1964  1.2219
 6776TIP3   OH241818   6.051   3.430  15.881 -0.3055  0.0713  0.1001
 6776TIP3    H141819   6.103   3.510  15.885 -0.4992  0.2020  0.0471
 6776TIP3    H241820   5.961   3.460  15.895 -0.3169 -0.2091  0.6483
 6777TIP3   OH241821   3.374   2.077   1.028  0.1316  0.0667 -0.1099
 6777TIP3    H141822   3.451   2.037   0.986  1.1547  0.6813  1.0940
 6777TIP3    H241823   3.395   2.171   1.032 -2.2673  0.8747 -2.9923
 6778TIP3   OH241824   2.833   5.842  12.295  0.2898 -0.7461  0.0713
 6778TIP3    H141825   2.818   5.873  12.205  0.4079  1.0849  0.6332
 6778TIP3    H241826   2.767   5.774  12.308  2.0143 -3.1058 -2.2862
 6779TIP3   OH241827   6.716   3.663   4.318 -0.1899 -0.4075 -0.0371
 6779TIP3    H141828   6.717   3.592   4.254 -0.1123 -1.7050  1.3188
 6779TIP3    H241829   6.807   3.693   4.322 -0.3726  0.3312 -1.1923
 6780TIP3   OH241830   0.110   6.099  14.895  0.6239  0.3528  0.0691
 6780TIP3    H141831   0.087   6.174  14.840  0.6524  1.0706  1.0170
 6780TIP3    H241832   0.206   6.096  14.893  0.6060 -1.0541 -1.7698
 6781TIP3   OH241833   5.941   3.735  16.917 -0.3927 -0.0488  0.0160
 6781TIP3    H141834   5.893   3.799  16.864 -0.0690 -0.7100 -1.1167
 6781TIP3    H241835   5.904   3.744  17.005 -1.1488  0.8852 -0.3764
 6782TIP3   OH241836   6.231   0.699  13.552  0.4065 -0.2810 -0.5761
 6782TIP3    H141837   6.261   0.615  13.586  1.9833  0.4798  0.0346
 6782TIP3    H241838   6.210   0.750  13.630  1.0792  0.4313 -0.8405
 6783TIP3   OH241839   5.066   5.360   4.308 -0.8892 -0.1681 -0.4950
 6783TIP3    H141840   5.025   5.419   4.245  0.2620  1.3831  0.1723
 6783TIP3    H241841   5.041   5.395   4.394 -0.0255 -0.5246 -0.0876
 6784TIP3   OH241842   4.912   3.324   4.124  0.5801 -0.4582  0.2383
 6784TIP3    H141843   4.880   3.237   4.101 -0.6935  0.1416 -0.3615
 6784TIP3    H241844   4.997   3.308   4.165  1.5589 -1.8291 -2.0876
 6785TIP3   OH241845   0.287   2.483  17.287 -0.6389 -0.2307 -0.0098
 6785TIP3    H141846   0.369   2.434  17.300  0.6213  1.2156 -1.8657
 6785TIP3    H241847   0.311   2.574  17.301 -2.8158  0.0460  2.8533
 6786TIP3   OH241848   0.323   2.476  11.183 -0.4772  0.0309  0.2060
 6786TIP3    H141849   0.332   2.538  11.111 -0.4072 -1.2346 -0.8881
 6786TIP3    H241850   0.230   2.481  11.208 -0.5946  0.1367 -0.2557
 6787TIP3   OH241851   5.544   2.901  12.676 -0.7654 -0.1657 -0.1514
 6787TIP3    H141852   5.544   2.849  12.596 -0.3714 -0.6764  0.1726
 6787TIP3    H241853   5.637   2.906  12.700 -0.7785  0.8807 -0.3007
 6788TIP3   OH241854   2.750   1.628  14.825 -0.1504  0.1353  0.3859
 6788TIP3    H141855   2.846   1.635  14.823 -0.1740  1.0985  1.2157
 6788TIP3    H241856   2.733   1.544  14.868  0.3300  0.2102  0.7359
 6789TIP3   OH241857   3.917   2.114  14.980 -0.0034  0.2150  0.9297
 6789TIP3    H141858   3.825   2.133  14.961 -0.1688  0.2120  1.7103
 6789TIP3    H241859   3.965   2.190  14.948 -0.2452  0.0908  0.2565
 6790TIP3   OH241860   5.659   4.760  13.374 -0.2596  0.0636 -0.1224
 6790TIP3    H141861   5.604   4.822  13.423  0.4303  0.8378 -0.3059
 6790TIP3    H241862   5.748   4.789  13.390  0.0363 -0.3897 -0.8745
 6791TIP3   OH241863   1.807   0.040  12.959  0.8484  0.5196  0.2563
 6791TIP3    H141864   1.901   0.059  12.967  0.7721  1.2097 -0.4145
 6791TIP3    H241865   1.794  -0.036  13.016  2.0128 -0.2493 -0.4422
 6792TIP3   OH241866   5.380   1.656   3.208  0.1339  0.3298 -0.0055
 6792TIP3    H141867   5.436   1.696   3.274  1.6688 -0.2524 -0.8914
 6792TIP3    H241868   5.407   1.696   3.126  0.4236 -1.1346 -0.6686
 6793TIP3   OH241869   1.081   5.479  12.371  0.3366  0.7740  0.3817
 6793TIP3    H141870   1.137   5.404  12.388 -0.5085  0.2376  0.8387
 6793TIP3    H241871   1.039   5.459  12.287  0.3765  0.9081  0.3294
 6794TIP3   OH241872   0.026   5.953   0.517  0.0392 -0.4058 -0.8598
 6794TIP3    H141873   0.020   5.871   0.469  2.5489  0.3087 -2.5409
 6794TIP3    H241874   0.081   5.933   0.593 -0.4328 -0.5443 -0.5460
 6795TIP3   OH241875   0.018   3.453   1.714 -0.1968 -0.0690 -0.0608
 6795TIP3    H141876  -0.039   3.405   1.654 -0.4332 -0.6956  0.6367
 6795TIP3    H241877   0.013   3.403   1.796 -0.6977  1.3359  0.7962
 6796TIP3   OH241878   6.737   6.609   0.768 -0.1369 -0.3526  0.4224
 6796TIP3    H141879   6.778   6.686   0.730  0.3022 -1.5720 -1.7126
 6796TIP3    H241880   6.803   6.575   0.829 -0.3550  0.9124  1.4179
 6797TIP3   OH241881   3.580   4.751  16.673 -0.0237 -0.1688  0.7796
 6797TIP3    H141882   3.487   4.731  16.677 -0.4682  1.8492  1.2117
 6797TIP3    H241883   3.585   4.838  16.635  1.6233  0.1654  1.6773
 6798TIP3   OH241884   6.609   5.585   2.732 -0.4199  0.3509 -0.3743
 6798TIP3    H141885   6.523   5.575   2.692 -0.2743 -0.0852 -0.5828
 6798TIP3    H241886   6.632   5.497   2.762 -1.1367  0.8807  1.9468
 6799TIP3   OH241887   5.738   6.205  14.592 -0.7563  0.4923  0.4271
 6799TIP3    H141888   5.748   6.145  14.518  2.3129  0.6617  0.5528
 6799TIP3    H241889   5.788   6.283  14.566  2.4452 -0.3301  3.4439
 6800TIP3   OH241890   5.305   4.753  14.142  0.1299 -0.0847  0.0848
 6800TIP3    H141891   5.378   4.730  14.199 -0.1189  1.1680  0.9401
 6800TIP3    H241892   5.271   4.835  14.178 -0.6186  0.2538 -1.3179
 6801TIP3   OH241893   2.495   5.535  14.266 -0.1625  0.3057 -0.4637
 6801TIP3    H141894   2.524   5.443  14.265  0.5905  0.5148 -2.2972
 6801TIP3    H241895   2.560   5.580  14.212 -0.3779  1.9866  0.6255
 6802TIP3   OH241896   0.593   3.294  14.880 -0.6482 -0.1415  0.0527
 6802TIP3    H141897   0.536   3.319  14.952 -1.0092 -1.6307  0.3350
 6802TIP3    H241898   0.538   3.302  14.802 -0.3949  1.0295 -0.0248
 6803TIP3   OH241899   4.857   3.561   5.112 -0.0059 -0.1231  0.4390
 6803TIP3    H141900   4.944   3.595   5.132  0.1512 -0.6805  0.7173
 6803TIP3    H241901   4.870   3.467   5.100 -0.7239 -0.3599  1.4298
 6804TIP3   OH241902   3.976   5.729  12.737  0.1349  0.4087  0.0250
 6804TIP3    H141903   3.909   5.798  12.734 -0.9045 -0.5152  1.0144
 6804TIP3    H241904   4.018   5.733  12.651  0.7140  2.8371  0.3478
 6805TIP3   OH241905   5.967   1.371   0.210 -0.1273  0.1586  0.6011
 6805TIP3    H141906   6.031   1.300   0.202 -0.1182  0.2006  0.2765
 6805TIP3    H241907   6.020   1.449   0.227 -0.1109  0.1487  0.5956
 6806TIP3   OH241908   3.227   1.332  10.989 -0.9644 -0.4546 -0.4784
 6806TIP3    H141909   3.180   1.414  10.999 -0.4556 -0.3224  1.0499
 6806TIP3    H241910   3.224   1.314  10.895 -0.8731  1.4210 -0.8789
 6807TIP3   OH241911   5.895   1.155  15.863 -0.0819  0.3492 -0.0119
 6807TIP3    H141912   5.872   1.242  15.895 -0.9733 -0.1978  0.8974
 6807TIP3    H241913   5.985   1.142  15.892 -0.1294  0.7547  0.3318
 6808TIP3   OH241914   0.051   4.738   5.132  0.3079  0.1765  0.0654
 6808TIP3    H141915   0.075   4.704   5.046 -0.4137 -0.0374 -0.0627
 6808TIP3    H241916   0.073   4.667   5.193  1.3030  0.5291  0.1269
 6809TIP3   OH241917   1.016   1.858   3.596  0.1802  0.4749  0.3453
 6809TIP3    H141918   1.106   1.835   3.620 -0.6826 -0.5367  3.0237
 6809TIP3    H241919   0.968   1.775   3.602 -1.3833  1.4096  1.5215
 6810TIP3   OH241920   1.349   2.610   3.383  0.2234 -0.4991  0.2515
 6810TIP3    H141921   1.409   2.676   3.349 -1.2663  1.2006  0.7915
 6810TIP3    H241922   1.369   2.531   3.332 -0.1261  1.2069 -2.7323
 6811TIP3   OH241923   4.614   0.042   3.732  0.4662  0.2526 -0.1814
 6811TIP3    H141924   4.577   0.090   3.806 -1.7377 -0.9229 -0.4243
 6811TIP3    H241925   4.556   0.065   3.658  0.7307 -1.0085 -0.7982
 6812TIP3   OH241926   0.505   4.893  13.708 -0.0920 -0.1522  0.7021
 6812TIP3    H141927   0.420   4.933  13.727  0.2176  1.0112 -0.1940
 6812TIP3    H241928   0.489   4.799  13.713 -1.5238  0.0271  0.2118
 6813TIP3   OH241929   0.949   2.297  16.769 -0.6096  0.1745 -0.5217
 6813TIP3    H141930   1.001   2.233  16.819 -0.7112 -0.1130 -0.7788
 6813TIP3    H241931   1.007   2.325  16.698 -0.5275  0.4496 -0.3465
 6814TIP3   OH241932   4.503   1.425  12.249  0.5056 -0.1813 -0.2219
 6814TIP3    H141933   4.540   1.339  12.232 -0.7655 -0.7333 -0.2730
 6814TIP3    H241934   4.576   1.475  12.286  1.3211 -1.1950 -0.4140
 6815TIP3   OH241935   5.550   3.598   3.644 -0.2597 -0.4105  0.0444
 6815TIP3    H141936   5.544   3.547   3.725 -0.4924 -1.1750 -0.4457
 6815TIP3    H241937   5.465   3.586   3.602 -0.2460  0.2290 -0.1714
 6816TIP3   OH241938   1.480   2.898  13.479  0.0371 -0.1718 -0.5633
 6816TIP3    H141939   1.473   2.826  13.416  0.7491 -0.8215  0.0800
 6816TIP3    H241940   1.500   2.975  13.425  0.6429 -0.7171 -1.1358
 6817TIP3   OH241941   2.760   3.654   3.943 -0.5270  0.2557  0.0151
 6817TIP3    H141942   2.686   3.621   3.993  0.0077 -0.8733  0.0796
 6817TIP3    H241943   2.752   3.612   3.857 -1.1105  1.7257 -0.6885
 6818TIP3   OH241944   3.630   2.278  11.165 -0.1205  0.1824  0.1199
 6818TIP3    H141945   3.569   2.333  11.116 -0.5390  1.3847  1.9090
 6818TIP3    H241946   3.692   2.339  11.203  1.2871 -0.8918 -0.3752
 6819TIP3   OH241947   0.794   5.145   4.868 -0.1418  0.5982  0.1872
 6819TIP3    H141948   0.719   5.153   4.809  0.8148 -0.5528 -1.2612
 6819TIP3    H241949   0.852   5.217   4.842  0.5624 -0.2805 -0.7586
 6820TIP3   OH241950   3.372   6.099  11.666  0.0889  0.7359  0.5710
 6820TIP3    H141951   3.300   6.056  11.620 -1.1710  2.9923  0.3145
 6820TIP3    H241952   3.451   6.064  11.624 -0.8971 -0.5532 -0.2828
 6821TIP3   OH241953   0.278   1.602  14.864 -0.5436  0.0424 -0.3597
 6821TIP3    H141954   0.225   1.659  14.920 -1.7250 -1.2016 -0.1527
 6821TIP3    H241955   0.353   1.578  14.920 -1.7543 -1.2570  0.7933
 6822TIP3   OH241956   1.695   1.259  13.326 -0.4664 -0.1418 -0.5692
 6822TIP3    H141957   1.758   1.262  13.254 -0.7784  1.3933 -0.7998
 6822TIP3    H241958   1.652   1.174  13.316  2.3953 -1.8254  0.3518
 6823TIP3   OH241959   3.894   6.510  17.210 -0.0790  0.1546  0.3465
 6823TIP3    H141960   3.863   6.444  17.272  1.3143 -1.5710 -0.6894
 6823TIP3    H241961   3.815   6.545  17.170 -0.8479 -1.6057  0.2344
 6824TIP3   OH241962   2.074   1.725  15.577 -0.4446  0.2091 -0.2402
 6824TIP3    H141963   1.991   1.703  15.619  0.1194  0.2949  0.9520
 6824TIP3    H241964   2.124   1.643  15.580 -1.5501 -0.7795 -3.7324
 6825TIP3   OH241965   0.415   6.390   0.480  0.9649  0.1624  0.6865
 6825TIP3    H141966   0.335   6.424   0.440  0.3397 -1.0999  0.8304
 6825TIP3    H241967   0.485   6.439   0.438  0.2168  0.1617 -0.6261
 6826TIP3   OH241968   5.579   3.785  14.862  0.1101  0.5094  0.1634
 6826TIP3    H141969   5.645   3.745  14.919  0.7341  0.0495 -0.8688
 6826TIP3    H241970   5.628   3.812  14.784 -0.4172  2.5943  0.4746
 6827TIP3   OH241971   2.515   6.009   5.887 -0.2451 -0.1112  0.4765
 6827TIP3    H141972   2.574   5.978   5.955  0.8157  0.9085  0.0581
 6827TIP3    H241973   2.571   6.059   5.827 -1.5698  1.1682  0.2341
 6828TIP3   OH241974   1.819   1.917  15.276  0.0496 -0.1526  0.3259
 6828TIP3    H141975   1.727   1.896  15.288  0.0235  0.7076  1.8948
 6828TIP3    H241976   1.843   1.967  15.354  2.4479 -2.3128  1.1363
 6829TIP3   OH241977   5.181   0.649  16.986  0.3244 -0.2450 -0.0572
 6829TIP3    H141978   5.142   0.711  17.047  0.6009  1.5403 -1.5994
 6829TIP3    H241979   5.188   0.567  17.035 -1.3303  0.5547  1.6148
 6830TIP3   OH241980   4.305   2.876  16.851 -0.4540  0.7157 -0.2077
 6830TIP3    H141981   4.278   2.967  16.845 -0.3452  0.7237 -0.6024
 6830TIP3    H241982   4.381   2.877  16.909  0.3270  1.0502 -1.2128
 6831TIP3   OH241983   5.808   0.801  12.125  0.2860  0.1298 -0.1147
 6831TIP3    H141984   5.718   0.769  12.133  0.4307 -0.6508 -1.2782
 6831TIP3    H241985   5.815   0.828  12.034  1.9643 -2.2914 -0.8062
 6832TIP3   OH241986   4.701   1.562  14.536  0.2882  0.2272  0.6687
 6832TIP3    H141987   4.696   1.481  14.487  1.3712  0.8018 -0.4462
 6832TIP3    H241988   4.782   1.555  14.588 -1.3396 -0.8054  3.2655
 6833TIP3   OH241989   2.073   5.430  15.370 -0.2846 -0.1991 -0.6010
 6833TIP3    H141990   1.996   5.434  15.427 -1.0037 -3.0755 -1.1929
 6833TIP3    H241991   2.148   5.427  15.430 -0.8728 -0.7723  0.1180
 6834TIP3   OH241992   5.769   5.965   1.066 -0.4444 -0.4255  0.2557
 6834TIP3    H141993   5.827   5.889   1.073 -1.5688 -1.2346  1.3259
 6834TIP3    H241994   5.721   5.966   1.148 -0.1141  1.7880  0.4753
 6835TIP3   OH241995   4.534   3.227   6.512 -0.6749  0.4937 -0.0027
 6835TIP3    H141996   4.545   3.167   6.586 -1.8355  0.8775  0.5052
 6835TIP3    H241997   4.540   3.314   6.551 -0.0602  0.7142 -0.5694
 6836TIP3   OH241998   4.802   0.284  13.807  0.2429  0.1575  0.4508
 6836TIP3    H141999   4.730   0.339  13.838  0.1232  0.7580 -0.8068
 6836TIP3    H242000   4.841   0.334  13.735  0.2535 -1.2997 -0.6175
 6837TIP3   OH242001   2.421   0.214  12.251  0.0223 -0.9014  0.5105
 6837TIP3    H142002   2.352   0.164  12.293 -1.5137  0.2310 -0.5381
 6837TIP3    H242003   2.426   0.180  12.162 -2.0035  1.5442 -0.6650
 6838TIP3   OH242004   3.495   1.530   0.890 -0.3132 -0.0104  0.0587
 6838TIP3    H142005   3.406   1.560   0.906  0.2283  2.2257 -0.7092
 6838TIP3    H242006   3.533   1.520   0.977 -1.0479 -0.1010  0.3770
 6839TIP3   OH242007   0.353   2.981   2.297  0.3088 -0.0906  0.4821
 6839TIP3    H142008   0.385   2.990   2.208  0.4303 -0.1300  0.5216
 6839TIP3    H242009   0.265   2.944   2.287  0.0288  0.6095  0.3495
 6840TIP3   OH242010   5.390   5.407  16.563  0.3382  0.1111 -0.1058
 6840TIP3    H142011   5.473   5.395  16.516 -0.9577  1.6616 -3.0750
 6840TIP3    H242012   5.411   5.472  16.630  1.5317  0.5301 -0.8439
 6841TIP3   OH242013   1.054   0.629   5.972  0.1498 -0.5922 -0.8767
 6841TIP3    H142014   1.100   0.709   5.948 -0.7303  0.0614 -0.4281
 6841TIP3    H242015   1.093   0.602   6.055 -1.1433  0.7161  0.2118
 6842TIP3   OH242016   1.932   4.500  12.719  0.0338  0.0592 -0.1140
 6842TIP3    H142017   1.880   4.533  12.647 -1.0547  0.1858  0.7110
 6842TIP3    H242018   1.963   4.414  12.689 -2.0169 -0.7702 -0.0172
 6843TIP3   OH242019   4.715   6.574  11.313 -0.0068 -0.3019 -0.2127
 6843TIP3    H142020   4.690   6.486  11.339  1.2243 -0.4489  0.5561
 6843TIP3    H242021   4.723   6.622  11.395 -1.7715  0.8723 -0.6758
 6844TIP3   OH242022   3.562   5.133  17.174  0.1311 -0.4169  0.2083
 6844TIP3    H142023   3.499   5.205  17.184 -1.2236 -1.4774 -0.3996
 6844TIP3    H242024   3.513   5.065  17.128  2.3528 -0.4610 -2.3400
 6845TIP3   OH242025   0.995   6.633   0.740  0.5085  0.2116  0.1237
 6845TIP3    H142026   0.950   6.665   0.662  0.2924  0.9666  0.5379
 6845TIP3    H242027   1.028   6.713   0.782  0.2476 -0.1387  1.0225
 6846TIP3   OH242028   5.967   2.174   5.314 -0.0167 -0.2250  0.2610
 6846TIP3    H142029   5.968   2.251   5.258  1.1035  0.1663  0.7987
 6846TIP3    H242030   5.880   2.176   5.355 -0.0125  0.7316  0.2475
 6847TIP3   OH242031   2.318   1.563  13.919  0.5778  0.2663  0.0501
 6847TIP3    H142032   2.234   1.529  13.890  0.4818 -0.3147  0.9968
 6847TIP3    H242033   2.308   1.579  14.013  1.4644  0.3633  0.1445
 6848TIP3   OH242034   5.050   0.078  13.551  0.0907  0.1155  0.4865
 6848TIP3    H142035   5.140   0.051  13.537  0.1808  1.2375 -1.4003
 6848TIP3    H242036   4.998   0.018  13.497  0.0536  1.6667 -1.3050
 6849TIP3   OH242037   4.168   0.162   4.925 -0.1366  0.1178 -0.3267
 6849TIP3    H142038   4.089   0.216   4.926  0.2615  0.7598 -1.3041
 6849TIP3    H242039   4.239   0.224   4.913  0.7505 -0.2476  2.4115
 6850TIP3   OH242040   5.552   3.227  15.447 -0.0731  0.3194  0.1699
 6850TIP3    H142041   5.629   3.282  15.439 -0.3804  0.9097  1.1403
 6850TIP3    H242042   5.531   3.227  15.540  1.0974 -3.0908  0.5649
 6851TIP3   OH242043   0.686   2.188   0.894  0.4518 -0.0626  0.6285
 6851TIP3    H142044   0.690   2.219   0.804 -1.2830 -0.5547  0.3539
 6851TIP3    H242045   0.682   2.268   0.947 -0.7449  0.2243  0.1257
 6852TIP3   OH242046   2.975   6.664   6.470  0.5585  0.2152  0.3187
 6852TIP3    H142047   2.999   6.591   6.412  1.5979 -0.2609  1.3170
 6852TIP3    H242048   2.919   6.624   6.536  1.2697  0.2620  0.9674
 6853TIP3   OH242049   1.920   3.639   2.673  0.8538 -0.1487  0.3412
 6853TIP3    H142050   1.951   3.603   2.590  1.6769 -2.9049  1.7303
 6853TIP3    H242051   1.833   3.675   2.653  0.8136 -1.1979 -1.5806
 6854TIP3   OH242052   2.268   4.607  16.566  0.2787 -0.0792  0.6111
 6854TIP3    H142053   2.178   4.575  16.567 -0.0275  0.7440  0.6155
 6854TIP3    H242054   2.278   4.650  16.652  0.2590  0.9105  0.1340
 6855TIP3   OH242055   6.665   6.400   4.339  0.7817  0.1754 -0.7010
 6855TIP3    H142056   6.618   6.352   4.270  0.7741  1.5865 -1.7163
 6855TIP3    H242057   6.613   6.479   4.353  2.1000  1.1030 -0.8536
 6856TIP3   OH242058   1.211   4.187  14.858 -0.8457 -0.1480 -0.3240
 6856TIP3    H142059   1.158   4.267  14.852  0.7693  1.3644  3.0714
 6856TIP3    H242060   1.198   4.157  14.948  2.8875 -0.4903  0.2248
 6857TIP3   OH242061   5.551   3.144  13.824  0.2253  0.2530 -0.2009
 6857TIP3    H142062   5.511   3.223  13.787  0.1712  0.4615  0.3033
 6857TIP3    H242063   5.488   3.074  13.806 -0.0352  0.4487 -0.0420
 6858TIP3   OH242064   4.484   4.561   2.694 -0.2586 -0.1879  0.1571
 6858TIP3    H142065   4.567   4.560   2.741  1.7445  0.1612 -3.0878
 6858TIP3    H242066   4.454   4.652   2.700  2.1435  0.9255 -2.5117
 6859TIP3   OH242067   6.222   5.542   1.692 -0.6460  0.7774  0.7537
 6859TIP3    H142068   6.271   5.499   1.762  1.0277  0.6674 -0.4150
 6859TIP3    H242069   6.159   5.476   1.663  0.4952 -0.1716  0.3612
 6860TIP3   OH242070   1.151   0.915   1.370  0.0392  0.3271 -0.3271
 6860TIP3    H142071   1.128   0.848   1.434 -1.5199  1.2041  0.0998
 6860TIP3    H242072   1.222   0.877   1.319  0.1125 -1.0927  0.7791
 6861TIP3   OH242073   1.847   4.428  13.794 -0.4391 -0.3133  0.1157
 6861TIP3    H142074   1.770   4.466  13.837 -0.2505  0.1345  0.0677
 6861TIP3    H242075   1.837   4.334  13.805 -0.5728 -0.2192  0.8437
 6862TIP3   OH242076   6.771   0.197  12.588  0.4404 -0.3216 -0.4901
 6862TIP3    H142077   6.787   0.121  12.532  1.5777  0.5353 -1.3751
 6862TIP3    H242078   6.856   0.239  12.596  0.5365 -0.9490  2.7569
 6863TIP3   OH242079   5.620   0.405   6.242 -0.4075 -0.3143 -0.2791
 6863TIP3    H142080   5.689   0.470   6.226 -0.7084  0.0109 -0.2546
 6863TIP3    H242081   5.668   0.325   6.263 -0.0412  0.2955  1.2920
 6864TIP3   OH242082   1.721   5.736   4.202 -0.1873 -0.2178  0.5600
 6864TIP3    H142083   1.689   5.698   4.121  0.7574  0.8944 -0.3786
 6864TIP3    H242084   1.781   5.671   4.238  0.3392 -0.2066 -0.2830
 6865TIP3   OH242085   6.434   6.628  10.917 -0.5182 -0.0051 -0.5234
 6865TIP3    H142086   6.419   6.604  10.826 -0.1707 -0.7701 -0.3864
 6865TIP3    H242087   6.431   6.545  10.965  2.4516 -0.0797 -0.2756
 6866TIP3   OH242088   5.381   2.885  13.431 -0.1947 -0.0515  0.1524
 6866TIP3    H142089   5.410   2.975  13.446  1.5390 -0.4653 -0.4447
 6866TIP3    H242090   5.295   2.880  13.472 -0.3118  1.8665  0.2179
 6867TIP3   OH242091   6.069   5.837  11.765  0.1416 -0.1981  0.1472
 6867TIP3    H142092   6.120   5.775  11.713  0.0600 -1.2787  1.3031
 6867TIP3    H242093   6.102   5.825  11.854 -0.5924  0.6975  0.5436
 6868TIP3   OH242094   4.439   0.534  17.249  0.2432 -0.2572  0.4725
 6868TIP3    H142095   4.491   0.513  17.171  0.3150  0.0461  0.4374
 6868TIP3    H242096   4.397   0.617  17.228  0.4693 -0.0441  0.8585
 6869TIP3   OH242097   3.298   0.700  12.410 -0.1997  0.5422  0.0581
 6869TIP3    H142098   3.325   0.665  12.495  0.0574 -0.9707 -0.6231
 6869TIP3    H242099   3.349   0.781  12.401  0.7305  0.0597  0.7748
 6870TIP3   OH242100   6.733   4.551  13.546 -0.4111  0.5863 -0.3557
 6870TIP3    H142101   6.777   4.634  13.524  0.6641  0.6624  1.7753
 6870TIP3    H242102   6.805   4.488  13.555 -0.9144  0.1999  1.1538
 6871TIP3   OH242103   1.133   0.316   3.153 -0.0007  0.8477  0.1405
 6871TIP3    H142104   1.138   0.370   3.232  0.4093 -2.2679  2.4874
 6871TIP3    H242105   1.208   0.257   3.161  0.4532  0.8599 -3.0300
 6872TIP3   OH242106   1.843   5.929   5.915 -0.2168  0.1959 -0.0018
 6872TIP3    H142107   1.811   5.922   5.825 -0.6854  0.6043  0.1302
 6872TIP3    H242108   1.792   6.000   5.953  0.5498  0.5696  0.3469
 6873TIP3   OH242109   4.986   6.211   2.493  0.4129 -0.4113 -0.2850
 6873TIP3    H142110   4.906   6.264   2.487  0.5747 -0.1640 -0.2745
 6873TIP3    H242111   4.994   6.171   2.407  0.3653 -0.3090 -0.3381
 6874TIP3   OH242112   2.357   0.759   3.501 -0.7760  0.2326  0.0863
 6874TIP3    H142113   2.311   0.792   3.579 -2.0578 -0.2691 -0.4332
 6874TIP3    H242114   2.371   0.666   3.520  0.1246  0.4023  0.2768
 6875TIP3   OH242115   6.703   0.743   2.262  0.0624  0.0636 -0.2254
 6875TIP3    H142116   6.618   0.732   2.304 -0.0971  0.5185 -0.4278
 6875TIP3    H242117   6.757   0.786   2.328  0.6043 -1.5842  0.4666
 6876TIP3   OH242118   1.233   3.704  16.650  0.1541  0.8791  0.1976
 6876TIP3    H142119   1.206   3.753  16.728  1.0881 -0.5555  1.4950
 6876TIP3    H242120   1.273   3.624  16.685  1.7240  0.7407 -1.7269
 6877TIP3   OH242121   5.918   5.995  12.686 -0.1205  0.6749 -0.0586
 6877TIP3    H142122   5.864   6.054  12.737 -0.5455  0.4222 -0.2085
 6877TIP3    H242123   5.994   5.977  12.742  0.3095  1.8211 -0.2552
 6878TIP3   OH242124   0.888   4.317  14.587 -0.7382  0.0984  0.8053
 6878TIP3    H142125   0.841   4.235  14.606 -0.9523 -0.0488 -0.2448
 6878TIP3    H242126   0.871   4.332  14.494 -0.0852  0.9529  0.8157
 6879TIP3   OH242127   6.673   0.743  12.034  0.9816 -0.4812  0.0013
 6879TIP3    H142128   6.760   0.780  12.019  0.8281 -0.1062  0.0298
 6879TIP3    H242129   6.613   0.816  12.021  0.7062 -0.6188  0.4796
 6880TIP3   OH242130   0.570   0.353  17.112 -0.5458 -0.4624 -0.0207
 6880TIP3    H142131   0.497   0.291  17.117 -0.3992 -0.5770  0.8379
 6880TIP3    H242132   0.605   0.356  17.201 -1.6403  2.1946  0.4081
 6881TIP3   OH242133   1.062   1.335  11.331 -0.2300  0.2286  0.0590
 6881TIP3    H142134   0.976   1.375  11.342 -0.1040  0.2115  1.2112
 6881TIP3    H242135   1.073   1.280  11.408  1.1118  0.7854  0.2969
 6882TIP3   OH242136   1.490   3.386  12.185  0.2651  0.1405 -0.1934
 6882TIP3    H142137   1.547   3.408  12.112 -0.5103 -0.1064 -0.8832
 6882TIP3    H242138   1.466   3.471  12.222 -0.3678  0.3407 -1.0326
 6883TIP3   OH242139   3.701   5.619  16.362 -0.1571  0.0466 -0.1023
 6883TIP3    H142140   3.657   5.605  16.279  0.8745 -2.5749 -0.3076
 6883TIP3    H242141   3.653   5.564  16.424  1.5995 -1.4122  0.0529
 6884TIP3   OH242142   1.101   4.878  17.212  0.0296  0.0800  0.5831
 6884TIP3    H142143   1.048   4.817  17.160  0.1312 -0.3097  0.9297
 6884TIP3    H242144   1.168   4.910  17.151  1.2752 -1.7443  0.8932
 6885TIP3   OH242145   3.802   2.013  10.967  0.3660 -0.8735 -0.5397
 6885TIP3    H142146   3.716   2.032  10.929 -0.0197 -1.3323  0.0876
 6885TIP3    H242147   3.862   2.072  10.921 -0.4574  0.2765 -0.1807
 6886TIP3   OH242148   3.664   3.990   4.227  0.0723  0.5854 -0.4242
 6886TIP3    H142149   3.607   4.015   4.154 -0.0993 -0.5805 -0.7104
 6886TIP3    H242150   3.614   4.013   4.306 -1.1080 -0.9904 -0.6635
 6887TIP3   OH242151   2.286   5.040  12.251  0.2675  0.0338  0.0627
 6887TIP3    H142152   2.350   5.035  12.180  1.0423  0.5359  0.7046
 6887TIP3    H242153   2.224   5.107  12.222  0.8030  0.5232  0.0287
 6888TIP3   OH242154   6.300   3.108  11.911 -0.4094 -0.2192 -0.3594
 6888TIP3    H142155   6.348   3.133  11.832  0.5403  1.7259  0.7519
 6888TIP3    H242156   6.217   3.157  11.905 -1.5936 -2.2322 -1.4355
 6889TIP3   OH242157   1.865   6.686  15.141 -0.1249  0.0239  0.1815
 6889TIP3    H142158   1.791   6.746  15.141 -0.1822 -0.0058  1.8166
 6889TIP3    H242159   1.938   6.738  15.177  1.0165  0.4067 -2.4038
 6890TIP3   OH242160   0.393   0.628  11.443  0.2572 -0.5097 -0.4207
 6890TIP3    H142161   0.322   0.571  11.472  2.6280 -2.9522  1.1786
 6890TIP3    H242162   0.442   0.575  11.380  1.8791  0.1814  0.1982
 6891TIP3   OH242163   3.805   2.842   6.023 -0.2683  0.4115 -0.2312
 6891TIP3    H142164   3.883   2.808   6.067 -0.5587 -0.1113 -0.1095
 6891TIP3    H242165   3.737   2.840   6.091 -0.8095 -0.7190 -0.7723
 6892TIP3   OH242166   6.044   2.657   1.931  0.6623  0.1951  0.8307
 6892TIP3    H142167   6.050   2.573   1.885 -1.0175  1.2722 -1.5607
 6892TIP3    H242168   6.134   2.681   1.949  1.3864 -0.5936 -1.4203
 6893TIP3   OH242169   4.707   4.133   4.100 -0.2939 -0.0530  0.5830
 6893TIP3    H142170   4.617   4.103   4.092 -0.1491 -0.4568  0.4777
 6893TIP3    H242171   4.761   4.059   4.073  0.1661 -0.6781  2.9585
 6894TIP3   OH242172   6.320   3.420   4.948 -0.0397 -0.0386 -0.2227
 6894TIP3    H142173   6.352   3.429   5.038  1.4732  0.4050 -0.7708
 6894TIP3    H242174   6.395   3.444   4.894 -0.8181 -0.6539 -1.6156
 6895TIP3   OH242175   6.496   2.187   2.948  0.7109  0.4195  0.1576
 6895TIP3    H142176   6.428   2.180   2.881  0.1398  1.3973  0.6061
 6895TIP3    H242177   6.578   2.197   2.899  0.8366 -2.5420 -0.4294
 6896TIP3   OH242178   4.672   1.459  11.324 -0.3934  0.5432  0.0937
 6896TIP3    H142179   4.640   1.373  11.297  0.7148  0.7925 -2.2926
 6896TIP3    H242180   4.737   1.440  11.393  0.9620 -0.7168 -1.4494
 6897TIP3   OH242181   5.974   3.452   5.751 -0.2085  0.0166 -0.3293
 6897TIP3    H142182   5.930   3.367   5.740 -0.1172 -0.0090 -0.5045
 6897TIP3    H242183   5.987   3.484   5.662 -1.5465  0.8971 -0.2318
 6898TIP3   OH242184   1.576   0.766  13.857 -0.4094  0.0903  0.1610
 6898TIP3    H142185   1.636   0.703  13.817  0.5641  0.5720  0.8377
 6898TIP3    H242186   1.495   0.757  13.806  0.4970  0.0603 -1.3393
 6899TIP3   OH242187   3.692   3.387   3.343  0.1472  0.4383  0.7546
 6899TIP3    H142188   3.739   3.461   3.382  0.8219 -0.4424  1.6658
 6899TIP3    H242189   3.601   3.400   3.370  0.5398  0.0227  2.4630
 6900TIP3   OH242190   5.237   0.502   3.518 -0.0396  0.2086 -0.2348
 6900TIP3    H142191   5.150   0.535   3.540 -0.4081 -0.1374 -1.1049
 6900TIP3    H242192   5.226   0.460   3.432  0.8421 -0.4183 -0.0605
 6901TIP3   OH242193   0.605   2.642   0.427  0.5237  0.4045 -0.5547
 6901TIP3    H142194   0.553   2.602   0.357 -0.2875 -0.3858  0.4520
 6901TIP3    H242195   0.672   2.577   0.447 -0.0896  0.0124  0.3053
 6902TIP3   OH242196   5.293   0.380  11.730  0.0268  0.5443  0.6939
 6902TIP3    H142197   5.366   0.397  11.671 -0.2388  0.8849  0.4590
 6902TIP3    H242198   5.302   0.445  11.800  1.4498 -1.0586  2.0978
 6903TIP3   OH242199   1.902   2.573   0.870  0.1952  0.6089  0.1248
 6903TIP3    H142200   1.849   2.508   0.824  0.5807  0.1982  0.2595
 6903TIP3    H242201   1.849   2.653   0.867  0.4147  0.7162 -1.4091
 6904TIP3   OH242202   2.911   4.363  10.827 -0.2246 -0.4698  0.5973
 6904TIP3    H142203   2.979   4.311  10.870 -0.0349 -2.0753 -1.4590
 6904TIP3    H242204   2.956   4.405  10.754 -1.1602 -0.4491  0.0156
 6905TIP3   OH242205   1.871   5.122  14.933 -0.0680 -0.2815  0.0535
 6905TIP3    H142206   1.928   5.199  14.922 -0.1871 -0.2824 -0.6438
 6905TIP3    H242207   1.838   5.130  15.022  2.1249 -1.0512  1.0020
 6906TIP3   OH242208   5.357   5.913   0.123 -0.1019  0.1614  0.0630
 6906TIP3    H142209   5.336   5.911   0.216 -1.1403  1.8264 -0.0825
 6906TIP3    H242210   5.444   5.876   0.117 -0.2348 -0.4762  1.6296
 6907TIP3   OH242211   3.541   4.141   3.741 -0.0381 -0.4138 -0.2127
 6907TIP3    H142212   3.469   4.114   3.684 -0.6278  2.5883 -1.0680
 6907TIP3    H242213   3.504   4.212   3.794  1.5261 -0.7114  1.3639
 6908TIP3   OH242214   6.606   1.086  16.025  0.0732 -0.3837 -0.6654
 6908TIP3    H142215   6.623   1.006  16.076  4.3201  0.2146 -0.7572
 6908TIP3    H242216   6.671   1.149  16.058 -0.7192  1.8361 -3.0705
 6909TIP3   OH242217   5.821   0.184  13.551 -0.5786 -0.0404 -0.3793
 6909TIP3    H142218   5.755   0.247  13.578  1.0101  1.1904  0.8064
 6909TIP3    H242219   5.811   0.110  13.610  0.2341  0.9150  1.0035
 6910TIP3   OH242220   0.820   6.444   5.470 -0.6526  0.6339 -0.3004
 6910TIP3    H142221   0.844   6.535   5.489  2.6070 -0.2051  0.2793
 6910TIP3    H242222   0.778   6.413   5.551  0.4126  0.9879  0.4092
 6911TIP3   OH242223   3.075   4.658   5.613  0.2456  0.0251  0.0818
 6911TIP3    H142224   3.002   4.642   5.554  0.6626 -0.3505 -0.3381
 6911TIP3    H242225   3.044   4.728   5.671 -1.0848 -1.2921  1.0201
 6912TIP3   OH242226   5.948   1.741  12.116 -0.0320 -0.0753  0.1423
 6912TIP3    H142227   5.985   1.728  12.203  0.4599 -0.3350 -0.1030
 6912TIP3    H242228   5.925   1.653  12.086  0.0002 -0.0080 -0.0810
 6913TIP3   OH242229   3.734   6.204  17.238  0.1630  1.0663 -0.0672
 6913TIP3    H142230   3.805   6.169  17.185  1.3004  1.3431  1.2324
 6913TIP3    H242231   3.669   6.233  17.174  1.7111  1.8869 -1.3492
 6914TIP3   OH242232   1.039   1.456  15.482  0.1606 -0.0817  0.5762
 6914TIP3    H142233   1.096   1.482  15.410 -0.0877  0.5315  0.5863
 6914TIP3    H242234   1.092   1.397  15.535  0.5499 -0.0614  0.2142
 6915TIP3   OH242235   0.351   2.690   2.897  0.3729 -0.0936 -0.1703
 6915TIP3    H142236   0.322   2.631   2.967  1.5272  0.1690  0.5513
 6915TIP3    H242237   0.319   2.649   2.817 -0.6926 -0.5754  0.4714
 6916TIP3   OH242238   3.815   0.791   0.089  0.3782 -0.0343  0.7568
 6916TIP3    H142239   3.856   0.877   0.093  0.4841 -0.0688  0.4405
 6916TIP3    H242240   3.869   0.735   0.144  0.5412  0.0095  0.6412
 6917TIP3   OH242241   5.175   4.734   4.355 -0.0924  0.3247 -0.2551
 6917TIP3    H142242   5.255   4.772   4.390 -1.0403  2.6978 -0.4620
 6917TIP3    H242243   5.104   4.785   4.395 -1.4395 -0.8353 -1.0579
 6918TIP3   OH242244   4.649   1.250   5.964 -0.0656 -0.4277 -0.3728
 6918TIP3    H142245   4.687   1.328   5.923 -0.3673  0.7871  1.5326
 6918TIP3    H242246   4.720   1.215   6.018 -0.3157 -0.7723 -0.2648
 6919TIP3   OH242247   2.596   3.280   2.843 -0.1231  0.4740  0.1151
 6919TIP3    H142248   2.504   3.289   2.867 -0.5774 -1.2735 -0.8130
 6919TIP3    H242249   2.612   3.186   2.844  2.1508  0.7842  1.9725
 6920TIP3   OH242250   0.736   1.782   1.671 -0.1389  0.4749  0.2750
 6920TIP3    H142251   0.687   1.744   1.598 -0.6017  0.4824  0.5786
 6920TIP3    H242252   0.745   1.874   1.648 -0.6769  0.5720  0.4308
 6921TIP3   OH242253   2.737   0.560   5.800 -0.3870 -0.8185  0.0464
 6921TIP3    H142254   2.694   0.558   5.886  1.0578  0.7034  0.8669
 6921TIP3    H242255   2.806   0.494   5.808 -1.1925 -1.7650 -0.5290
 6922TIP3   OH242256   3.076   2.878   2.490 -0.2277 -0.2764  0.9255
 6922TIP3    H142257   3.127   2.800   2.469  1.7894  1.3718 -0.7154
 6922TIP3    H242258   3.124   2.920   2.561 -0.5210  0.1814  0.8585
 6923TIP3   OH242259   3.992   4.643  15.704 -0.2576 -0.8133 -0.4167
 6923TIP3    H142260   3.963   4.719  15.654  0.6336 -1.7648 -2.4986
 6923TIP3    H242261   4.028   4.584  15.639  1.0693 -2.1143  1.3965
 6924TIP3   OH242262   4.235   5.250  16.886 -0.3064 -0.7676 -0.5108
 6924TIP3    H142263   4.210   5.188  16.955 -0.9554  0.3450  0.3055
 6924TIP3    H242264   4.159   5.307  16.877  0.2682 -0.0949 -1.2350
 6925TIP3   OH242265   4.187   0.221   2.457 -0.2792 -0.4292 -0.3331
 6925TIP3    H142266   4.222   0.178   2.535 -0.4806 -0.6476 -0.3600
 6925TIP3    H242267   4.249   0.291   2.438 -1.6222  1.3964  1.5977
 6926TIP3   OH242268   6.290   2.687  15.806 -0.4452 -0.0544  0.3345
 6926TIP3    H142269   6.262   2.684  15.897  0.5661 -0.2716  0.6511
 6926TIP3    H242270   6.244   2.763  15.769 -1.6814 -0.6003  0.7283
 6927TIP3   OH242271   2.120   3.622  13.419  0.1620 -0.5246 -0.1659
 6927TIP3    H142272   2.045   3.609  13.361  1.8120 -2.0767 -2.0873
 6927TIP3    H242273   2.178   3.681  13.371 -0.7188  2.5663  2.2799
 6928TIP3   OH242274   5.338   3.211   2.850 -0.2705 -0.0687  0.0593
 6928TIP3    H142275   5.433   3.227   2.845  0.0569 -1.8119  0.3051
 6928TIP3    H242276   5.313   3.191   2.760 -0.2977 -0.1629  0.0877
 6929TIP3   OH242277   2.800   5.647   2.969  0.2695 -0.0951 -0.7616
 6929TIP3    H142278   2.786   5.553   2.960 -0.5795  0.0145 -0.6891
 6929TIP3    H242279   2.812   5.661   3.063  0.8557 -0.1913 -0.8235
 6930TIP3   OH242280   2.611   5.726   0.813  0.2827  0.3936 -0.2243
 6930TIP3    H142281   2.670   5.660   0.778  0.0181 -0.8893  1.6139
 6930TIP3    H242282   2.651   5.754   0.895 -0.8958  0.5832  0.3124
 6931TIP3   OH242283   5.847   2.534  17.044 -0.3743  0.2740 -0.1180
 6931TIP3    H142284   5.786   2.484  16.991 -1.3574  0.9360  0.3565
 6931TIP3    H242285   5.792   2.586  17.102  0.6753 -0.4990  1.6350
 6932TIP3   OH242286   6.063   3.812   2.897 -0.1416  0.4806 -0.4420
 6932TIP3    H142287   6.018   3.849   2.973  1.6160 -0.9240  1.4069
 6932TIP3    H242288   5.996   3.759   2.853 -1.0173  0.6909  0.5888
 6933TIP3   OH242289   2.749   0.344  12.144 -0.5765  0.4834 -0.3236
 6933TIP3    H142290   2.795   0.326  12.226  0.6811  0.3217 -1.0293
 6933TIP3    H242291   2.800   0.298  12.078 -1.4963  0.7165 -1.2144
 6934TIP3   OH242292   3.671   3.407  17.130  0.8495 -0.6760 -0.6234
 6934TIP3    H142293   3.634   3.382  17.215  0.5066  0.2104 -0.4955
 6934TIP3    H242294   3.641   3.340  17.069 -0.4885 -0.3153 -0.3970
 6935TIP3   OH242295   4.968   0.987   0.418  0.2996  0.0998  0.1436
 6935TIP3    H142296   4.899   0.996   0.352 -1.4376  2.8066  2.0816
 6935TIP3    H242297   5.020   1.066   0.410  1.7304 -0.7895  0.3084
 6936TIP3   OH242298   5.065   4.039  16.094  0.3156  0.7059  0.5168
 6936TIP3    H142299   4.991   4.096  16.116  1.8366  2.2418  1.9332
 6936TIP3    H242300   5.051   3.961  16.147 -1.4986 -0.1091 -1.0307
 6937TIP3   OH242301   0.129   0.490   2.646  0.3143  0.6711  1.0238
 6937TIP3    H142302   0.037   0.488   2.620  0.2047 -0.9890  1.4132
 6937TIP3    H242303   0.172   0.543   2.579 -0.9272  1.5629  0.8977
 6938TIP3   OH242304   2.633   6.249   2.853  0.3101  0.3741  0.1120
 6938TIP3    H142305   2.683   6.221   2.930  0.7274 -3.6172 -1.3843
 6938TIP3    H242306   2.700   6.281   2.792  0.6307 -1.1731 -0.3856
 6939TIP3   OH242307   2.697   2.231  13.339  0.0202  0.1577  0.9827
 6939TIP3    H142308   2.752   2.181  13.400  1.0226 -0.0853 -0.0972
 6939TIP3    H242309   2.743   2.314  13.327 -0.0566  0.1135  0.3830
 6940TIP3   OH242310   5.112   3.296  11.854 -0.1539 -0.3668  0.8748
 6940TIP3    H142311   5.099   3.212  11.809 -2.3930 -0.1560  0.9922
 6940TIP3    H242312   5.074   3.361  11.795 -0.4274  0.2833  1.7473
 6941TIP3   OH242313   3.628   3.351   6.591  0.1862  0.5219  0.3334
 6941TIP3    H142314   3.673   3.270   6.615 -0.3140 -0.1096 -0.8025
 6941TIP3    H242315   3.542   3.345   6.632 -0.6755 -0.5653 -1.5205
 6942TIP3   OH242316   6.417   3.175  11.692 -0.4275  0.3749  0.5455
 6942TIP3    H142317   6.506   3.172  11.729 -0.2200  0.6394  0.0653
 6942TIP3    H242318   6.408   3.264  11.657  0.3341 -0.6064 -2.3988
 6943TIP3   OH242319   4.063   2.554   5.155  0.2302 -0.5731  0.7507
 6943TIP3    H142320   4.100   2.474   5.194  1.6267 -0.1473  0.3704
 6943TIP3    H242321   4.029   2.526   5.071  3.9046 -0.2597 -1.0517
 6944TIP3   OH242322   0.394   6.730   6.339  0.6504  0.0829 -0.5276
 6944TIP3    H142323   0.485   6.699   6.341  0.3864 -0.6824  0.3270
 6944TIP3    H242324   0.395   6.801   6.276  1.4680 -1.1052 -1.9262
 6945TIP3   OH242325   6.486   5.734  16.409  0.1198  0.1962 -0.3181
 6945TIP3    H142326   6.509   5.826  16.399 -0.2344  0.5616  1.7662
 6945TIP3    H242327   6.445   5.729  16.495  1.5908 -2.1825  0.3527
 6946TIP3   OH242328   2.432   4.313  12.530  0.3500  0.0073 -0.2674
 6946TIP3    H142329   2.508   4.328  12.475  1.1440 -1.2237  0.4362
 6946TIP3    H242330   2.386   4.239  12.489  1.9855 -2.2281  1.6133
 6947TIP3   OH242331   1.842   5.848  16.030 -0.0401 -0.7367 -0.0789
 6947TIP3    H142332   1.909   5.782  16.013 -0.2766 -1.0248  0.1028
 6947TIP3    H242333   1.797   5.858  15.946 -1.5999 -2.5990  0.4932
 6948TIP3   OH242334   0.569   3.581   2.595  0.1835 -0.1459 -0.1921
 6948TIP3    H142335   0.615   3.660   2.624  1.0486 -0.3716 -0.9180
 6948TIP3    H242336   0.477   3.599   2.613  0.4255  0.8196  0.1280
 6949TIP3   OH242337   1.708   3.139  14.895 -0.2947 -0.4812  0.8531
 6949TIP3    H142338   1.776   3.073  14.908  1.1409  0.4904 -1.1629
 6949TIP3    H242339   1.657   3.106  14.821 -0.7613 -0.2446  1.0691
 6950TIP3   OH242340   2.756   1.961   2.582 -0.1331  0.3026 -0.0658
 6950TIP3    H142341   2.844   1.979   2.550 -1.0271  0.2987 -2.8147
 6950TIP3    H242342   2.701   2.028   2.542 -1.5770 -0.5410  0.4045
 6951TIP3   OH242343   1.291   2.786  16.353 -0.3922 -0.2427 -0.1965
 6951TIP3    H142344   1.281   2.882  16.348  0.0915 -0.2174 -0.7497
 6951TIP3    H242345   1.213   2.757  16.401 -0.6529  0.4118 -0.2077
 6952TIP3   OH242346   1.333   2.305  17.134  0.4409 -0.2984 -0.2851
 6952TIP3    H142347   1.358   2.386  17.180  0.0752 -0.3410 -0.0088
 6952TIP3    H242348   1.364   2.235  17.192  0.6778 -0.3570 -0.4814
 6953TIP3   OH242349   1.482   4.310   5.710  0.3818 -0.1247 -0.0163
 6953TIP3    H142350   1.434   4.311   5.627  0.0356  0.2168  0.1844
 6953TIP3    H242351   1.417   4.286   5.775  0.7222 -0.6928  0.1204
 6954TIP3   OH242352   4.805   4.910   4.540 -0.3704 -0.1144 -0.4178
 6954TIP3    H142353   4.722   4.957   4.548 -1.1379 -1.4056 -0.4746
 6954TIP3    H242354   4.854   4.959   4.475 -1.6160 -0.0400 -1.3322
 6955TIP3   OH242355   1.589   1.851  15.442  0.2715  0.3683  0.4177
 6955TIP3    H142356   1.655   1.805  15.495 -1.3110 -0.3596  1.8342
 6955TIP3    H242357   1.516   1.866  15.502 -0.7573  1.4099 -1.0306
 6956TIP3   OH242358   1.309   5.300   0.319  0.5717  0.1698  0.1468
 6956TIP3    H142359   1.281   5.223   0.270  2.3401 -0.3533 -0.1243
 6956TIP3    H242360   1.286   5.375   0.264  1.4571 -0.3449 -0.9500
 6957TIP3   OH242361   5.978   3.353   4.655  0.5926  0.6260 -0.3973
 6957TIP3    H142362   5.903   3.295   4.667  1.8034 -1.2083 -1.1177
 6957TIP3    H242363   5.944   3.441   4.671 -1.5051 -0.2043  0.0431
 6958TIP3   OH242364   5.307   3.436  11.036  0.1344 -0.2548  0.1397
 6958TIP3    H142365   5.232   3.381  11.056  0.4987 -0.6723  0.3786
 6958TIP3    H242366   5.273   3.526  11.043 -0.6401 -0.4387 -0.9775
 6959TIP3   OH242367   4.062   4.947   2.689 -0.2944  0.1791 -0.8393
 6959TIP3    H142368   4.049   5.041   2.679 -0.5376  0.2522  0.1113
 6959TIP3    H242369   4.091   4.917   2.603  3.5372  1.7201 -0.2779
 6960TIP3   OH242370   6.291   5.976  15.798  0.4644 -0.8979 -0.2442
 6960TIP3    H142371   6.337   5.897  15.767 -1.9876 -2.7386  0.4895
 6960TIP3    H242372   6.199   5.951  15.798 -0.3912  1.9793  0.1712
 6961TIP3   OH242373   4.680   2.400  14.817  0.1284  0.4768  0.5190
 6961TIP3    H142374   4.613   2.390  14.749  0.7652 -2.2649  0.1822
 6961TIP3    H242375   4.631   2.425  14.895 -1.5165 -2.3209  0.5129
 6962TIP3   OH242376   1.398   2.607  15.008 -0.2435  0.1774 -0.0884
 6962TIP3    H142377   1.420   2.549  14.935  0.8734 -1.5276  1.5206
 6962TIP3    H242378   1.302   2.607  15.011 -0.3492  0.9645 -2.0183
 6963TIP3   OH242379   2.004   5.880   4.109  0.3009  0.0624  0.6500
 6963TIP3    H142380   1.960   5.833   4.038 -0.7202  1.7317  0.1448
 6963TIP3    H242381   2.085   5.830   4.123 -0.1360 -1.1129 -0.7074
 6964TIP3   OH242382   1.657   6.145   5.710  0.4632  0.7642  0.4147
 6964TIP3    H142383   1.668   6.140   5.804  0.0157  0.0485  0.4307
 6964TIP3    H242384   1.563   6.154   5.697  0.6038  2.1166  0.0777
 6965TIP3   OH242385   1.699   2.623   0.615  0.2779  0.0779 -0.5541
 6965TIP3    H142386   1.727   2.683   0.685 -3.2167  0.7852  0.3989
 6965TIP3    H242387   1.737   2.660   0.536  1.4320  1.2960  0.5137
 6966TIP3   OH242388   2.190   1.164   6.803  0.2263  0.6381  0.0885
 6966TIP3    H142389   2.225   1.248   6.834  0.6295  0.3802  0.3396
 6966TIP3    H242390   2.268   1.112   6.783  0.0268  1.1320 -2.3405
 6967TIP3   OH242391   0.655   3.974  12.294  0.1274  0.2845 -0.3590
 6967TIP3    H142392   0.654   3.988  12.199 -0.4425 -1.6110 -0.6761
 6967TIP3    H242393   0.588   4.034  12.327 -0.0616  0.5731 -1.2298
 6968TIP3   OH242394   2.960   6.446  12.189 -0.1077 -0.0083  0.3673
 6968TIP3    H142395   2.996   6.364  12.222  1.1592  0.8876  1.3376
 6968TIP3    H242396   2.883   6.463  12.243  1.5102  1.0569  2.4760
 6969TIP3   OH242397   0.321   6.022   6.187 -0.1040  0.5467  0.0012
 6969TIP3    H142398   0.238   6.025   6.234  0.1392 -0.4710  0.5192
 6969TIP3    H242399   0.358   5.936   6.208 -0.2560 -0.2231 -2.5442
 6970TIP3   OH242400   0.078   4.838  11.663 -0.2534 -0.0388 -0.5523
 6970TIP3    H142401   0.125   4.882  11.734 -0.6707  0.6223 -0.6759
 6970TIP3    H242402   0.131   4.855  11.585  0.2165 -0.7835 -0.4080
 6971TIP3   OH242403   3.291   4.336  12.643  0.0099 -0.1471 -0.3470
 6971TIP3    H142404   3.326   4.247  12.649 -0.6013 -0.4884 -1.5516
 6971TIP3    H242405   3.365   4.393  12.664 -0.0005 -0.9468  2.0853
 6972TIP3   OH242406   3.922   0.082   3.910 -0.4630 -0.1278  0.0511
 6972TIP3    H142407   3.956   0.056   3.995 -1.0089 -0.2656  0.2349
 6972TIP3    H242408   3.984   0.046   3.847 -1.3189 -2.1931  0.2763
 6973TIP3   OH242409   4.799   4.089  12.532 -0.2015 -0.1929 -0.2201
 6973TIP3    H142410   4.721   4.032  12.535  0.6260 -1.3404  0.3904
 6973TIP3    H242411   4.798   4.133  12.617 -0.3843  0.0786 -0.3619
 6974TIP3   OH242412   4.897   6.123  15.331  0.1495  0.2022 -0.5146
 6974TIP3    H142413   4.967   6.064  15.304  0.1228 -0.0036 -0.1467
 6974TIP3    H242414   4.852   6.076  15.401  0.5240  0.9316  0.2271
 6975TIP3   OH242415   6.156   5.061  15.063  0.6594 -0.4150 -0.1010
 6975TIP3    H142416   6.235   5.013  15.037  3.0182  1.8714  2.2695
 6975TIP3    H242417   6.154   5.137  15.004  0.5322 -0.1917  0.1914
 6976TIP3   OH242418   6.011   3.495  14.820 -0.1912  0.1927  0.3964
 6976TIP3    H142419   6.006   3.571  14.762 -0.1290  0.8087  1.1812
 6976TIP3    H242420   5.926   3.452  14.811 -0.4965  0.7651  0.4954
 6977TIP3   OH242421   2.009   5.464  12.945  0.3259  0.6471  0.7104
 6977TIP3    H142422   1.941   5.493  12.883 -0.4295 -0.3942  1.0363
 6977TIP3    H242423   1.977   5.493  13.030 -0.1457 -0.5803  0.9687
 6978TIP3   OH242424   1.194   5.504   2.439 -0.7042  0.6566  0.0094
 6978TIP3    H142425   1.184   5.496   2.534  1.0886 -2.2151  0.0746
 6978TIP3    H242426   1.251   5.580   2.427  0.1800  0.2323  1.3501
 6979TIP3   OH242427   1.165   0.780  13.963 -0.1366  0.1335 -0.1095
 6979TIP3    H142428   1.222   0.856  13.958 -1.4257  1.1053 -3.7912
 6979TIP3    H242429   1.076   0.817  13.966 -0.7257 -1.3019  1.5942
 6980TIP3   OH242430   4.431   2.335  12.660  0.3324  0.4585  0.1105
 6980TIP3    H142431   4.368   2.296  12.600 -0.4603  1.7666  0.0669
 6980TIP3    H242432   4.464   2.262  12.712  0.6880 -0.6285 -1.5862
 6981TIP3   OH242433   2.270   6.802   2.874 -0.8914  0.1530 -0.3320
 6981TIP3    H142434   2.270   6.735   2.805 -1.4700 -0.8752  0.6304
 6981TIP3    H242435   2.179   6.810   2.900 -0.6422  0.3096  0.5160
 6982TIP3   OH242436   1.341   4.538  13.831 -0.2483  0.1509 -0.3169
 6982TIP3    H142437   1.387   4.616  13.801 -0.3521  0.6319  0.7477
 6982TIP3    H242438   1.312   4.496  13.750  0.1864  0.9782 -0.9233
 6983TIP3   OH242439   4.172   3.149   3.077 -0.4432 -0.6347  0.4462
 6983TIP3    H142440   4.122   3.070   3.100 -0.0957 -1.2988 -0.9995
 6983TIP3    H242441   4.228   3.122   3.005 -1.8746  1.4575 -1.5878
 6984TIP3   OH242442   5.136   5.065   3.107 -0.0088  0.3103 -0.3172
 6984TIP3    H142443   5.096   5.032   3.187 -0.6242  1.2357 -0.2255
 6984TIP3    H242444   5.097   5.012   3.037 -0.3145  0.2424 -0.0988
 6985TIP3   OH242445   0.977   2.712  13.827 -0.9641 -0.1754  0.3729
 6985TIP3    H142446   0.918   2.677  13.894 -0.3341  0.5386  1.3185
 6985TIP3    H242447   0.919   2.743  13.758 -1.6200 -1.0736  0.4987
 6986TIP3   OH242448   6.695   5.145   5.207  0.3805  0.4583  0.1632
 6986TIP3    H142449   6.690   5.227   5.257 -1.5348  0.0681  0.6725
 6986TIP3    H242450   6.740   5.169   5.126 -0.8468  2.2187 -0.0546
 6987TIP3   OH242451   5.821   0.095   0.914 -0.2143  0.6691  0.1059
 6987TIP3    H142452   5.905   0.140   0.924 -0.2883  0.8835 -0.2166
 6987TIP3    H242453   5.760   0.148   0.966 -0.1686  0.5659  0.2648
 6988TIP3   OH242454   5.797   2.943   5.807  0.5393 -0.0564 -0.3303
 6988TIP3    H142455   5.755   2.898   5.734 -2.3893  1.9380 -0.0526
 6988TIP3    H242456   5.752   2.908   5.885  0.5514  0.9454  0.1376
 6989TIP3   OH242457   4.764   5.976   5.295  0.2634 -0.0929  0.1030
 6989TIP3    H142458   4.721   5.955   5.377  0.2976  0.2876  0.2221
 6989TIP3    H242459   4.776   5.892   5.251  1.2400 -0.4283  0.9725
 6990TIP3   OH242460   4.451   0.962  12.667  0.1755  0.2435 -0.0754
 6990TIP3    H142461   4.473   1.053  12.688  1.3652  0.1046 -0.6176
 6990TIP3    H242462   4.382   0.939  12.729 -0.5423  1.6852 -0.3005
 6991TIP3   OH242463   2.488   5.955   3.806 -0.1098 -0.1530 -0.5810
 6991TIP3    H142464   2.425   5.980   3.738 -1.7533  0.5106  1.0999
 6991TIP3    H242465   2.457   5.869   3.836 -0.8001  0.5680  0.8630
 6992TIP3   OH242466   5.411   5.955   0.386  0.7330 -0.1260  0.1878
 6992TIP3    H142467   5.358   6.003   0.450  1.4874 -0.7877  1.3535
 6992TIP3    H242468   5.476   6.018   0.356 -0.2927  0.5065 -0.7794
 6993TIP3   OH242469   0.596   6.272  15.585 -0.2461 -0.1276  0.2254
 6993TIP3    H142470   0.658   6.220  15.637  2.7779 -0.0717 -2.9096
 6993TIP3    H242471   0.585   6.352  15.635  1.3254 -0.6380  1.5000
 6994TIP3   OH242472   1.582   4.562   3.395  0.1421  0.3017  0.0253
 6994TIP3    H142473   1.668   4.520   3.401  0.8731  1.7758  0.3260
 6994TIP3    H242474   1.539   4.518   3.321  1.9779  0.9447 -1.5126
 6995TIP3   OH242475   4.080   1.028   4.173 -0.6818  0.4513  0.3280
 6995TIP3    H142476   4.010   0.966   4.192  1.7892 -1.9798  2.2944
 6995TIP3    H242477   4.130   0.987   4.103  0.2188  0.9042  0.6997
 6996TIP3   OH242478   0.949   0.087  15.911 -0.1302 -0.0700  0.0651
 6996TIP3    H142479   0.923   0.179  15.917  0.4167  0.0404  1.0189
 6996TIP3    H242480   1.011   0.084  15.838  1.0944  0.6430  1.0370
 6997TIP3   OH242481   2.370   0.647   2.259  0.0668 -0.0290  0.0116
 6997TIP3    H142482   2.278   0.672   2.262  0.2963  0.8889 -0.1917
 6997TIP3    H242483   2.384   0.595   2.338 -0.6660 -0.3534 -0.0669
 6998TIP3   OH242484   3.939   1.932  12.385  0.6148 -0.1160 -0.3438
 6998TIP3    H142485   3.966   2.020  12.411 -2.6001  0.6707  0.8119
 6998TIP3    H242486   3.962   1.877  12.460 -1.5816  0.7089  1.0272
 6999TIP3   OH242487   3.222   2.335   5.094  0.8012  0.0584  0.4224
 6999TIP3    H142488   3.200   2.307   5.005  0.8640  0.2597  0.3429
 6999TIP3    H242489   3.138   2.358   5.133  0.5418 -1.7725  1.0298
 7000TIP3   OH242490   4.567   2.879  11.879  0.1840  0.3124  0.5769
 7000TIP3    H142491   4.475   2.877  11.853  0.4383 -0.2826 -0.3356
 7000TIP3    H242492   4.569   2.936  11.956 -0.9099  0.5034  0.4827
 7001TIP3   OH242493   2.459   6.461   2.967 -0.3131  0.0470  0.0628
 7001TIP3    H142494   2.503   6.378   2.987 -0.4175 -0.0204  0.0139
 7001TIP3    H242495   2.493   6.485   2.880 -0.3602  0.0034  0.0320
 7002TIP3   OH242496   2.933   0.259  14.288  0.4293  0.4262  0.7968
 7002TIP3    H142497   2.978   0.276  14.204  1.7546  0.1996  1.4341
 7002TIP3    H242498   2.949   0.167  14.305  0.8519  0.6609  1.6927
 7003TIP3   OH242499   0.540   2.207  11.607  0.6480 -0.0188 -0.4328
 7003TIP3    H142500   0.476   2.278  11.612  1.6218  0.8756 -0.4155
 7003TIP3    H242501   0.530   2.159  11.690  0.6213  0.6604 -0.0389
 7004TIP3   OH242502   5.699   1.257   0.186  0.5763  0.1543  0.3194
 7004TIP3    H142503   5.794   1.253   0.197  0.5894  0.0256  0.1604
 7004TIP3    H242504   5.681   1.198   0.113  0.5563  1.5455 -0.8256
 7005TIP3   OH242505   5.944   1.484  11.991  0.1501 -0.5201  0.1234
 7005TIP3    H142506   5.926   1.395  11.961  0.6228 -0.4676 -0.3499
 7005TIP3    H242507   6.039   1.486  12.005  0.2699  0.1340 -0.6820
 7006TIP3   OH242508   5.087   4.529   1.106 -0.6754 -0.2817  0.3854
 7006TIP3    H142509   5.181   4.515   1.094 -0.4826 -0.0944  1.5396
 7006TIP3    H242510   5.054   4.547   1.018  1.0985  4.0026  0.3556
 7007TIP3   OH242511   0.066   6.647   5.191 -0.6168  0.4252 -0.3901
 7007TIP3    H142512   0.041   6.720   5.135 -1.3072  0.7134  0.2791
 7007TIP3    H242513   0.155   6.667   5.219  0.1447 -0.2218 -2.1641
 7008TIP3   OH242514   5.240   6.330  13.791  0.2889 -0.3501 -0.2010
 7008TIP3    H142515   5.165   6.272  13.778  0.1248  0.1721 -1.9412
 7008TIP3    H242516   5.290   6.324  13.709  0.4317  1.6832 -0.3280
 7009TIP3   OH242517   3.142   5.622  12.088 -0.3919  0.3855 -0.5138
 7009TIP3    H142518   3.194   5.570  12.150 -2.9066  0.0063  1.4501
 7009TIP3    H242519   3.179   5.601  12.003  1.0003 -1.8765  0.5283
 7010TIP3   OH242520   0.499   3.241  13.374 -0.0245  0.0126  0.3133
 7010TIP3    H142521   0.560   3.310  13.400  2.0483 -1.7337  0.3412
 7010TIP3    H242522   0.488   3.253  13.279 -0.8083  1.1745  0.5211
 7011TIP3   OH242523   0.787   3.291  12.434  0.2582 -0.4154  0.0605
 7011TIP3    H142524   0.791   3.268  12.527  1.2588 -0.2904  0.0575
 7011TIP3    H242525   0.876   3.278  12.402  0.5361  1.9091 -0.3119
 7012TIP3   OH242526   4.613   0.389  11.513  0.1342  0.1433  0.3409
 7012TIP3    H142527   4.583   0.427  11.430 -1.8944  0.8833  1.3641
 7012TIP3    H242528   4.573   0.302  11.516 -1.2835  0.7946  1.3095
 7013TIP3   OH242529   4.428   5.806  16.658  0.3979 -0.2120  0.0048
 7013TIP3    H142530   4.371   5.817  16.581  1.2226 -1.1776 -0.7821
 7013TIP3    H242531   4.514   5.786  16.620  0.6339 -1.5468  1.1875
 7014TIP3   OH242532   6.230   2.906  14.432  0.0601  0.0377 -0.2277
 7014TIP3    H142533   6.209   2.855  14.511  2.1156 -1.1388 -0.3814
 7014TIP3    H242534   6.265   2.988  14.465  2.5548 -1.1110  0.2243
 7015TIP3   OH242535   0.286   1.422   4.389  0.1216  0.3413 -0.5601
 7015TIP3    H142536   0.355   1.456   4.332 -0.8400  1.2670 -1.2163
 7015TIP3    H242537   0.222   1.493   4.393 -0.2784 -0.0636  0.9402
 7016TIP3   OH242538   3.408   3.621   0.261 -0.0571 -0.0045 -0.3050
 7016TIP3    H142539   3.360   3.579   0.190  1.6354 -0.3743 -1.2849
 7016TIP3    H242540   3.368   3.707   0.271 -0.5224 -0.0762 -1.4963
 7017TIP3   OH242541   6.799   5.562  12.606 -0.5921 -0.5991 -0.0188
 7017TIP3    H142542   6.712   5.595  12.631 -0.1736  1.5016 -1.0585
 7017TIP3    H242543   6.785   5.522  12.521 -0.6738 -0.9760  0.1700
 7018TIP3   OH242544   4.978   4.584   1.649 -0.6209 -0.3138 -0.6123
 7018TIP3    H142545   5.065   4.621   1.637  0.0498 -1.1565  1.3070
 7018TIP3    H242546   4.966   4.527   1.573 -0.1004  0.8547 -1.6098
 7019TIP3   OH242547   4.878   4.902   4.912  0.3020  0.4622  0.2923
 7019TIP3    H142548   4.932   4.930   4.838 -0.1325  2.8170  0.7934
 7019TIP3    H242549   4.940   4.868   4.975  0.9881  1.0492 -0.0499
 7020TIP3   OH242550   5.573   2.928  14.458 -0.4757 -0.0553 -0.0052
 7020TIP3    H142551   5.510   2.881  14.405 -0.6451 -0.4813  0.5693
 7020TIP3    H242552   5.644   2.951  14.397 -1.0377  0.1714 -0.5829
 7021TIP3   OH242553   3.967   4.787   2.900 -0.0983 -0.1814  0.2701
 7021TIP3    H142554   3.891   4.730   2.889 -0.4827  0.2527  0.6270
 7021TIP3    H242555   4.002   4.797   2.812 -1.1796  0.6028 -0.0913
 7022TIP3   OH242556   2.261   2.148   0.450  0.7718 -0.1918 -0.5892
 7022TIP3    H142557   2.335   2.124   0.506  0.4246  0.1278  0.0129
 7022TIP3    H242558   2.267   2.088   0.376 -0.7985 -3.1016  1.4289
 7023TIP3   OH242559   5.263   1.850  11.366 -0.3576 -0.0847 -0.2556
 7023TIP3    H142560   5.264   1.795  11.444  1.7888 -1.0844 -0.9208
 7023TIP3    H242561   5.175   1.888  11.365 -0.7377 -0.7428  2.1291
 7024TIP3   OH242562   0.194   5.525  10.606 -0.3705  0.1121 -0.5474
 7024TIP3    H142563   0.165   5.436  10.629 -0.8474  0.4715  0.2745
 7024TIP3    H242564   0.289   5.521  10.613 -0.4696  0.1902  1.5886
 7025TIP3   OH242565   4.392   4.113   2.551  0.4142 -0.3980 -0.3727
 7025TIP3    H142566   4.412   4.067   2.469 -2.6450  2.2024 -2.8134
 7025TIP3    H242567   4.461   4.179   2.559  0.1286  0.0593 -1.5127
 7026TIP3   OH242568   2.943   1.240   2.565  0.2279 -0.3166 -0.1103
 7026TIP3    H142569   2.903   1.161   2.600 -2.5649  0.0401 -2.1441
 7026TIP3    H242570   3.020   1.210   2.518  0.1523 -1.5942  0.5415
 7027TIP3   OH242571   3.329   1.417   3.747  0.4463  0.3839 -0.1504
 7027TIP3    H142572   3.268   1.446   3.816 -0.3328  1.5779 -1.2848
 7027TIP3    H242573   3.372   1.498   3.718  0.9847 -0.1407 -0.8587
 7028TIP3   OH242574   4.820   5.199  13.552 -0.2122  0.3998 -0.0274
 7028TIP3    H142575   4.851   5.109  13.559  0.6317  0.7469  0.8577
 7028TIP3    H242576   4.757   5.208  13.624 -0.3653  0.4934 -0.1724
 7029TIP3   OH242577   3.836   5.576  13.594 -0.0476  0.3807  0.1119
 7029TIP3    H142578   3.874   5.645  13.539  0.1757  1.9056  2.0787
 7029TIP3    H242579   3.880   5.496  13.565 -0.2103  1.0371 -2.1365
 7030TIP3   OH242580   5.994   0.893  11.903  0.5024  0.0026 -0.2222
 7030TIP3    H142581   6.085   0.886  11.934  0.3389  1.9428  0.8180
 7030TIP3    H242582   5.988   0.827  11.834  2.4041 -0.8760  0.3595
 7031TIP3   OH242583   6.043   6.204  14.780  0.0417 -0.5446 -0.5852
 7031TIP3    H142584   5.952   6.193  14.809  0.1905 -0.7755 -0.1931
 7031TIP3    H242585   6.036   6.221  14.686 -0.5029  1.1488 -0.2714
 7032TIP3   OH242586   3.182   4.187   5.214 -0.0380 -0.0050 -0.1991
 7032TIP3    H142587   3.245   4.188   5.141  1.9015  1.1096  1.3873
 7032TIP3    H242588   3.186   4.097   5.248  0.1494 -0.1316 -0.5493
 7033TIP3   OH242589   4.833   1.684  15.630  0.3941 -0.6036 -0.2016
 7033TIP3    H142590   4.824   1.687  15.725  1.2504 -0.6154 -0.1045
 7033TIP3    H242591   4.746   1.666  15.597 -0.1291  0.4785  0.5270
 7034TIP3   OH242592   3.535   5.188   5.929 -0.0884 -0.2886  0.7793
 7034TIP3    H142593   3.597   5.249   5.967 -1.1715  0.7667  0.9274
 7034TIP3    H242594   3.488   5.240   5.863 -1.7177 -0.6411  1.5953
 7035TIP3   OH242595   1.923   6.381   2.006 -0.0056  0.2118 -0.0786
 7035TIP3    H142596   1.847   6.420   2.048  0.0248  0.2442 -0.0539
 7035TIP3    H242597   1.896   6.292   1.985  0.6002 -0.4137  1.6843
 7036TIP3   OH242598   3.095   6.107   0.068 -0.0772  0.4740  0.0105
 7036TIP3    H142599   3.016   6.055   0.074  1.7795 -2.5091  1.0731
 7036TIP3    H242600   3.087   6.171   0.139 -1.3767  0.0260  0.2896
 7037TIP3   OH242601   6.489   3.307   3.924  0.4112 -0.2683 -0.2081
 7037TIP3    H142602   6.469   3.213   3.933 -0.5704 -0.0779 -0.2821
 7037TIP3    H242603   6.434   3.349   3.991  0.6648  0.2782 -0.3424
 7038TIP3   OH242604   0.268   0.786   0.624  0.4022 -0.1670  0.7008
 7038TIP3    H142605   0.181   0.768   0.588  0.7861 -1.4502  0.3479
 7038TIP3    H242606   0.328   0.746   0.562  1.1291 -1.3880  2.1279
 7039TIP3   OH242607   5.383   0.182  16.106  0.5297  0.4066 -0.7542
 7039TIP3    H142608   5.467   0.182  16.152  0.8122  1.3872 -1.2358
 7039TIP3    H242609   5.348   0.094  16.121  1.1618  0.3137  0.3072
 7040TIP3   OH242610   5.360   3.385   4.124  0.3878 -0.2809 -0.0798
 7040TIP3    H142611   5.333   3.345   4.042 -1.2363 -0.2753  0.4183
 7040TIP3    H242612   5.279   3.395   4.174  0.8755  2.6476  0.2760
 7041TIP3   OH242613   4.927   2.688   2.646  0.7177 -0.3597  0.2453
 7041TIP3    H142614   4.873   2.619   2.685  1.8796 -0.9108  0.9183
 7041TIP3    H242615   4.941   2.751   2.716  0.8966 -0.1857  0.0551
 7042TIP3   OH242616   6.631   6.776   2.437  0.2140  0.3117 -0.3608
 7042TIP3    H142617   6.626   6.862   2.395  0.5187  1.5731  2.0262
 7042TIP3    H242618   6.724   6.755   2.439  0.2043  0.2761 -0.2825
 7043TIP3   OH242619   4.254   2.020  13.716  0.1102  0.0066  0.4745
 7043TIP3    H142620   4.263   2.115  13.713  0.4760 -0.0351  0.2244
 7043TIP3    H242621   4.324   1.991  13.775  0.1013 -0.1227  0.4222
 7044TIP3   OH242622   0.665   6.621  16.864 -0.1668 -0.0236  0.3119
 7044TIP3    H142623   0.586   6.632  16.811 -1.2724 -1.1933  1.6464
 7044TIP3    H242624   0.651   6.678  16.940  0.2548 -0.2891  0.5913
 7045TIP3   OH242625   2.761   2.864   3.967  0.5529  0.2212 -0.3248
 7045TIP3    H142626   2.796   2.938   4.016  1.4786  0.5897 -1.4944
 7045TIP3    H242627   2.821   2.854   3.893  0.1975 -1.4315 -0.4195
 7046TIP3   OH242628   0.950   1.940  16.644 -0.1439 -1.2647  0.0614
 7046TIP3    H142629   1.029   1.939  16.590 -0.0211  1.2782  0.0833
 7046TIP3    H242630   0.983   1.940  16.734 -0.1317  0.0199  0.0699
 7047TIP3   OH242631   5.306   6.617  15.064 -0.2866 -0.0423 -0.4144
 7047TIP3    H142632   5.288   6.668  15.143  1.3755  0.7034 -0.4719
 7047TIP3    H242633   5.330   6.530  15.097  2.1661  0.7367  0.1174
 7048TIP3   OH242634   3.663   1.467  16.976 -0.5356  0.5048  0.1463
 7048TIP3    H142635   3.597   1.450  17.043 -0.5362 -1.7693 -0.3299
 7048TIP3    H242636   3.612   1.476  16.895 -0.4638  2.2688  0.2541
 7049TIP3   OH242637   1.327   1.650  15.792  0.7193  0.5723  0.4085
 7049TIP3    H142638   1.237   1.682  15.803  0.9779  1.9517 -1.0649
 7049TIP3    H242639   1.320   1.555  15.800 -0.6392  0.7531  1.6630
 7050TIP3   OH242640   3.025   0.372   5.310  0.5205  0.1879 -0.0171
 7050TIP3    H142641   2.954   0.309   5.324  1.1485 -0.5919 -0.2717
 7050TIP3    H242642   2.999   0.450   5.360 -1.5269  0.7162 -1.7662
 7051TIP3   OH242643   0.812   4.325  15.963  0.1890  0.3969  0.5117
 7051TIP3    H142644   0.770   4.248  16.002  1.8945 -0.1941  1.3052
 7051TIP3    H242645   0.786   4.323  15.871  1.2241 -1.9279  0.1916
 7052TIP3   OH242646   5.677   2.882   1.367 -0.4435 -0.4756 -0.5784
 7052TIP3    H142647   5.598   2.932   1.389  0.1232  0.8205 -1.4131
 7052TIP3    H242648   5.667   2.800   1.416 -1.3355  0.4841  0.9352
 7053TIP3   OH242649   4.159   6.452   3.798 -0.2078 -0.0350  0.5607
 7053TIP3    H142650   4.184   6.529   3.748  0.1647 -0.0898  0.6559
 7053TIP3    H242651   4.118   6.487   3.878 -1.6354  0.0442 -0.1785
 7054TIP3   OH242652   0.572   0.183  15.129  0.2278 -0.5408 -0.1543
 7054TIP3    H142653   0.484   0.146  15.120 -0.0530  0.4666 -1.9859
 7054TIP3    H242654   0.578   0.206  15.222  0.0872 -4.1551  0.9314
 7055TIP3   OH242655   3.618   4.152  11.664  0.0745 -0.2477 -0.1631
 7055TIP3    H142656   3.657   4.187  11.584 -2.1283 -2.3571 -2.3246
 7055TIP3    H242657   3.545   4.211  11.683 -0.2224 -0.5070 -0.5006
 7056TIP3   OH242658   3.946   1.981   2.535 -0.4647 -0.2973  0.4886
 7056TIP3    H142659   3.909   2.063   2.503 -0.9532 -0.8473 -0.4094
 7056TIP3    H242660   3.999   2.006   2.611  0.8708  1.0992 -0.8309
 7057TIP3   OH242661   3.185   1.218   4.530  0.3720 -0.4570  0.2872
 7057TIP3    H142662   3.093   1.208   4.552  0.1803  0.9736  0.1836
 7057TIP3    H242663   3.205   1.140   4.478 -1.3400  0.1915 -1.4643
 7058TIP3   OH242664   1.042   2.623   4.147 -0.0687  0.2823  0.2903
 7058TIP3    H142665   1.031   2.530   4.166  0.5228  0.2618  0.5620
 7058TIP3    H242666   1.112   2.651   4.206  0.8035  0.5488 -0.8403
 7059TIP3   OH242667   5.609   2.352  14.964 -0.1421  0.2590 -0.2955
 7059TIP3    H142668   5.520   2.347  14.930  0.1314 -0.6106 -0.9220
 7059TIP3    H242669   5.658   2.398  14.895  0.4662 -1.7241 -1.2512
 7060TIP3   OH242670   5.419   1.839  12.704  0.4438  0.5694 -0.0102
 7060TIP3    H142671   5.334   1.882  12.710 -1.0408 -2.2571  1.4351
 7060TIP3    H242672   5.477   1.905  12.665 -3.0763  1.5754 -4.3120
 7061TIP3   OH242673   3.201   1.336   0.135  0.5113  1.1602 -0.4615
 7061TIP3    H142674   3.115   1.338   0.178  0.8081  0.8551  0.1535
 7061TIP3    H242675   3.182   1.308   0.046 -0.0008  0.8416 -0.2608
 7062TIP3   OH242676   4.454   3.650  11.266 -0.4826 -0.1622 -0.3776
 7062TIP3    H142677   4.495   3.729  11.301  1.4619 -1.6290  0.9218
 7062TIP3    H242678   4.487   3.644  11.176 -0.3524  0.3197 -0.3634
 7063TIP3   OH242679   6.417   4.083  16.196 -0.4785  0.0854  0.4638
 7063TIP3    H142680   6.452   4.173  16.192  0.8176 -0.2976  1.9746
 7063TIP3    H242681   6.487   4.029  16.160 -1.4378 -0.3153 -0.8673
 7064TIP3   OH242682   5.923   0.657   5.145 -0.0044  0.1620 -0.2714
 7064TIP3    H142683   5.841   0.657   5.195 -1.6737 -1.6232 -2.7796
 7064TIP3    H242684   5.936   0.749   5.121  1.2754  1.2543  3.7871
 7065TIP3   OH242685   5.144   1.186   0.416  0.0213 -0.1966 -0.3232
 7065TIP3    H142686   5.235   1.169   0.443  0.8503  0.1233 -2.6742
 7065TIP3    H242687   5.109   1.244   0.484  2.0072  0.7372 -0.0207
 7066TIP3   OH242688   4.939   0.318  13.355 -0.1867  0.0451 -0.0572
 7066TIP3    H142689   4.888   0.240  13.335 -1.0904  0.4925  0.4276
 7066TIP3    H242690   5.025   0.302  13.316 -0.0633 -1.5796  0.7990
 7067TIP3   OH242691   3.517   1.951   5.613  0.5675  0.0424 -0.2839
 7067TIP3    H142692   3.586   2.008   5.581 -0.2513  1.3079  0.1448
 7067TIP3    H242693   3.562   1.890   5.672  1.1707  1.6795  1.0381
 7068TIP3   OH242694   0.693   4.256  13.616  0.5090 -0.2108 -0.2175
 7068TIP3    H142695   0.706   4.329  13.676 -0.1423 -1.0913  1.0480
 7068TIP3    H242696   0.755   4.189  13.645  0.1256 -0.6821 -0.4638
 7069TIP3   OH242697   6.385   0.525  12.450 -0.5520  0.3568 -0.3563
 7069TIP3    H142698   6.337   0.606  12.469 -0.3575  0.4713 -0.3512
 7069TIP3    H242699   6.443   0.548  12.379  0.0775  0.4378  0.1752
 7070TIP3   OH242700   1.970   5.145  12.648  0.1144 -0.8319 -0.3895
 7070TIP3    H142701   2.032   5.216  12.629 -2.1738  0.7002 -2.8193
 7070TIP3    H242702   1.966   5.143  12.744  0.6330  2.0543 -0.2080
 7071TIP3   OH242703   1.458   4.985   0.459  0.6828  0.0612 -0.3697
 7071TIP3    H142704   1.476   5.073   0.492  0.5809 -0.6133  1.6822
 7071TIP3    H242705   1.364   4.975   0.468  0.5493  0.0844 -1.5929
 7072TIP3   OH242706   6.665   1.313   0.849  0.0211  0.2395 -0.1130
 7072TIP3    H142707   6.595   1.334   0.911 -0.1864 -2.0317  0.5174
 7072TIP3    H242708   6.743   1.354   0.885 -0.2688 -0.3325  1.2359
 7073TIP3   OH242709   5.703   3.891  14.660 -0.4111 -0.0503  0.2548
 7073TIP3    H142710   5.717   3.980  14.628  0.5048 -0.4197 -0.4048
 7073TIP3    H242711   5.675   3.842  14.583 -0.0700 -0.5245  0.4306
 7074TIP3   OH242712   2.311   3.527  17.147  0.1413 -0.4209  0.0511
 7074TIP3    H142713   2.264   3.496  17.070 -0.2517 -0.6037  0.3578
 7074TIP3    H242714   2.242   3.559  17.205  0.1731 -2.4934  1.3496
 7075TIP3   OH242715   2.375   6.205   4.414  0.4876  0.1407 -0.2250
 7075TIP3    H142716   2.332   6.173   4.493 -1.1303 -0.3035 -1.2456
 7075TIP3    H242717   2.390   6.126   4.361  0.1977  0.5870 -0.9905
 7076TIP3   OH242718   2.379   3.099   3.595 -0.1985 -0.1135 -0.2571
 7076TIP3    H142719   2.440   3.100   3.669 -1.9597  1.5508  1.2758
 7076TIP3    H242720   2.295   3.079   3.635 -0.9480 -0.7713 -2.0901
 7077TIP3   OH242721   3.662   2.190   0.647  0.1796  0.0470  0.5878
 7077TIP3    H142722   3.627   2.226   0.566  0.9899  0.9338  0.6226
 7077TIP3    H242723   3.613   2.235   0.716  0.4383  0.2805  0.6166
 7078TIP3   OH242724   4.503   6.558   1.817 -0.1033 -0.1169 -0.0956
 7078TIP3    H142725   4.419   6.598   1.793 -0.2738  1.4998  2.7683
 7078TIP3    H242726   4.560   6.577   1.742 -2.0030 -0.4176 -1.6907
 7079TIP3   OH242727   0.342   0.659   1.309 -0.7208  0.6387 -0.0635
 7079TIP3    H142728   0.376   0.575   1.340 -0.7288  0.9991  0.9650
 7079TIP3    H242729   0.381   0.670   1.222  1.3172  0.7276  0.7877
 7080TIP3   OH242730   0.435   6.667  14.758 -0.3967 -0.3845 -0.2757
 7080TIP3    H142731   0.355   6.714  14.781  0.0626 -0.2510  1.2230
 7080TIP3    H242732   0.502   6.736  14.752 -0.3401 -0.5150 -1.3125
 7081TIP3   OH242733   6.823   1.071   5.071 -0.4401 -0.0360  0.6491
 7081TIP3    H142734   6.892   1.028   5.122  1.2435  0.8034 -0.8081
 7081TIP3    H242735   6.833   1.037   4.983  0.0735  2.2414 -0.2487
 7082TIP3   OH242736   3.559   0.343  11.740  0.2881  0.2357  0.3774
 7082TIP3    H142737   3.474   0.349  11.783 -0.5452  0.7129 -1.2291
 7082TIP3    H242738   3.616   0.403  11.788 -0.4832  0.4398  1.0447
 7083TIP3   OH242739   2.122   0.070   5.345  0.3827  0.1665  0.0645
 7083TIP3    H142740   2.168   0.093   5.426  1.4846  0.1959 -0.5416
 7083TIP3    H242741   2.119  -0.025   5.345  1.2427  0.1289 -0.3011
 7084TIP3   OH242742   5.276   5.917  12.955  0.2895  0.0727  0.1099
 7084TIP3    H142743   5.201   5.860  12.971  0.1823  0.0418 -0.4925
 7084TIP3    H242744   5.238   5.996  12.916  0.8597 -1.2932 -3.5122
 7085TIP3   OH242745   4.028   2.318  12.760  0.0046  0.7265  0.3404
 7085TIP3    H142746   3.946   2.292  12.802  0.8895 -2.9327  0.1467
 7085TIP3    H242747   4.090   2.327  12.833  0.8897 -3.0174  0.2399
 7086TIP3   OH242748   6.812   3.080   5.680 -0.2958  1.0034  0.0801
 7086TIP3    H142749   6.759   3.003   5.663  0.9010 -0.2424  1.6559
 7086TIP3    H242750   6.749   3.148   5.705 -1.1850 -0.5140  2.2203
 7087TIP3   OH242751   1.301   4.323  16.759 -0.0639  1.0486  0.3271
 7087TIP3    H142752   1.263   4.396  16.710 -0.0719  0.6250 -0.3033
 7087TIP3    H242753   1.250   4.320  16.841 -1.2140  0.6595 -0.3831
 7088TIP3   OH242754   2.044   3.483   3.115  0.0173  0.1222 -0.0228
 7088TIP3    H142755   1.974   3.534   3.075  0.2009  1.6237  1.4296
 7088TIP3    H242756   2.010   3.393   3.118 -1.0397  0.4664 -1.0673
 7089TIP3   OH242757   5.970   5.855   3.377  0.4276 -0.1276 -0.1240
 7089TIP3    H142758   6.028   5.903   3.318  0.2846 -0.9559 -0.9585
 7089TIP3    H242759   5.894   5.911   3.388  1.5390  1.1671  1.3201
 7090TIP3   OH242760   1.892   4.270   1.010 -0.8634  0.3196  0.2991
 7090TIP3    H142761   1.829   4.232   0.948 -0.6772 -2.1744  1.5090
 7090TIP3    H242762   1.939   4.335   0.958 -0.3805 -1.9577 -2.3932
 7091TIP3   OH242763   6.096   6.407   5.297 -0.4388 -0.3073 -0.4858
 7091TIP3    H142764   6.176   6.355   5.284  0.1337  0.4147  0.1273
 7091TIP3    H242765   6.124   6.498   5.289 -0.9965 -0.0063  0.8236
 7092TIP3   OH242766   1.841   5.730  13.525  0.0928 -0.1588 -0.0127
 7092TIP3    H142767   1.898   5.655  13.544  0.6947  0.1901 -0.4265
 7092TIP3    H242768   1.855   5.747  13.432 -1.2667 -0.5449 -0.3145
 7093TIP3   OH242769   0.195   0.926   3.732  0.3832  0.4367  0.0573
 7093TIP3    H142770   0.227   0.861   3.670 -0.2855  0.8264 -0.7158
 7093TIP3    H242771   0.173   1.002   3.678 -2.5474 -0.0521  0.3705
 7094TIP3   OH242772   4.690   3.753   2.822  0.2607  0.0057  0.5896
 7094TIP3    H142773   4.763   3.802   2.857  0.8324 -1.4374  1.5293
 7094TIP3    H242774   4.707   3.662   2.848  0.6010 -1.2091 -3.1848
 7095TIP3   OH242775   0.508   5.634  16.687  0.2949  0.3948 -0.5012
 7095TIP3    H142776   0.470   5.667  16.769 -1.3275 -0.5745 -0.8065
 7095TIP3    H242777   0.446   5.663  16.620 -0.1407 -1.5084 -0.9883
 7096TIP3   OH242778   0.855   2.067  13.355 -0.2196 -0.1436 -0.0688
 7096TIP3    H142779   0.893   2.013  13.285 -0.5738  0.2758 -0.6018
 7096TIP3    H242780   0.773   2.099  13.317  0.0402  0.8567  0.1959
 7097TIP3   OH242781   5.256   1.593   1.269 -0.7754 -0.4727  0.2234
 7097TIP3    H142782   5.284   1.505   1.292  1.0895  0.5649  2.3887
 7097TIP3    H242783   5.289   1.608   1.181  1.0018 -1.1385  0.7500
 7098TIP3   OH242784   5.796   6.101  14.166 -0.2537 -0.7772  0.6719
 7098TIP3    H142785   5.863   6.154  14.123  0.2384 -1.4151  0.6373
 7098TIP3    H242786   5.724   6.162  14.182  0.8984  0.3015  2.0877
 7099TIP3   OH242787   3.261   0.511  13.469  0.2001 -0.0978 -0.3760
 7099TIP3    H142788   3.347   0.469  13.466 -0.4709 -1.5306 -1.1283
 7099TIP3    H242789   3.201   0.442  13.441 -1.0374  1.2827 -1.2664
 7100TIP3   OH242790   4.334   4.560  17.153 -0.5278 -0.3528 -0.0444
 7100TIP3    H142791   4.413   4.513  17.128 -0.4611 -0.6134  0.6369
 7100TIP3    H242792   4.308   4.608  17.074  1.1740  0.9586  0.1312
 7101TIP3   OH242793   6.625   4.777  11.886  0.1541  0.3068  0.0290
 7101TIP3    H142794   6.614   4.748  11.976 -0.0712 -2.4456 -0.8175
 7101TIP3    H242795   6.701   4.729  11.854  0.0569  1.0141 -1.3395
 7102TIP3   OH242796   2.361   2.161   0.915 -0.0375  0.0222 -0.5168
 7102TIP3    H142797   2.385   2.105   0.988 -0.2019 -1.3835 -1.4977
 7102TIP3    H242798   2.312   2.233   0.955  1.5531  0.3576  0.9508
 7103TIP3   OH242799   5.701   4.223   2.065  0.1637 -0.4218 -0.1863
 7103TIP3    H142800   5.667   4.227   2.154  2.7598 -2.6741  1.0274
 7103TIP3    H242801   5.668   4.141   2.029 -0.7863  0.4188 -1.3343
 7104TIP3   OH242802   4.986   1.201  15.609 -0.0862  0.7218  0.2457
 7104TIP3    H142803   4.955   1.281  15.566 -0.8504 -0.2739 -1.1616
 7104TIP3    H242804   5.049   1.164  15.547 -1.0246 -0.6242  0.0640
 7105TIP3   OH242805   2.517   5.238  13.399  0.2433 -1.0663 -0.0490
 7105TIP3    H142806   2.503   5.331  13.383 -0.9527 -1.3400 -0.6502
 7105TIP3    H242807   2.590   5.215  13.341 -0.1864 -0.7495 -0.7256
 7106TIP3   OH242808   2.898   6.810  11.609 -0.5614 -0.2345  0.2559
 7106TIP3    H142809   2.906   6.846  11.521  0.6063 -0.2954  0.3297
 7106TIP3    H242810   2.971   6.749  11.617 -0.9192 -0.5696  1.1126
 7107TIP3   OH242811   1.685   2.401  11.049 -0.1973  0.3377  0.1797
 7107TIP3    H142812   1.755   2.346  11.012 -0.2719  0.8373 -0.7448
 7107TIP3    H242813   1.628   2.419  10.975 -0.0116  1.9144  0.3727
 7108TIP3   OH242814   4.565   1.136   3.781  0.0961 -0.1997 -0.1107
 7108TIP3    H142815   4.489   1.157   3.836  0.1617  0.4523 -0.2561
 7108TIP3    H242816   4.605   1.060   3.824  1.0298  1.2025  1.6789
 7109TIP3   OH242817   3.155   4.048  14.350 -0.5400  0.0637  0.2696
 7109TIP3    H142818   3.221   4.113  14.324 -1.1635  1.4142  1.8621
 7109TIP3    H242819   3.204   3.984  14.403 -0.3106  0.5195  0.6160
 7110TIP3   OH242820   4.278   4.173  11.628 -0.0430 -0.2196  0.4585
 7110TIP3    H142821   4.308   4.261  11.651  0.5665 -0.4582  0.6054
 7110TIP3    H242822   4.194   4.164  11.672  0.1854  0.0592  0.9570
 7111TIP3   OH242823   2.568   2.221  12.896  0.4888  0.3186  0.1907
 7111TIP3    H142824   2.660   2.248  12.902  0.7309 -0.6938  2.1569
 7111TIP3    H242825   2.554   2.200  12.804  1.9004  1.5378 -0.3381
 7112TIP3   OH242826   3.948   3.904   0.344  0.1160  0.2382  0.5827
 7112TIP3    H142827   3.874   3.920   0.286  1.2109  0.0951 -0.9409
 7112TIP3    H242828   3.940   3.970   0.413 -0.8259  0.9281 -0.1634
 7113TIP3   OH242829   5.232   4.105  14.940  0.2228 -0.3799 -0.5039
 7113TIP3    H142830   5.211   4.081  14.850  0.2101  1.9219 -1.1919
 7113TIP3    H242831   5.236   4.201  14.938 -1.9503 -0.1128  2.4343
 7114TIP3   OH242832   6.451   4.578   5.126 -0.5374  0.0425 -0.3875
 7114TIP3    H142833   6.441   4.629   5.046 -2.2975 -0.1397 -0.3367
 7114TIP3    H242834   6.407   4.631   5.193  1.0583  0.2798  0.5318
 7115TIP3   OH242835   6.174   0.911   1.570  0.3308  0.1298 -0.4024
 7115TIP3    H142836   6.122   0.948   1.499 -1.9467 -0.7803  0.6717
 7115TIP3    H242837   6.227   0.985   1.602  0.4330  0.8606 -2.1610
 7116TIP3   OH242838   1.544   2.170   0.952  0.3166 -0.3025  0.0400
 7116TIP3    H142839   1.587   2.114   0.887  0.2049 -0.6306  0.2461
 7116TIP3    H242840   1.580   2.142   1.036 -0.8280 -1.0835  0.2919
 7117TIP3   OH242841   0.313   0.128   3.340 -0.0152  0.3134 -0.5818
 7117TIP3    H142842   0.365   0.137   3.420 -0.9925 -1.5572  0.3299
 7117TIP3    H242843   0.374   0.098   3.274  0.2139 -1.2831  0.3197
 7118TIP3   OH242844   5.169   3.907   5.205  0.3575 -0.3697  0.1514
 7118TIP3    H142845   5.155   3.843   5.136  2.4401 -1.4262  0.6356
 7118TIP3    H242846   5.213   3.859   5.275  0.4697  1.2137  1.2354
 7119TIP3   OH242847   0.160   2.080   2.227 -0.1175  0.2479 -0.1836
 7119TIP3    H142848   0.196   2.076   2.138  0.9908 -1.0376  0.2974
 7119TIP3    H242849   0.122   1.993   2.241  0.9881 -0.0472  1.1076
 7120TIP3   OH242850   6.462   2.949   0.784  0.0559 -0.2656 -0.4905
 7120TIP3    H142851   6.424   3.010   0.720  1.4678  0.5877 -0.5504
 7120TIP3    H242852   6.542   2.992   0.814 -0.2825 -0.9044  1.4629
 7121TIP3   OH242853   2.252   1.674   3.550  0.0824  0.2334 -0.7773
 7121TIP3    H142854   2.216   1.758   3.579  1.3848  0.2083  1.1217
 7121TIP3    H242855   2.268   1.685   3.456 -2.3812  1.0826 -1.1662
 7122TIP3   OH242856   0.012   0.854  15.888  0.7707 -0.4847  0.9786
 7122TIP3    H142857  -0.033   0.892  15.964 -0.2624  2.0614 -0.7454
 7122TIP3    H242858   0.100   0.891  15.892  0.4214  0.4519  0.4807
 7123TIP3   OH242859   4.119   5.201  16.325 -0.3213 -0.2501  0.0096
 7123TIP3    H142860   4.141   5.164  16.240  0.1477 -0.0130  0.0247
 7123TIP3    H242861   4.096   5.126  16.379  0.6227 -0.5224  0.0413
 7124TIP3   OH242862   3.236   0.538  15.659  0.2024  0.2859 -0.3341
 7124TIP3    H142863   3.215   0.586  15.739 -2.8134  0.3319 -1.0673
 7124TIP3    H242864   3.266   0.605  15.598  0.0688  0.6024 -0.0564
 7125TIP3   OH242865   5.156   2.222  13.858 -0.2739  0.3185  0.4039
 7125TIP3    H142866   5.134   2.211  13.766  0.6118  1.9042 -0.0352
 7125TIP3    H242867   5.134   2.138  13.899 -1.6611 -0.0595 -1.0385
 7126TIP3   OH242868   5.249   4.253  13.596  0.1310  0.0428  0.0298
 7126TIP3    H142869   5.173   4.204  13.627  0.2863  0.4789  1.1420
 7126TIP3    H242870   5.290   4.287  13.676  2.0979 -1.0673 -0.4153
 7127TIP3   OH242871   1.443   4.058  11.935 -0.2404 -0.6350  0.0309
 7127TIP3    H142872   1.497   4.004  11.992 -0.9965 -1.0180  0.3968
 7127TIP3    H242873   1.375   3.999  11.902 -0.7461 -0.0430 -0.0103
 7128TIP3   OH242874   4.815   0.625  12.378 -0.1751 -0.1468 -0.0736
 7128TIP3    H142875   4.890   0.616  12.320 -1.8610 -1.6689 -2.1605
 7128TIP3    H242876   4.790   0.718  12.372  1.1063  0.2264  0.1563
 7129TIP3   OH242877   4.659   4.752   5.908  0.5045 -0.4588  0.4350
 7129TIP3    H142878   4.568   4.724   5.896 -0.0262  1.5678 -0.8519
 7129TIP3    H242879   4.698   4.744   5.822  0.7912  1.0177  0.3939
 7130TIP3   OH242880   6.376   6.630  15.883  0.4825  0.2346  0.8448
 7130TIP3    H142881   6.361   6.536  15.874  0.8118  0.3133 -0.6726
 7130TIP3    H242882   6.391   6.661  15.794 -1.6816  2.0871  1.0249
 7131TIP3   OH242883   3.859   0.685   4.753  0.5588 -0.3250 -0.2671
 7131TIP3    H142884   3.830   0.687   4.662  0.3088  0.8205 -0.1728
 7131TIP3    H242885   3.783   0.655   4.803  1.3562 -3.2671 -0.6384
 7132TIP3   OH242886   0.965   2.968   4.435 -0.1403  0.2277  0.3238
 7132TIP3    H142887   1.048   2.921   4.428 -0.6559 -0.4777 -1.7681
 7132TIP3    H242888   0.942   2.989   4.345 -2.7823 -0.5454  0.7470
 7133TIP3   OH242889   1.020   2.786  16.632  0.2193 -0.2431  0.0220
 7133TIP3    H142890   1.089   2.725  16.606  1.3702  0.9628  0.1607
 7133TIP3    H242891   1.065   2.853  16.684 -1.3081 -0.2407  1.4489
 7134TIP3   OH242892   3.247   3.869   1.433 -0.2093 -0.3165 -0.4630
 7134TIP3    H142893   3.298   3.886   1.511 -1.7157 -0.4819  0.5977
 7134TIP3    H242894   3.279   3.933   1.369  0.3236  0.5282  0.6190
 7135TIP3   OH242895   6.673   5.131  13.052 -0.4669 -0.0782  0.6176
 7135TIP3    H142896   6.622   5.212  13.048  0.7495  0.6880  0.0782
 7135TIP3    H242897   6.756   5.156  13.092 -0.0627 -1.0622  0.4301
 7136TIP3   OH242898   2.377   5.519  14.784  0.0949  0.3173  0.1510
 7136TIP3    H142899   2.304   5.528  14.723 -0.4041 -0.5221  0.6085
 7136TIP3    H242900   2.348   5.566  14.863  0.2414  0.3744  0.1714
 7137TIP3   OH242901   0.188   0.791  11.010 -0.1789  0.1699 -0.1394
 7137TIP3    H142902   0.268   0.788  10.956  0.1194  0.2679  0.2916
 7137TIP3    H242903   0.117   0.786  10.946  0.1421  2.1335 -0.7241
 7138TIP3   OH242904   2.313   2.622  12.724  0.5400  0.4771  0.1142
 7138TIP3    H142905   2.395   2.621  12.772  0.3278  1.7240  0.5473
 7138TIP3    H242906   2.332   2.576  12.643  0.9685 -1.4527  1.2577
 7139TIP3   OH242907   1.122   4.558  15.401 -0.1648 -0.3923  0.2136
 7139TIP3    H142908   1.215   4.545  15.381 -0.5302 -1.1652 -1.0230
 7139TIP3    H242909   1.086   4.597  15.322 -0.4918  2.0186  1.4355
 7140TIP3   OH242910   3.611   2.102  14.987  0.2844 -0.3100 -0.5621
 7140TIP3    H142911   3.647   2.061  15.066 -0.6383 -0.6953 -0.3293
 7140TIP3    H242912   3.540   2.157  15.020 -0.9082 -1.4051 -1.2260
 7141TIP3   OH242913   0.557   6.047  14.212  0.3938 -0.2200  0.7004
 7141TIP3    H142914   0.480   5.990  14.221  0.5659 -0.5263  0.2665
 7141TIP3    H242915   0.521   6.134  14.197  0.0941 -0.7078 -1.8101
 7142TIP3   OH242916   2.148   4.142   4.266 -0.3264 -0.3522  0.0883
 7142TIP3    H142917   2.074   4.180   4.217  0.7939  2.5314  0.4459
 7142TIP3    H242918   2.114   4.131   4.355 -1.1420 -1.7997 -0.3655
 7143TIP3   OH242919   6.353   4.473   1.291  0.2803 -0.4496  0.1171
 7143TIP3    H142920   6.380   4.548   1.239  0.4518 -2.1246 -2.4027
 7143TIP3    H242921   6.265   4.495   1.321 -0.8086 -0.2660 -2.9033
 7144TIP3   OH242922   1.259   3.796   1.386  0.1674 -0.3274 -0.2211
 7144TIP3    H142923   1.214   3.858   1.444  1.0661  0.2458 -0.1273
 7144TIP3    H242924   1.305   3.851   1.323  1.9699 -0.8325  0.5822
 7145TIP3   OH242925   6.429   4.855  15.593  0.4743 -0.2470  0.4719
 7145TIP3    H142926   6.351   4.800  15.585  0.2706 -0.4786  3.1333
 7145TIP3    H242927   6.501   4.792  15.598  1.0905 -0.0265 -2.9621
 7146TIP3   OH242928   4.180   4.163  16.014  0.1846  0.1579 -0.2451
 7146TIP3    H142929   4.249   4.172  16.079  1.8587  0.2510 -1.9505
 7146TIP3    H242930   4.099   4.180  16.062  1.4508  1.6215  1.4889
 7147TIP3   OH242931   1.038   2.917  11.960 -0.5828 -0.1570  0.0871
 7147TIP3    H142932   1.033   2.975  11.884  2.1909 -1.3978 -1.1783
 7147TIP3    H242933   1.123   2.874  11.951 -1.0964 -1.9232  2.7900
 7148TIP3   OH242934   5.264   1.102  14.227  0.1839 -0.0014  0.6250
 7148TIP3    H142935   5.309   1.187  14.227 -1.1410  0.7874 -1.5429
 7148TIP3    H242936   5.320   1.045  14.174  0.6683 -0.2756  1.4106
 7149TIP3   OH242937   0.078   4.459  16.113 -0.0648  0.0356 -0.8421
 7149TIP3    H142938   0.145   4.521  16.142 -1.3205  1.4989 -0.9528
 7149TIP3    H242939   0.124   4.375  16.108  0.7715  0.0196  3.3559
 7150TIP3   OH242940   0.701   1.097  11.547 -0.1176 -0.2774 -0.2510
 7150TIP3    H142941   0.755   1.176  11.550 -0.8166  0.2075 -0.1890
 7150TIP3    H242942   0.724   1.049  11.627 -1.5190  1.1248  1.0786
 7151TIP3   OH242943   1.068   0.850  12.622 -0.1512 -0.4799 -0.3706
 7151TIP3    H142944   1.021   0.774  12.588 -1.7727  0.6696 -0.8542
 7151TIP3    H242945   1.053   0.918  12.557 -0.4038  0.8061  0.9675
 7152TIP3   OH242946   5.724   4.053   4.469 -0.0223  0.0151 -0.6262
 7152TIP3    H142947   5.681   4.108   4.535  0.4283 -0.8383  0.4203
 7152TIP3    H242948   5.718   4.103   4.388 -1.0717  0.8656 -0.0550
 7153TIP3   OH242949   2.080   3.928  15.403  0.1607  0.0015 -0.1626
 7153TIP3    H142950   2.023   3.957  15.331  0.6017  0.1416 -0.4545
 7153TIP3    H242951   2.048   3.840  15.423 -0.5752  0.3152  0.1053
 7154TIP3   OH242952   6.247   0.944  12.520  0.0546  0.0232 -0.1701
 7154TIP3    H142953   6.226   1.025  12.473  0.9106  1.6566  2.0876
 7154TIP3    H242954   6.162   0.906  12.542 -0.3669  0.5961 -0.7859
 7155TIP3   OH242955   5.038   0.726  11.681 -0.1679  0.4867 -0.5759
 7155TIP3    H142956   5.023   0.636  11.653  0.6285 -0.2297  1.1663
 7155TIP3    H242957   4.982   0.738  11.757 -0.5700  1.6176 -1.0317
 7156TIP3   OH242958   6.334   4.085  16.963 -0.0836  0.6017  0.1908
 7156TIP3    H142959   6.356   4.174  16.991  1.7003 -0.2378  1.6440
 7156TIP3    H242960   6.240   4.078  16.979 -0.0544  1.8760  1.1024
 7157TIP3   OH242961   0.193   4.271   2.729 -0.0360 -0.4927 -0.3765
 7157TIP3    H142962   0.121   4.330   2.707 -1.6473 -1.8660  0.9543
 7157TIP3    H242963   0.227   4.305   2.811 -1.4389 -1.7193  0.7770
 7158TIP3   OH242964   3.515   5.308  11.514  0.0447  0.5559 -0.0382
 7158TIP3    H142965   3.545   5.390  11.553 -2.4735  2.8578 -2.4818
 7158TIP3    H242966   3.553   5.309  11.426  2.4255 -2.5593  0.7538
 7159TIP3   OH242967   6.000   1.963  13.769 -0.2823  0.4828 -0.1172
 7159TIP3    H142968   5.956   1.955  13.684  2.0330 -2.7857 -1.2049
 7159TIP3    H242969   6.045   1.879  13.781  0.1994  1.1039  4.0075
 7160TIP3   OH242970   2.417   1.488   0.039  0.9159  0.6396 -0.2464
 7160TIP3    H142971   2.385   1.400   0.060  2.0256 -0.0714 -1.3771
 7160TIP3    H242972   2.413   1.535   0.122 -0.4284 -0.2316  0.2189
 7161TIP3   OH242973   6.805   0.467   5.248  0.0865 -0.1489 -0.3923
 7161TIP3    H142974   6.819   0.473   5.343  1.4698 -0.3985 -0.5489
 7161TIP3    H242975   6.780   0.555   5.221 -2.7649 -0.5936  0.5166
 7162TIP3   OH242976   2.500   4.045  14.048 -0.3655 -0.2741  0.1770
 7162TIP3    H142977   2.417   4.064  14.004 -1.3641 -3.4485  0.4310
 7162TIP3    H242978   2.504   3.950  14.050  2.4987 -0.2102  1.7391
 7163TIP3   OH242979   0.639   3.777  14.802 -0.0087 -0.5707  0.4790
 7163TIP3    H142980   0.722   3.812  14.770 -0.8255  1.6837  0.6158
 7163TIP3    H242981   0.598   3.736  14.726  1.2656 -1.8364  0.4497
 7164TIP3   OH242982   0.701   4.605   1.769 -0.2533 -0.0204 -0.1847
 7164TIP3    H142983   0.691   4.551   1.690  0.1508 -2.0732  1.1019
 7164TIP3    H242984   0.685   4.546   1.842  0.4891  1.5418  1.3366
 7165TIP3   OH242985   3.563   0.221   6.107 -0.4682  0.0345 -0.0081
 7165TIP3    H142986   3.507   0.263   6.172  2.2116  1.6353  1.4522
 7165TIP3    H242987   3.600   0.294   6.056  2.3158 -0.5845  0.9077
 7166TIP3   OH242988   2.347   5.785   0.696  0.5264 -0.2876 -0.2433
 7166TIP3    H142989   2.413   5.760   0.761  0.8639  2.3625  0.5235
 7166TIP3    H242990   2.366   5.876   0.675  1.3185 -1.3060 -5.2277
 7167TIP3   OH242991   4.623   3.404  15.359  0.1539  0.9281 -0.3384
 7167TIP3    H142992   4.687   3.371  15.422  0.3183  1.0773 -0.4283
 7167TIP3    H242993   4.659   3.381  15.273  1.0518  2.7158 -0.4879
 7168TIP3   OH242994   2.838   2.112   4.843  0.3013 -0.2679  0.1452
 7168TIP3    H142995   2.759   2.068   4.811 -0.3325 -0.1159  1.4241
 7168TIP3    H242996   2.910   2.067   4.799 -0.4627 -0.8601 -0.5297
 7169TIP3   OH242997   1.232   4.413  16.039  0.2887  0.4350 -0.4769
 7169TIP3    H142998   1.144   4.398  16.005 -0.4890  0.3241  1.4484
 7169TIP3    H242999   1.290   4.390  15.966 -1.1831 -1.7706 -1.0533
 7170TIP3   OH243000   3.326   1.768   2.692 -0.5542  0.4619 -0.1379
 7170TIP3    H143001   3.412   1.757   2.732 -1.0438  0.7784  1.0560
 7170TIP3    H243002   3.274   1.695   2.726 -1.1921  1.1547  0.4187
 7171TIP3   OH243003   3.354   3.563   1.863  0.4113 -0.1752  0.0260
 7171TIP3    H143004   3.393   3.497   1.921  1.4705  1.1696  0.8836
 7171TIP3    H243005   3.311   3.511   1.794 -0.8267 -1.8183  1.9280
 7172TIP3   OH243006   4.038   1.995   4.407  0.0402  0.0529  0.7726
 7172TIP3    H143007   4.048   2.040   4.323  1.0055 -4.4640 -1.8562
 7172TIP3    H243008   3.944   1.981   4.416 -0.1252  1.1088  0.8637
 7173TIP3   OH243009   2.615   1.192   0.967 -0.4670 -0.1087  0.2799
 7173TIP3    H143010   2.609   1.236   1.051  2.3348 -0.1830  0.6312
 7173TIP3    H243011   2.545   1.230   0.914 -0.8924  1.5615  1.9458
 7174TIP3   OH243012   0.776   5.431   5.217 -0.1519 -0.1692 -0.0386
 7174TIP3    H143013   0.715   5.505   5.222 -1.5676 -1.1149 -2.0798
 7174TIP3    H243014   0.825   5.445   5.136 -0.9916 -1.8264 -0.8770
 7175TIP3   OH243015   4.957   4.533  13.365  0.1918  0.5884  0.3650
 7175TIP3    H143016   5.001   4.616  13.385 -0.3616  0.6989  1.1694
 7175TIP3    H243017   4.939   4.494  13.450 -0.3743  0.0728  0.0214
 7176TIP3   OH243018   1.316   3.914   1.153  0.1193  0.2479  0.5366
 7176TIP3    H143019   1.258   3.989   1.153  0.4369  0.5017  1.1914
 7176TIP3    H243020   1.326   3.891   1.060 -0.8320  0.3343  0.4041
 7177TIP3   OH243021   5.075   1.027   4.410  0.2408  0.3495 -0.2949
 7177TIP3    H143022   5.078   1.091   4.338  0.4286  0.1871 -0.4323
 7177TIP3    H243023   5.014   0.960   4.379 -1.1401  1.2009  0.4673
 7178TIP3   OH243024   2.633   0.722  17.262  0.1196 -0.4455  0.3711
 7178TIP3    H143025   2.609   0.814  17.259  2.5155  0.2541  0.4891
 7178TIP3    H243026   2.624   0.692  17.171 -1.6099 -0.4064  0.5023
 7179TIP3   OH243027   2.338   1.935   3.748 -0.0168 -0.6103 -0.7724
 7179TIP3    H143028   2.324   1.995   3.675  0.5236 -0.6776 -0.9420
 7179TIP3    H243029   2.411   1.975   3.797 -0.6937 -0.3134  0.0063
 7180TIP3   OH243030   0.927   6.627  16.578  0.2790  0.0255  0.4519
 7180TIP3    H143031   0.887   6.711  16.555  2.4215  1.3441  1.1878
 7180TIP3    H243032   0.951   6.588  16.494 -2.5049 -0.9094 -0.0327
 7181TIP3   OH243033   6.759   0.548  14.955 -0.0616 -0.1899  0.2098
 7181TIP3    H143034   6.699   0.558  14.881  1.2574  1.1013 -0.7300
 7181TIP3    H243035   6.725   0.607  15.022 -0.4771 -0.3191  0.1148
 7182TIP3   OH243036   0.179   2.564   0.640 -0.4661 -0.1955  0.1301
 7182TIP3    H143037   0.153   2.608   0.559  0.0580 -1.6729 -0.8919
 7182TIP3    H243038   0.203   2.634   0.700 -0.8930  0.9289 -0.9847
 7183TIP3   OH243039   3.732   4.091   5.658 -0.0572 -0.2746 -0.4551
 7183TIP3    H143040   3.789   4.154   5.703  0.9915 -0.6698 -1.1711
 7183TIP3    H243041   3.649   4.137   5.647 -0.4845 -0.2966  2.1678
 7184TIP3   OH243042   3.253   1.991   1.585 -0.0770  0.3386 -0.3951
 7184TIP3    H143043   3.339   2.013   1.621 -0.3658 -0.2601  0.6722
 7184TIP3    H243044   3.229   2.068   1.532  0.7762  0.8190 -0.0983
 7185TIP3   OH243045   2.246   6.057   2.953 -0.3113 -0.2583 -0.3347
 7185TIP3    H143046   2.213   5.998   3.021 -1.3616 -1.0003 -1.4710
 7185TIP3    H243047   2.303   6.002   2.900 -0.4613  0.0174 -0.7805
 7186TIP3   OH243048   2.206   6.750  11.933 -0.0124  0.5587  0.4403
 7186TIP3    H143049   2.142   6.680  11.945  0.5157  0.2704  1.8613
 7186TIP3    H243050   2.192   6.781  11.844 -1.3926 -0.2202  0.3553
 7187TIP3   OH243051   2.546   6.422   2.131  0.5931 -0.3812  0.2091
 7187TIP3    H143052   2.501   6.382   2.057 -0.3115  0.1253  0.4721
 7187TIP3    H243053   2.482   6.483   2.168  1.7209  0.8593  0.1952
 7188TIP3   OH243054   1.629   2.961   2.238  0.4732 -0.0237  0.2094
 7188TIP3    H143055   1.662   2.875   2.214 -0.2404 -0.0395 -0.7473
 7188TIP3    H243056   1.633   2.962   2.334  0.8286 -0.9783  0.2116
 7189TIP3   OH243057   2.870   6.220   3.642 -0.1312  0.3808 -0.4474
 7189TIP3    H143058   2.921   6.299   3.628  1.1772 -0.5382 -1.1426
 7189TIP3    H243059   2.934   6.149   3.638 -1.4433 -0.8305 -1.3193
 7190TIP3   OH243060   2.553   0.848   1.447  0.5050  0.2067 -0.2596
 7190TIP3    H143061   2.607   0.926   1.436  2.0739 -0.8680 -0.3895
 7190TIP3    H243062   2.572   0.794   1.371  1.7977 -1.6526  1.2967
 7191TIP3   OH243063   1.945   1.884  12.406 -0.9167 -0.4558 -0.0029
 7191TIP3    H143064   1.954   1.977  12.387 -0.3444 -0.7815 -1.5710
 7191TIP3    H243065   1.894   1.849  12.332 -0.7160 -1.4470  0.3020
 7192TIP3   OH243066   1.012   3.947  12.851 -0.0539  0.2589 -0.0879
 7192TIP3    H143067   0.957   4.025  12.846  2.1498  1.8874 -0.4903
 7192TIP3    H243068   1.049   3.949  12.940 -0.6530 -0.8281  0.1969
 7193TIP3   OH243069   6.798   3.839   3.712 -0.1690 -0.3351  0.2197
 7193TIP3    H143070   6.741   3.772   3.672 -0.7914  0.5916 -0.5060
 7193TIP3    H243071   6.816   3.900   3.640 -1.9858  1.8503  1.5010
 7194TIP3   OH243072   6.166   3.154  13.657  0.1395 -0.0145 -0.0218
 7194TIP3    H143073   6.137   3.165  13.747 -0.7602  0.3383 -0.3413
 7194TIP3    H243074   6.121   3.075  13.627 -1.7595  1.3232 -0.9745
 7195TIP3   OH243075   4.912   0.076  15.719 -0.1728  0.3330  0.0391
 7195TIP3    H143076   4.975   0.004  15.722 -1.0123 -0.3994  0.3843
 7195TIP3    H243077   4.924   0.122  15.803 -0.7736 -0.4039  0.5426
 7196TIP3   OH243078   6.244   5.627   0.440 -0.1979  0.4808  0.0066
 7196TIP3    H143079   6.306   5.603   0.371  0.4842 -0.5354  0.9330
 7196TIP3    H243080   6.187   5.551   0.448 -2.1047  1.6917 -1.3481
 7197TIP3   OH243081   0.358   6.743   2.696 -0.0019 -0.3860  0.0477
 7197TIP3    H143082   0.344   6.737   2.602 -0.5793 -2.4071  0.2286
 7197TIP3    H243083   0.304   6.673   2.733 -0.3442  0.8208  1.9490
 7198TIP3   OH243084   0.938   3.645   2.383  0.4224  0.3074  0.3014
 7198TIP3    H143085   0.945   3.573   2.320  1.5614  0.7096 -0.0535
 7198TIP3    H243086   0.922   3.722   2.330  0.2273  0.4772  0.6041
 7199TIP3   OH243087   4.978   5.074   4.405 -0.4720  0.2475  0.0737
 7199TIP3    H143088   5.021   5.082   4.320 -2.7136  0.6708 -1.0981
 7199TIP3    H243089   5.044   5.101   4.468  0.8708  1.1586 -1.6437
 7200TIP3   OH243090   5.235   5.936   1.038 -0.2715 -0.0019 -0.2462
 7200TIP3    H143091   5.290   6.013   1.023  1.0786 -0.9943 -0.4957
 7200TIP3    H243092   5.273   5.893   1.114 -1.5694  0.0322  0.4600
 7201TIP3   OH243093   0.794   2.846  15.845  0.0555 -0.7007  0.1295
 7201TIP3    H143094   0.773   2.909  15.914  2.7971 -0.3641  0.7552
 7201TIP3    H243095   0.715   2.841  15.792 -1.4964  0.4562  2.2022
 7202TIP3   OH243096   2.704   6.196  16.684  0.0851 -0.1759 -0.1680
 7202TIP3    H143097   2.698   6.169  16.776  0.0797 -0.1033 -0.1469
 7202TIP3    H243098   2.613   6.211  16.658  0.1315  0.5729  0.0490
 7203TIP3   OH243099   1.536   2.570   1.924  0.0830  0.2289  1.0262
 7203TIP3    H143100   1.621   2.545   1.961  0.5671  0.9261  0.4116
 7203TIP3    H243101   1.478   2.577   2.000  0.2022 -1.6317  1.3259
 7204TIP3   OH243102   0.608   2.698   5.027 -0.9592  0.0157  0.1394
 7204TIP3    H143103   0.627   2.751   5.104 -2.7451 -0.5816  1.0492
 7204TIP3    H243104   0.688   2.646   5.014 -0.6395  0.0872  1.6236
 7205TIP3   OH243105   1.515   6.608  12.462 -0.1943  0.1020 -0.0142
 7205TIP3    H143106   1.514   6.693  12.506  0.3493 -1.1245  2.5749
 7205TIP3    H243107   1.447   6.614  12.395  0.8498  3.0308 -0.9627
 7206TIP3   OH243108   3.217   3.739   6.478 -0.2876  0.5161  0.2534
 7206TIP3    H143109   3.270   3.685   6.536 -1.4183  0.7955  1.5906
 7206TIP3    H243110   3.136   3.689   6.466 -0.7203  1.1974  0.2534
 7207TIP3   OH243111   1.208   5.645  14.996  0.2188 -0.0212  0.2036
 7207TIP3    H143112   1.175   5.723  15.041  0.8870 -0.3750  1.3574
 7207TIP3    H243113   1.129   5.599  14.967 -0.1791  1.1975 -0.7338
 7208TIP3   OH243114   5.888   4.671  15.142 -0.5356 -0.5246 -0.0599
 7208TIP3    H143115   5.844   4.755  15.130  2.1124  0.9329 -0.1252
 7208TIP3    H243116   5.959   4.672  15.078  1.6198 -1.3122  2.1747
 7209TIP3   OH243117   5.428   2.113  12.462  0.4827  1.0011 -0.5721
 7209TIP3    H143118   5.511   2.103  12.415  1.0488  2.1026  0.1544
 7209TIP3    H243119   5.426   2.205  12.488  1.2707  0.0454  3.4771
 7210TIP3   OH243120   3.302   6.610  14.063 -0.2061  0.5260  0.2061
 7210TIP3    H143121   3.240   6.633  13.994  0.3212  0.0048 -0.4527
 7210TIP3    H243122   3.290   6.678  14.130 -1.8262  0.1665  0.3322
 7211TIP3   OH243123   3.392   1.778  11.841  0.8459 -0.3087  0.2657
 7211TIP3    H143124   3.361   1.868  11.855  1.2144 -0.4041  1.9580
 7211TIP3    H243125   3.487   1.786  11.838  0.8813 -0.6273  0.4365
 7212TIP3   OH243126   0.294   3.708  16.069  0.2684  0.4433  0.6208
 7212TIP3    H143127   0.202   3.682  16.066 -0.1004  1.7888 -1.5832
 7212TIP3    H243128   0.339   3.632  16.107 -1.4406 -1.2017 -0.4794
 7213TIP3   OH243129   0.503   2.996  15.683 -0.2157 -0.4542 -0.3747
 7213TIP3    H143130   0.435   3.042  15.732 -1.3007 -1.1065 -1.2098
 7213TIP3    H243131   0.581   3.051  15.692 -0.5016 -0.3351  1.6487
 7214TIP3   OH243132   3.171   5.815  11.389 -0.1642 -0.1032  0.0285
 7214TIP3    H143133   3.098   5.756  11.366  0.6503 -0.7914 -0.9020
 7214TIP3    H243134   3.239   5.795  11.324  1.4576 -0.5694  1.7915
 7215TIP3   OH243135   3.514   0.918  10.699  0.0676  0.3736  0.3448
 7215TIP3    H143136   3.484   0.831  10.674  0.0496  0.4655  0.0465
 7215TIP3    H243137   3.434   0.966  10.720  0.0309  0.5051 -0.0894
 7216TIP3   OH243138   1.998   4.448  11.819  0.5460 -0.0806 -0.0178
 7216TIP3    H143139   2.088   4.460  11.787  1.0023 -0.3060  1.1333
 7216TIP3    H243140   1.963   4.537  11.823  0.7517  0.0208 -0.3790
 7217TIP3   OH243141   5.822   1.573   2.280  0.5384 -0.7825  0.2943
 7217TIP3    H143142   5.771   1.652   2.264 -0.6117 -1.3486  1.0174
 7217TIP3    H243143   5.816   1.558   2.374  1.8686 -1.0070  0.3741
 7218TIP3   OH243144   1.914   0.163   4.272 -0.0416 -0.0456 -0.2077
 7218TIP3    H143145   1.891   0.073   4.251 -0.8602  0.6907 -2.8265
 7218TIP3    H243146   1.833   0.201   4.306 -0.6232  0.4479 -2.0069
 7219TIP3   OH243147   0.523   1.288  11.748 -0.4186  0.2247 -0.0961
 7219TIP3    H143148   0.529   1.351  11.819  0.6937 -0.4327  0.4105
 7219TIP3    H243149   0.518   1.203  11.791 -1.6588 -0.0823 -0.7780
 7220TIP3   OH243150   3.297   3.979  16.525  0.1354 -0.0805  0.2573
 7220TIP3    H143151   3.205   3.994  16.503  0.3216 -0.8245 -1.1063
 7220TIP3    H243152   3.295   3.932  16.609 -0.6805  0.7469  0.7158
 7221TIP3   OH243153   2.318   4.883  14.023  0.2275 -0.4836 -0.3923
 7221TIP3    H143154   2.307   4.964  14.073  3.0002 -1.3002  1.7793
 7221TIP3    H243155   2.331   4.913  13.933  0.9962  1.4899  0.3056
 7222TIP3   OH243156   3.922   0.599   1.590 -0.0690  0.2268  0.4738
 7222TIP3    H143157   3.979   0.557   1.526 -0.9106 -1.3375  0.7028
 7222TIP3    H243158   3.941   0.693   1.581  0.4616 -0.0196 -1.4187
 7223TIP3   OH243159   0.790   5.643  15.867  0.2789  0.6940 -0.1583
 7223TIP3    H143160   0.783   5.582  15.794 -0.6085 -1.1365  1.3815
 7223TIP3    H243161   0.874   5.688  15.852  0.0326  0.5485 -2.3651
 7224TIP3   OH243162   1.093   3.824   2.780  0.2951 -0.2920  0.2065
 7224TIP3    H143163   1.119   3.833   2.688  0.9341  1.7419  0.5556
 7224TIP3    H243164   1.023   3.888   2.792 -1.4810 -2.1666  0.6061
 7225TIP3   OH243165   3.275   0.076   1.418  0.3589 -0.2686 -0.3554
 7225TIP3    H143166   3.183   0.057   1.437  0.3445 -0.0063 -0.1519
 7225TIP3    H243167   3.273   0.159   1.371  0.5835  0.4598  0.8781
 7226TIP3   OH243168   4.068   3.000  15.024  0.2054 -0.0612  0.1210
 7226TIP3    H143169   4.101   3.087  15.047 -1.6634  0.9049 -0.5952
 7226TIP3    H243170   4.005   2.979  15.093 -0.3991 -0.1804 -0.4500
 7227TIP3   OH243171   5.416   1.772   3.951  0.2776  0.4811  0.3405
 7227TIP3    H143172   5.438   1.726   3.870 -1.8503  0.5047 -0.3177
 7227TIP3    H243173   5.468   1.852   3.948 -1.3641  1.5999 -2.2200
 7228TIP3   OH243174   5.563   6.169   5.666 -0.5208  0.0181  0.6658
 7228TIP3    H143175   5.630   6.231   5.638  0.0420 -0.1501  1.6069
 7228TIP3    H243176   5.494   6.177   5.599 -1.5718  3.3626  1.9225
 7229TIP3   OH243177   0.700   0.485  15.007 -0.4660  0.3078 -0.1960
 7229TIP3    H143178   0.701   0.389  15.003 -0.3847  0.2550  0.7657
 7229TIP3    H243179   0.697   0.504  15.101  0.4856  1.2607 -0.3533
 7230TIP3   OH243180   0.139   1.449   6.510  0.0578  0.6691 -0.1133
 7230TIP3    H143181   0.168   1.534   6.540  1.0562 -0.0443  1.0219
 7230TIP3    H243182   0.043   1.456   6.504 -0.2972  0.8045  3.5941
 7231TIP3   OH243183   4.453   4.827  12.675  0.1110  0.0787  0.4898
 7231TIP3    H143184   4.431   4.900  12.733 -0.0072 -0.5150  1.1911
 7231TIP3    H243185   4.499   4.765  12.730 -0.9653 -0.9931  0.2093
 7232TIP3   OH243186   0.213   2.230  12.343  0.1740 -0.5644  0.1522
 7232TIP3    H143187   0.209   2.193  12.431  0.2585  1.7986  1.2264
 7232TIP3    H243188   0.137   2.288  12.338  2.0559  2.0989  0.0990
 7233TIP3   OH243189   5.896   4.789  17.017 -0.3948 -0.0942 -0.1169
 7233TIP3    H143190   5.916   4.848  16.944  0.5274 -1.1080 -0.7161
 7233TIP3    H243191   5.980   4.751  17.042 -0.7989 -0.2843  1.0330
 7234TIP3   OH243192   1.115   4.084  12.310  0.3976  0.0429 -0.5339
 7234TIP3    H143193   1.173   4.139  12.363 -0.1036  1.1264 -1.0914
 7234TIP3    H243194   1.164   4.068  12.230  0.0509  0.7356 -0.8935
 7235TIP3   OH243195   1.798   0.945  17.295 -0.0111 -0.0614 -0.0396
 7235TIP3    H143196   1.735   0.945  17.223 -1.7333 -1.1650  1.3809
 7235TIP3    H243197   1.831   1.035  17.298 -2.0566  0.7542 -0.4206
 7236TIP3   OH243198   0.264   2.661   4.481 -0.2312  0.5376  0.0184
 7236TIP3    H143199   0.339   2.696   4.528 -0.4697 -0.1771  0.9560
 7236TIP3    H243200   0.284   2.677   4.389  1.1756  0.1871  0.2389
 7237TIP3   OH243201   5.618   1.841   3.673  0.1252  0.0430 -0.2852
 7237TIP3    H143202   5.693   1.895   3.696  2.0028 -2.8213  0.8609
 7237TIP3    H243203   5.631   1.759   3.721 -3.4289 -0.8687 -0.5496
 7238TIP3   OH243204   3.466   0.820   5.774  0.4053  0.1152 -0.0272
 7238TIP3    H143205   3.401   0.789   5.711  1.4949 -1.9197 -0.2284
 7238TIP3    H243206   3.519   0.884   5.725 -1.1800  1.5734  0.0596
 7239TIP3   OH243207   6.031   3.976  13.220 -0.4662  0.3575  0.7784
 7239TIP3    H143208   5.991   4.057  13.252  0.1962  1.2526 -0.5314
 7239TIP3    H243209   6.006   3.973  13.127 -0.1346 -0.7382  0.7135
 7240TIP3   OH243210   5.022   2.450  13.615  0.8490 -0.1404  0.5280
 7240TIP3    H143211   5.110   2.460  13.650  0.8362  1.6048  0.1293
 7240TIP3    H243212   4.986   2.538  13.613 -0.2382 -0.5647 -1.0621
 7241TIP3   OH243213   1.546   5.223   2.691 -0.4431 -0.1600  0.0652
 7241TIP3    H143214   1.636   5.256   2.683 -0.7267  0.2310 -2.2224
 7241TIP3    H243215   1.502   5.286   2.748 -0.2875  2.0468 -2.1147
 7242TIP3   OH243216   0.336   6.142   0.054  0.0719 -0.5755 -0.2318
 7242TIP3    H143217   0.265   6.201   0.028  0.2984 -0.0841  0.2321
 7242TIP3    H243218   0.300   6.093   0.129  0.4577  0.1923  0.4726
 7243TIP3   OH243219   1.620   2.133   5.161 -0.4520  0.3611 -0.5791
 7243TIP3    H143220   1.530   2.112   5.184 -1.0262  2.4415 -0.7946
 7243TIP3    H243221   1.634   2.222   5.193  1.2502  0.3975 -1.3040
 7244TIP3   OH243222   3.146   4.440   5.087  0.1476 -0.6173 -0.1846
 7244TIP3    H143223   3.147   4.394   5.171 -0.7663 -1.2319 -0.5035
 7244TIP3    H243224   3.147   4.533   5.112  2.3016 -0.7587  0.4492
 7245TIP3   OH243225   1.230   1.877   6.114 -0.0609  0.6329  0.1442
 7245TIP3    H143226   1.238   1.790   6.074  2.6241  1.6156 -1.7912
 7245TIP3    H243227   1.214   1.860   6.206  1.6814 -1.9930  0.0651
 7246TIP3   OH243228   6.502   5.241   4.207 -0.7852  0.9725 -0.3755
 7246TIP3    H143229   6.547   5.176   4.261 -0.7466 -0.9933 -2.6017
 7246TIP3    H243230   6.571   5.301   4.180 -0.6213  1.3737  0.8793
 7247TIP3   OH243231   6.589   4.852  12.488 -0.2261  0.0195  0.4387
 7247TIP3    H143232   6.634   4.835  12.406 -0.1772 -1.5570  0.7671
 7247TIP3    H243233   6.632   4.930  12.524 -0.9115  1.3544 -1.4828
 7248TIP3   OH243234   2.175   2.466  12.190  0.2329 -0.2589 -0.3427
 7248TIP3    H143235   2.088   2.458  12.228  0.3247  0.4512  0.0517
 7248TIP3    H243236   2.234   2.465  12.266  0.4768  0.4093 -0.5122
 7249TIP3   OH243237   3.427   1.989  13.753  0.6130  0.4006  0.2520
 7249TIP3    H143238   3.332   2.001  13.746  0.7303  0.6192 -1.2391
 7249TIP3    H243239   3.458   1.984  13.663  2.1098  0.9427  0.6974
 7250TIP3   OH243240   3.317   4.770   3.641  0.0930 -0.6732 -0.2206
 7250TIP3    H143241   3.365   4.688   3.643 -1.6818 -1.8168 -1.2591
 7250TIP3    H243242   3.369   4.827   3.584  2.4765 -0.2021  2.2156
 7251TIP3   OH243243   4.890   0.348  16.766  0.4651  0.6676  0.0755
 7251TIP3    H143244   4.921   0.339  16.856 -0.2304  1.1000  0.3722
 7251TIP3    H243245   4.810   0.401  16.774  0.6295  1.0659 -0.8375
 7252TIP3   OH243246   6.166   3.823   5.958 -0.4183  0.1204 -0.1829
 7252TIP3    H143247   6.247   3.875   5.962 -0.3423 -0.0731  1.1323
 7252TIP3    H243248   6.148   3.815   5.864  0.1984  1.5426 -0.4608
 7253TIP3   OH243249   2.362   1.050  11.043 -0.3520 -0.4520 -0.2392
 7253TIP3    H143250   2.369   1.089  10.956  2.8902  0.4048  0.2534
 7253TIP3    H243251   2.299   1.105  11.089 -1.9133 -0.7568 -1.9097
 7254TIP3   OH243252   0.012   2.549   6.293  0.5997 -0.1933 -0.3044
 7254TIP3    H143253  -0.050   2.589   6.354  2.5732 -0.1522  1.7941
 7254TIP3    H243254   0.042   2.470   6.338  0.1870 -1.6390 -2.4041
 7255TIP3   OH243255   0.191   5.198   0.057 -0.4483 -0.4888 -0.3276
 7255TIP3    H143256   0.216   5.124   0.111  1.7097  0.3783 -0.0512
 7255TIP3    H243257   0.189   5.272   0.117  0.0425  0.1398 -1.0646
 7256TIP3   OH243258   5.060   0.081  12.983 -0.6273 -0.1027 -0.5046
 7256TIP3    H143259   5.086   0.006  13.036  0.6957 -0.2667 -1.3418
 7256TIP3    H243260   5.129   0.089  12.917 -0.9430  1.6103 -0.6768
 7257TIP3   OH243261   3.673   1.795   5.874 -0.2335 -0.4855 -0.5491
 7257TIP3    H143262   3.736   1.818   5.806 -1.1571  1.4821 -0.8248
 7257TIP3    H243263   3.727   1.766   5.947  1.0611  1.2789 -0.7097
 7258TIP3   OH243264   5.112   3.116   1.053  0.1004  0.2980 -0.4058
 7258TIP3    H143265   5.111   3.174   0.977  0.8245  0.8116 -0.0332
 7258TIP3    H243266   5.082   3.170   1.126 -0.9258 -0.2832 -0.3664
 7259TIP3   OH243267   6.499   0.129  16.455 -0.5225 -0.3300  0.1525
 7259TIP3    H143268   6.516   0.204  16.513 -0.8214 -0.3349  0.2428
 7259TIP3    H243269   6.509   0.052  16.511 -2.1543 -0.2968  0.5357
 7260TIP3   OH243270   0.800   2.911   5.460 -0.2611 -0.3478 -0.3438
 7260TIP3    H143271   0.821   2.939   5.549 -1.2899 -1.3239  0.2398
 7260TIP3    H243272   0.883   2.880   5.425  0.1591  0.0443  0.2717
 7261TIP3   OH243273   4.661   0.173  17.158  0.3350  0.7311  0.4430
 7261TIP3    H143274   4.671   0.079  17.168  0.4291  0.4822 -1.6330
 7261TIP3    H243275   4.566   0.187  17.158  0.3225  0.6888  0.9727
 7262TIP3   OH243276   4.535   0.404  14.428 -0.4608  0.8805 -0.2909
 7262TIP3    H143277   4.495   0.358  14.354 -1.8322 -0.6708  1.3030
 7262TIP3    H243278   4.477   0.385  14.502  0.5159  2.8639  1.0806
 7263TIP3   OH243279   0.867   0.509   5.756 -0.1694  0.0646 -0.5198
 7263TIP3    H143280   0.938   0.514   5.821  0.2674 -1.5195 -0.8377
 7263TIP3    H243281   0.885   0.581   5.696  0.4744  0.4228  0.0831
 7264TIP3   OH243282   2.788   1.068  12.006 -0.5612  0.0035  0.3886
 7264TIP3    H143283   2.798   1.036  12.096 -0.3763 -0.9069  0.0481
 7264TIP3    H243284   2.862   1.029  11.959 -0.8573  0.2026 -0.2410
 7265TIP3   OH243285   5.841   1.806   4.823  0.1715  0.2442  0.0692
 7265TIP3    H143286   5.769   1.846   4.873 -0.1478  0.2352 -0.3777
 7265TIP3    H243287   5.858   1.724   4.869 -0.3597  0.0687 -0.0386
 7266TIP3   OH243288   5.200   1.993   0.248 -0.4184 -0.0613 -0.5450
 7266TIP3    H143289   5.138   1.994   0.175 -0.0562 -2.2519 -0.9585
 7266TIP3    H243290   5.150   2.028   0.322 -1.9892 -1.2455 -0.9947
 7267TIP3   OH243291   0.349   4.296   4.249  0.5343 -0.5786  0.1913
 7267TIP3    H143292   0.303   4.372   4.212  0.0515 -0.6900  0.5502
 7267TIP3    H243293   0.358   4.235   4.176  0.0875 -0.5607  0.1179
 7268TIP3   OH243294   3.583   1.938   3.625 -0.1933  0.4356 -0.3890
 7268TIP3    H143295   3.509   1.985   3.586 -1.4284 -2.8981 -2.5112
 7268TIP3    H243296   3.657   1.962   3.570 -0.3865  1.2241 -0.3246
 7269TIP3   OH243297   6.617   4.771  15.309  0.3640 -0.4539  0.1052
 7269TIP3    H143298   6.522   4.770  15.311  0.3771 -1.1216  2.3574
 7269TIP3    H243299   6.641   4.697  15.253 -0.4227 -0.3388 -0.3979
 7270TIP3   OH243300   4.022   1.840  11.818  0.0019  0.0811  0.4316
 7270TIP3    H143301   3.971   1.888  11.884  0.0652 -1.1119  1.3865
 7270TIP3    H243302   3.966   1.766  11.794  0.4468 -0.1101 -0.0296
 7271TIP3   OH243303   6.603   4.396   1.688 -0.1760  0.0824  0.1247
 7271TIP3    H143304   6.543   4.322   1.696 -2.0179  1.5790  0.9543
 7271TIP3    H243305   6.629   4.396   1.596  2.3936 -3.3677  0.6577
 7272TIP3   OH243306   4.996   1.311   2.004  0.2448  0.4792  0.1145
 7272TIP3    H143307   4.996   1.216   1.992 -1.5005 -0.1684  3.8375
 7272TIP3    H243308   4.928   1.343   1.945 -0.5149 -0.8780  0.2088
 7273TIP3   OH243309   6.476   6.307   6.582  0.4078 -0.0620 -0.7812
 7273TIP3    H143310   6.507   6.360   6.655  0.4325 -1.6276  0.3837
 7273TIP3    H243311   6.381   6.319   6.583  0.4321  0.1295 -0.6712
 7274TIP3   OH243312   3.764   3.181   4.455 -0.3965 -0.3784  0.6621
 7274TIP3    H143313   3.802   3.167   4.368 -1.3012  0.3769  0.1231
 7274TIP3    H243314   3.817   3.127   4.513  2.9047  2.1120  0.3119
 7275TIP3   OH243315   3.165   6.360   1.504  0.3210 -0.3461 -0.4124
 7275TIP3    H143316   3.180   6.452   1.485  0.2019 -0.5333 -1.4899
 7275TIP3    H243317   3.252   6.322   1.508  0.3356 -0.4614 -1.5012
 7276TIP3   OH243318   2.316   6.227  12.268  0.0197  0.0617 -0.6513
 7276TIP3    H143319   2.387   6.227  12.332  0.6296  0.8684 -1.2985
 7276TIP3    H243320   2.244   6.273  12.311 -1.0815 -2.9078  0.9702
 7277TIP3   OH243321   3.809   1.715  12.969 -0.1270 -0.5684  0.3497
 7277TIP3    H143322   3.830   1.623  12.984  0.2640 -0.2840  1.6684
 7277TIP3    H243323   3.745   1.736  13.037 -1.4319 -0.2775 -0.9384
 7278TIP3   OH243324   5.270   2.404  11.110 -0.4944 -0.5612 -0.3164
 7278TIP3    H143325   5.229   2.480  11.068  1.3582  0.9549  0.4533
 7278TIP3    H243326   5.308   2.354  11.038 -0.5415  0.0081 -0.7437
 7279TIP3   OH243327   5.808   5.987  15.993 -0.0886  0.0420  0.1584
 7279TIP3    H143328   5.826   6.075  16.026  0.3867 -0.5205  1.4280
 7279TIP3    H243329   5.823   5.929  16.067 -0.2512 -1.1397 -0.7010
 7280TIP3   OH243330   6.592   5.105   2.060 -0.3100 -0.1650 -0.6424
 7280TIP3    H143331   6.530   5.035   2.077 -0.9709  0.2845 -1.1302
 7280TIP3    H243332   6.633   5.081   1.977  0.5804 -0.7389 -0.0499
 7281TIP3   OH243333   4.230   3.008   0.629 -0.1123  0.3968 -0.3960
 7281TIP3    H143334   4.220   3.079   0.693  2.8554  0.2640  0.3713
 7281TIP3    H243335   4.197   3.045   0.547  1.3560  2.7390 -0.0364
 7282TIP3   OH243336   6.282   1.181  16.941 -0.2876 -0.2516 -0.5867
 7282TIP3    H143337   6.244   1.163  17.027  0.0973  0.9258 -0.1557
 7282TIP3    H243338   6.325   1.099  16.917  0.8694 -0.1484  1.0147
 7283TIP3   OH243339   0.338   5.001   2.779  0.2127 -0.3765  0.5852
 7283TIP3    H143340   0.263   4.984   2.723  0.6764 -0.5344 -0.0014
 7283TIP3    H243341   0.385   4.918   2.781  0.2080 -0.3653  1.1983
 7284TIP3   OH243342   5.332   3.783  16.363  0.2000 -0.1441 -0.7501
 7284TIP3    H143343   5.349   3.859  16.307  1.3333  1.9283  2.1677
 7284TIP3    H243344   5.271   3.815  16.429 -2.1565 -2.8742 -1.3492
 7285TIP3   OH243345   0.076   5.415   2.499  0.2862 -0.3492  0.0654
 7285TIP3    H143346   0.015   5.384   2.432  1.8904  0.2642 -1.7724
 7285TIP3    H243347   0.084   5.342   2.560 -1.6722 -0.7154 -0.0607
 7286TIP3   OH243348   3.022   0.463  10.953 -0.0468  0.1629  0.1082
 7286TIP3    H143349   2.998   0.549  10.987 -0.8228  0.6314 -1.5649
 7286TIP3    H243350   3.104   0.442  10.999 -0.7196  1.0103  1.7885
 7287TIP3   OH243351   5.292   4.996  14.309  0.6556 -0.0530 -0.2948
 7287TIP3    H143352   5.317   5.009  14.401 -0.1461 -3.2125  0.4791
 7287TIP3    H243353   5.208   5.040  14.300 -0.0567 -1.0952  0.9942
 7288TIP3   OH243354   2.691   3.986   1.822  0.1595 -0.4854  0.2353
 7288TIP3    H143355   2.599   4.011   1.818  0.4569  0.6411 -0.1768
 7288TIP3    H243356   2.701   3.943   1.907 -1.2798 -3.0260 -0.7885
 7289TIP3   OH243357   6.725   1.380  12.283  0.1202  0.1912 -0.0019
 7289TIP3    H143358   6.714   1.327  12.362  1.2537 -0.3191 -0.1802
 7289TIP3    H243359   6.636   1.385  12.246  0.0361 -2.0462 -0.2713
 7290TIP3   OH243360   6.315   3.458  14.385 -0.3051 -0.0473 -0.5265
 7290TIP3    H143361   6.354   3.373  14.404 -0.1535  0.3493  1.0875
 7290TIP3    H243362   6.388   3.519  14.387 -0.5946  0.3004 -0.3323
 7291TIP3   OH243363   0.746   1.273   4.556  0.7296  0.6912 -0.1874
 7291TIP3    H143364   0.761   1.286   4.649 -0.0296 -0.6572  0.1402
 7291TIP3    H243365   0.813   1.327   4.513  1.4860  0.8335  1.1340
 7292TIP3   OH243366   1.584   1.601   0.774  0.8534 -0.0705 -0.4129
 7292TIP3    H143367   1.491   1.580   0.763  0.4267 -0.5157  2.9378
 7292TIP3    H243368   1.601   1.668   0.709 -1.6435 -0.4320 -1.5603
 7293TIP3   OH243369   4.406   4.162   5.005  0.0634 -0.0542  0.1277
 7293TIP3    H143370   4.481   4.198   4.958  0.0744 -0.4507 -0.1645
 7293TIP3    H243371   4.415   4.196   5.094  1.7876 -1.7607  0.6834
 7294TIP3   OH243372   3.856   1.458   4.653  0.1573  0.3017 -0.4476
 7294TIP3    H143373   3.898   1.376   4.678  0.1608  0.4075 -0.1049
 7294TIP3    H243374   3.767   1.432   4.626 -0.1983  0.3060  0.6758
 7295TIP3   OH243375   4.230   6.588   0.727  0.1157  0.2222 -0.5857
 7295TIP3    H143376   4.325   6.580   0.736 -0.0600 -0.3534  1.0332
 7295TIP3    H243377   4.199   6.613   0.814 -1.2018  0.6099 -1.1387
 7296TIP3   OH243378   0.388   1.771  11.978 -0.3524  0.0205  0.4847
 7296TIP3    H143379   0.345   1.691  12.008  0.2559 -0.0286  1.2605
 7296TIP3    H243380   0.461   1.783  12.039  0.1748  0.6076 -0.2448
 7297TIP3   OH243381   1.011   5.864  15.098  0.4392  0.2048 -0.1207
 7297TIP3    H143382   1.046   5.905  15.019 -0.5576 -1.1701 -1.3231
 7297TIP3    H243383   0.937   5.919  15.124  0.3501  0.2852 -0.5493
 7298TIP3   OH243384   4.794   1.416   2.501  0.3164 -0.0719  0.0883
 7298TIP3    H143385   4.702   1.412   2.475  0.7476  1.7110 -2.0173
 7298TIP3    H243386   4.843   1.400   2.420  1.8214  1.0388  0.7245
 7299TIP3   OH243387   3.704   6.147   4.134  0.8585 -0.7713  0.3555
 7299TIP3    H143388   3.690   6.056   4.108 -0.9768 -0.4139 -0.0340
 7299TIP3    H243389   3.616   6.184   4.142  1.5514  0.8414  1.0075
 7300TIP3   OH243390   3.259   4.842   5.327 -0.5090  0.4089  0.0849
 7300TIP3    H143391   3.298   4.819   5.243  0.5237 -0.1979  0.7034
 7300TIP3    H243392   3.276   4.766   5.383 -3.0061 -0.1092  0.2905
 7301TIP3   OH243393   5.950   1.653   6.657  0.3074 -0.6801  0.2260
 7301TIP3    H143394   5.869   1.613   6.689 -1.4692  1.6288 -1.0689
 7301TIP3    H243395   5.961   1.619   6.569  0.0878 -0.1156 -0.0226
 7302TIP3   OH243396   3.676   5.846   2.598 -0.0903 -1.0104 -0.2800
 7302TIP3    H143397   3.652   5.850   2.690  1.4387 -0.7476  0.1395
 7302TIP3    H243398   3.629   5.770   2.563 -1.4053 -0.5657  0.4775
 7303TIP3   OH243399   1.238   6.582  11.324 -0.3718 -0.3461 -0.2016
 7303TIP3    H143400   1.144   6.576  11.343 -0.2600 -2.3475 -0.1463
 7303TIP3    H243401   1.242   6.629  11.241 -1.4335 -0.3896 -0.2957
 7304TIP3   OH243402   2.269   5.377  11.085  0.2868  0.2910  0.2616
 7304TIP3    H143403   2.207   5.375  11.159  0.9298  0.9238  0.8322
 7304TIP3    H243404   2.217   5.409  11.011  0.6784  4.5024  1.5590
 7305TIP3   OH243405   5.633   4.938   4.518  0.7494  0.2932  0.1753
 7305TIP3    H143406   5.723   4.928   4.549  1.7159  3.4857 -1.1718
 7305TIP3    H243407   5.595   5.006   4.574 -0.0136  0.6700 -0.7649
 7306TIP3   OH243408   6.615   2.833  13.115  0.1144 -0.6230  0.1028
 7306TIP3    H143409   6.643   2.924  13.122  0.1768 -0.6391  0.0650
 7306TIP3    H243410   6.685   2.790  13.065  0.4504 -0.8598  0.7695
 7307TIP3   OH243411   2.365   3.496   1.270  0.4319  0.0902 -0.4028
 7307TIP3    H143412   2.304   3.508   1.343  0.2009  0.6817 -0.6860
 7307TIP3    H243413   2.363   3.579   1.223  0.4304 -0.3450 -1.1934
 7308TIP3   OH243414   2.338   5.093  12.790  0.1842 -0.2349 -0.4014
 7308TIP3    H143415   2.322   5.090  12.695  0.0672  1.9567 -0.5060
 7308TIP3    H243416   2.272   5.153  12.823  0.6252 -0.4846  0.9929
 7309TIP3   OH243417   6.743   2.949  16.522 -0.1078 -0.0903  0.3817
 7309TIP3    H143418   6.694   2.887  16.467 -0.6861  0.6227  0.0781
 7309TIP3    H243419   6.822   2.969  16.471 -0.4832  0.3154 -0.0509
 7310TIP3   OH243420   1.007   0.716   4.662 -0.0671  0.3126  0.2663
 7310TIP3    H143421   0.999   0.772   4.585  1.6120  0.4574  0.1520
 7310TIP3    H243422   1.026   0.777   4.733  3.2789 -0.1030 -0.1194
 7311TIP3   OH243423   0.420   5.884   2.954  0.5086  0.0712  0.1786
 7311TIP3    H143424   0.475   5.841   3.020  0.0868  0.2901  0.6779
 7311TIP3    H243425   0.365   5.943   3.004  0.0296  0.0798 -0.3530
 7312TIP3   OH243426   1.709   6.508   3.612  0.5325  0.1244 -0.4110
 7312TIP3    H143427   1.650   6.460   3.670  0.9415  0.6938  0.5093
 7312TIP3    H243428   1.666   6.506   3.527 -0.4940 -0.0262  0.0902
 7313TIP3   OH243429   4.421   0.797  14.330 -0.4764  0.1753 -0.0063
 7313TIP3    H143430   4.357   0.858  14.366 -0.4569 -1.0531  2.2536
 7313TIP3    H243431   4.486   0.785  14.400 -0.4927 -2.4249 -0.3514
 7314TIP3   OH243432   3.266   0.456   5.206  0.4202 -0.5104 -0.6134
 7314TIP3    H143433   3.189   0.401   5.220  0.4570 -0.1975  0.9815
 7314TIP3    H243434   3.233   0.546   5.215  0.8201 -0.3440 -0.7763
 7315TIP3   OH243435   2.021   3.635   3.583  0.3648  0.3057 -0.0396
 7315TIP3    H143436   2.005   3.551   3.626 -0.8805  0.2244 -0.6166
 7315TIP3    H243437   2.092   3.618   3.521  0.7399 -0.0852  0.4845
 7316TIP3   OH243438   5.519   1.774   3.439  0.2272  0.2087 -0.3908
 7316TIP3    H143439   5.577   1.789   3.513 -0.4617  0.9059  0.0190
 7316TIP3    H243440   5.524   1.855   3.388 -1.4689  0.8745  0.4176
 7317TIP3   OH243441   4.067   6.697  13.465 -0.2349 -0.7337  0.4656
 7317TIP3    H143442   4.008   6.629  13.497 -1.1793 -0.0654  0.1530
 7317TIP3    H243443   4.017   6.744  13.399  0.6078 -0.0815  0.2715
 7318TIP3   OH243444   2.181   2.818   0.337 -0.2362  0.1170  0.0761
 7318TIP3    H143445   2.218   2.760   0.404  1.6348  2.0250  0.8027
 7318TIP3    H243446   2.221   2.789   0.255 -1.6368 -1.4663 -0.1210
 7319TIP3   OH243447   5.025   5.435   3.536 -0.2440  0.2268 -0.4919
 7319TIP3    H143448   5.090   5.374   3.570 -0.0592  0.9269  0.4371
 7319TIP3    H243449   5.073   5.492   3.476 -0.0673  0.5139 -0.0808
 7320TIP3   OH243450   1.088   4.322   5.273 -0.2227 -0.2830  0.2472
 7320TIP3    H143451   1.093   4.229   5.252  0.2196 -0.2734  0.3129
 7320TIP3    H243452   1.084   4.366   5.188  0.9432 -0.2813  0.1836
 7321TIP3   OH243453   5.883   2.617   1.631  0.2596 -0.6928  0.6870
 7321TIP3    H143454   5.813   2.613   1.565  0.7205 -2.2760  0.2316
 7321TIP3    H243455   5.851   2.678   1.697 -0.3305  0.7759 -0.8751
 7322TIP3   OH243456   2.295   3.078   0.428  0.4358 -0.7308  0.1436
 7322TIP3    H143457   2.257   2.991   0.440  0.0091 -0.5474  0.1199
 7322TIP3    H243458   2.230   3.138   0.463  0.5941 -0.3996 -0.1266
 7323TIP3   OH243459   4.153   2.099   1.453  0.5798 -0.4139  0.3193
 7323TIP3    H143460   4.236   2.063   1.484  0.6809  0.2684  0.8708
 7323TIP3    H243461   4.175   2.189   1.428  0.0440 -0.2970  0.2684
 7324TIP3   OH243462   2.797   3.999   5.604 -0.3784 -0.0926 -0.3253
 7324TIP3    H143463   2.841   3.984   5.688 -0.2748  2.8126  0.2489
 7324TIP3    H243464   2.856   4.058   5.556 -2.0578  1.1650 -0.9281
 7325TIP3   OH243465   3.537   1.525   1.366 -0.3549 -0.1251  0.4308
 7325TIP3    H143466   3.538   1.486   1.454  1.5601 -0.0278  0.5035
 7325TIP3    H243467   3.486   1.605   1.375 -0.0459 -0.0349  1.5176
 7326TIP3   OH243468   0.706   3.767  16.647  0.8302  0.3638  0.1444
 7326TIP3    H143469   0.710   3.676  16.678 -0.3708 -0.8712 -2.9207
 7326TIP3    H243470   0.793   3.783  16.611  1.1995  0.6477  1.1276
 7327TIP3   OH243471   6.641   3.220  14.776 -0.5846 -0.0338 -0.0466
 7327TIP3    H143472   6.610   3.181  14.858  0.0843 -0.1307  0.1692
 7327TIP3    H243473   6.591   3.301  14.767  0.6238  0.9472  1.4286
 7328TIP3   OH243474   2.622   2.727   6.068 -0.2350  0.4844 -0.0973
 7328TIP3    H143475   2.601   2.746   6.159  1.2781 -0.0536  0.3871
 7328TIP3    H243476   2.537   2.716   6.025 -0.9500 -0.8744  1.5852
 7329TIP3   OH243477   1.719   6.080  14.847  0.0605  0.0635  0.8987
 7329TIP3    H143478   1.688   5.993  14.871 -0.1528  0.0545  0.5987
 7329TIP3    H243479   1.810   6.067  14.822 -0.1799 -0.1992  0.1456
 7330TIP3   OH243480   0.194   0.793   5.070  0.0529  0.4364 -0.1191
 7330TIP3    H143481   0.211   0.710   5.114  1.4656 -0.0344 -1.4514
 7330TIP3    H243482   0.217   0.860   5.134  1.8928 -0.2262 -0.0419
 7331TIP3   OH243483   6.035   2.017   3.044  0.4775  0.1426 -0.0724
 7331TIP3    H143484   6.122   1.996   3.011  0.7034  2.0250 -0.8000
 7331TIP3    H243485   6.010   2.097   2.997 -1.3207  0.0679  0.6826
 7332TIP3   OH243486   6.387   4.937  13.611 -0.2824  0.0257 -0.3715
 7332TIP3    H143487   6.441   4.978  13.543  0.7173 -2.7373 -1.3747
 7332TIP3    H243488   6.418   4.847  13.615 -1.3809 -0.3178  2.7265
 7333TIP3   OH243489   3.916   0.870  16.977  0.0247 -0.7138 -0.8135
 7333TIP3    H143490   3.895   0.896  16.888  0.3252 -3.4408 -1.7728
 7333TIP3    H243491   3.832   0.848  17.017 -0.4318  2.7574  0.5171
 7334TIP3   OH243492   6.129   5.324  10.973  0.9014  0.2574  0.5396
 7334TIP3    H143493   6.123   5.302  10.880 -1.1725  1.6338  0.2697
 7334TIP3    H243494   6.167   5.411  10.974 -1.3328  1.3158  0.7184
 7335TIP3   OH243495   6.070   0.438   2.394  0.0303 -0.2603  0.4077
 7335TIP3    H143496   6.047   0.385   2.471 -0.7053 -1.6421 -0.6971
 7335TIP3    H243497   6.127   0.507   2.428  0.0591 -1.0664  2.1198
 7336TIP3   OH243498   0.267   6.656  11.634 -0.3025  0.1039 -0.2532
 7336TIP3    H143499   0.209   6.728  11.659 -1.1614 -0.1305 -1.4608
 7336TIP3    H243500   0.315   6.689  11.558  0.9394  0.1792  0.5414
 7337TIP3   OH243501   6.358   3.204   1.943 -0.3424  0.1992  0.4300
 7337TIP3    H143502   6.369   3.188   2.036 -0.5095 -0.0345  0.4075
 7337TIP3    H243503   6.267   3.181   1.924 -0.1595 -0.2783  0.1020
 7338TIP3   OH243504   1.816   2.332  15.666  0.3701 -0.2097  0.1879
 7338TIP3    H143505   1.837   2.425  15.661 -0.1831 -0.0534  0.6076
 7338TIP3    H243506   1.769   2.323  15.748 -0.6779 -0.6323 -0.4356
 7339TIP3   OH243507   2.327   5.726  10.860  0.4427 -0.5198  0.4254
 7339TIP3    H143508   2.279   5.643  10.854  1.7858 -1.1986 -1.8685
 7339TIP3    H243509   2.416   5.705  10.834  1.0400  1.4923  0.6744
 7340TIP3   OH243510   1.448   0.262  14.323 -0.0720  0.2059  0.0892
 7340TIP3    H143511   1.507   0.259  14.398 -1.0435  0.2830  0.8670
 7340TIP3    H243512   1.493   0.319  14.260  0.3055  0.9308  0.9973
 7341TIP3   OH243513   0.292   2.696   6.447  0.4879  0.0699 -0.1739
 7341TIP3    H143514   0.221   2.635   6.464 -0.2885  0.4008 -1.9860
 7341TIP3    H243515   0.252   2.783   6.458  1.0640  0.2631  0.4523
 7342TIP3   OH243516   4.119   2.286   4.387  0.2097  0.1618  0.1439
 7342TIP3    H143517   4.102   2.370   4.428  2.9655  0.0305  1.8186
 7342TIP3    H243518   4.130   2.225   4.460 -0.3622 -1.3746 -0.9977
 7343TIP3   OH243519   5.421   6.598   1.663  0.1562  0.1192 -0.0879
 7343TIP3    H143520   5.507   6.561   1.685 -0.1443 -0.1539  0.6577
 7343TIP3    H243521   5.359   6.542   1.709 -0.4432  0.1596 -0.8313
 7344TIP3   OH243522   2.705   3.985  10.272 -0.3380  0.1236  0.2111
 7344TIP3    H143523   2.725   4.077  10.288  0.2648 -0.0339  0.3936
 7344TIP3    H243524   2.695   3.947  10.360  0.9373 -0.3059  0.1924
 7345TIP3   OH243525   4.472   4.528  12.396 -0.6140  0.2978  0.4204
 7345TIP3    H143526   4.495   4.489  12.481 -2.2525 -1.4411  0.1324
 7345TIP3    H243527   4.389   4.572  12.412 -1.1833 -0.4533 -0.3494
 7346TIP3   OH243528   0.569   1.776  16.766  0.2729 -0.3283 -0.3310
 7346TIP3    H143529   0.598   1.793  16.676  0.3594 -0.8345 -0.4038
 7346TIP3    H243530   0.480   1.742  16.757 -0.0576  0.4682 -0.1600
 7347TIP3   OH243531   2.228   3.155   4.193 -0.0738  0.0141 -0.3110
 7347TIP3    H143532   2.239   3.117   4.280  2.1096  1.4538  0.1320
 7347TIP3    H243533   2.188   3.240   4.208  0.6800  0.4425 -0.6420
 7348TIP3   OH243534   1.564   4.419  14.751 -0.3589  0.1666  0.5681
 7348TIP3    H143535   1.569   4.337  14.801  1.8775 -0.2134 -0.2000
 7348TIP3    H243536   1.578   4.488  14.816  0.2677 -0.2021  0.8264
 7349TIP3   OH243537   4.110   3.156   5.803 -0.4679 -0.4536  0.1004
 7349TIP3    H143538   4.148   3.069   5.789 -0.8059 -0.7441  0.8868
 7349TIP3    H243539   4.148   3.186   5.886  0.3021  0.5255 -0.5834
 7350TIP3   OH243540   6.741   4.011   0.020 -0.0498  0.2680  0.7729
 7350TIP3    H143541   6.794   4.041   0.094 -0.7099 -0.8459  1.7493
 7350TIP3    H243542   6.650   4.025   0.049 -0.3156  0.1962 -0.0033
 7351TIP3   OH243543   1.664   6.564  11.726  0.0454 -0.7460  0.7063
 7351TIP3    H143544   1.650   6.579  11.632  0.3692 -1.2716  0.5658
 7351TIP3    H243545   1.734   6.624  11.750 -0.8587  0.2742  0.9013
 7352TIP3   OH243546   4.249   4.214  11.982 -0.3261  0.0109  0.1059
 7352TIP3    H143547   4.246   4.296  12.030 -1.2401 -0.7069  1.3376
 7352TIP3    H243548   4.342   4.192  11.977 -0.1318  0.7122  0.4580
 7353TIP3   OH243549   6.774   2.641   0.791 -0.3303 -0.1861 -0.3638
 7353TIP3    H143550   6.749   2.554   0.762  1.4037 -0.5546 -0.8154
 7353TIP3    H243551   6.815   2.627   0.877  0.6898  0.0627 -0.7966
 7354TIP3   OH243552   0.157   1.285   5.825  0.5061  0.3024 -0.4919
 7354TIP3    H143553   0.182   1.244   5.908  1.7883  1.1921 -0.4039
 7354TIP3    H243554   0.233   1.337   5.801 -0.2271  0.8301 -1.7431
 7355TIP3   OH243555   3.030   3.766  13.496 -0.1391  0.0160 -0.1325
 7355TIP3    H143556   2.941   3.743  13.468 -0.2283  0.7490 -0.4792
 7355TIP3    H243557   3.059   3.691  13.548 -1.0492 -0.1323  0.1863
 7356TIP3   OH243558   5.984   0.901  16.240 -0.1518  0.1463 -0.2631
 7356TIP3    H143559   5.980   0.844  16.164  0.4813 -0.0327 -0.1737
 7356TIP3    H243560   5.931   0.977  16.217 -0.2350 -0.0566 -0.7501
 7357TIP3   OH243561   1.589   0.608   4.441  0.0453  0.2131  0.2134
 7357TIP3    H143562   1.563   0.680   4.497 -0.3359  0.5177 -0.3487
 7357TIP3    H243563   1.608   0.649   4.356 -0.7175 -0.4092 -0.2709
 7358TIP3   OH243564   4.979   3.778   2.821 -0.4196  0.4886  0.2094
 7358TIP3    H143565   4.941   3.708   2.873 -1.2236 -0.0437 -1.0457
 7358TIP3    H243566   4.969   3.749   2.730 -0.7734  2.2190 -0.3447
 7359TIP3   OH243567   4.683   2.886   2.851  0.2477 -0.1646  0.5393
 7359TIP3    H143568   4.768   2.848   2.828 -1.0378 -2.1118 -1.4659
 7359TIP3    H243569   4.665   2.854   2.939  1.6727  0.5103  1.1076
 7360TIP3   OH243570   2.770   0.031   2.151  0.0718 -0.4651 -0.6936
 7360TIP3    H143571   2.737   0.008   2.238 -1.9366 -0.6245 -1.4559
 7360TIP3    H243572   2.791   0.124   2.156  0.6984 -0.6475  0.1687
 7361TIP3   OH243573   1.237   5.464   2.719 -0.4815  0.0780 -0.5009
 7361TIP3    H143574   1.222   5.475   2.813 -1.9534  1.2590 -0.8475
 7361TIP3    H243575   1.213   5.373   2.702  1.1522 -0.5887  0.4758
 7362TIP3   OH243576   3.231   5.071  10.610 -0.5903 -0.3206  0.9624
 7362TIP3    H143577   3.219   4.990  10.560 -1.0972  0.1850  0.2301
 7362TIP3    H243578   3.268   5.132  10.547 -0.2650  0.0338  1.4952
 7363TIP3   OH243579   3.448   3.848  15.255 -0.1686  0.0687  0.4670
 7363TIP3    H143580   3.388   3.922  15.252 -0.5613 -0.1889  1.6108
 7363TIP3    H243581   3.513   3.873  15.320  0.1361 -0.2754  0.2995
 7364TIP3   OH243582   6.447   6.010  13.853  0.1404 -0.5168  0.6519
 7364TIP3    H143583   6.478   6.007  13.762  1.0169 -3.6718  0.9148
 7364TIP3    H243584   6.526   6.028  13.904  0.1523 -1.3001  0.9168
 7365TIP3   OH243585   2.238   3.562  16.184  0.1117  0.1460 -0.6112
 7365TIP3    H143586   2.231   3.632  16.249  1.9614 -0.8118  0.6897
 7365TIP3    H243587   2.148   3.538  16.165 -0.4951 -0.2023  2.3431
 7366TIP3   OH243588   3.453   2.811  14.959  0.5595  0.3083  0.7837
 7366TIP3    H143589   3.367   2.778  14.933  0.5191 -1.7163  3.0894
 7366TIP3    H243590   3.486   2.855  14.881 -1.5593 -0.9215 -0.9515
 7367TIP3   OH243591   5.874   6.734   0.209 -0.1742 -0.3974 -0.7039
 7367TIP3    H143592   5.862   6.684   0.129  0.1352  0.3067 -1.2061
 7367TIP3    H243593   5.969   6.750   0.213 -0.0604 -1.2254  0.3034
 7368TIP3   OH243594   1.344   6.751   4.247  0.0768 -0.1967  0.3054
 7368TIP3    H143595   1.297   6.704   4.317 -1.8588  0.4184 -0.5090
 7368TIP3    H243596   1.330   6.844   4.267  0.7312  0.0023 -0.1240
 7369TIP3   OH243597   2.438   5.772   5.715  0.0987  0.6134  0.0234
 7369TIP3    H143598   2.470   5.830   5.645  0.5909  0.0559 -0.2298
 7369TIP3    H243599   2.429   5.829   5.791  0.2829  1.0820 -0.2991
 7370TIP3   OH243600   6.162   0.083  16.895 -0.2494  0.6070  0.3572
 7370TIP3    H143601   6.221   0.091  16.970  0.3547  1.1153 -0.1646
 7370TIP3    H243602   6.209   0.027  16.833 -0.7260  0.2309  0.3270
 7371TIP3   OH243603   0.965   1.397   4.353 -0.4417  0.3388 -0.0986
 7371TIP3    H143604   0.963   1.350   4.269  1.0237 -3.1044  1.5804
 7371TIP3    H243605   1.051   1.439   4.355 -0.2865  0.0283 -0.1447
 7372TIP3   OH243606   6.123   4.188   3.861  0.1946  0.3257  0.0763
 7372TIP3    H143607   6.129   4.197   3.766  1.6967 -1.4882 -0.0689
 7372TIP3    H243608   6.039   4.145   3.875  1.1178 -1.8986 -0.7293
 7373TIP3   OH243609   0.963   0.017  13.778 -0.2430  0.3743  0.2559
 7373TIP3    H143610   0.969   0.107  13.810  1.1270  0.6181 -0.6018
 7373TIP3    H243611   1.014   0.017  13.697  0.5111 -1.3757  0.6906
 7374TIP3   OH243612   6.467   1.642  15.550 -0.0694  0.1076  0.2012
 7374TIP3    H143613   6.512   1.722  15.577 -2.5977  1.0841  1.9019
 7374TIP3    H243614   6.442   1.599  15.632 -1.7258 -0.6257 -0.6381
 7375TIP3   OH243615   3.374   0.434  17.118  0.0962 -0.2506 -0.3560
 7375TIP3    H143616   3.403   0.515  17.077  0.6457 -0.5881 -0.6372
 7375TIP3    H243617   3.409   0.365  17.062 -1.3820 -0.6686 -0.7939
 7376TIP3   OH243618   0.484   1.380  14.388  0.0316  0.7739 -0.6519
 7376TIP3    H143619   0.520   1.317  14.326  2.4632  1.0495  0.3287
 7376TIP3    H243620   0.533   1.461  14.371  0.3262  1.0270  1.1444
 7377TIP3   OH243621   0.667   4.427   3.588 -0.4316 -0.1079 -0.2104
 7377TIP3    H143622   0.575   4.440   3.562 -0.5798  0.1237  0.3954
 7377TIP3    H243623   0.717   4.459   3.514 -0.8368 -1.3624 -1.0559
 7378TIP3   OH243624   1.614   5.416  17.032  0.1627  0.4967  0.2970
 7378TIP3    H143625   1.640   5.506  17.050  0.3942  0.0842  2.2252
 7378TIP3    H243626   1.683   5.382  16.975 -1.4806  2.3715 -3.1747
 7379TIP3   OH243627   0.906   5.637  12.490  0.2669  0.9210  0.0593
 7379TIP3    H143628   0.834   5.579  12.513  0.1130  2.1556  3.1806
 7379TIP3    H243629   0.975   5.579  12.458 -0.8581 -0.6516  0.3714
 7380TIP3   OH243630   5.081   0.246  17.006  0.1108 -0.6918  0.2728
 7380TIP3    H143631   5.071   0.166  17.058 -0.0036 -2.0981 -1.7785
 7380TIP3    H243632   5.160   0.231  16.954 -1.1377 -0.5057 -1.7889
 7381TIP3   OH243633   0.879   2.552  16.862 -0.0082  0.5933  0.3288
 7381TIP3    H143634   0.882   2.458  16.848  0.4806  0.5394  0.7742
 7381TIP3    H243635   0.970   2.581  16.851 -0.0912  0.9582  0.5709
 7382TIP3   OH243636   0.604   1.155   2.608 -0.2444 -0.0400  0.3859
 7382TIP3    H143637   0.509   1.159   2.595 -0.3926  1.4976  1.6544
 7382TIP3    H243638   0.618   1.077   2.662 -0.8195 -0.1568  0.3678
 7383TIP3   OH243639   3.163   2.273  14.557  0.1756 -0.1226  0.7297
 7383TIP3    H143640   3.192   2.320  14.479 -1.1432  1.8885  1.3798
 7383TIP3    H243641   3.243   2.237  14.595  0.7750 -1.9322 -1.9583
 7384TIP3   OH243642   0.536   3.741  12.454  0.0908 -0.0766  0.2997
 7384TIP3    H143643   0.579   3.794  12.387  0.8678 -1.7776 -0.5899
 7384TIP3    H243644   0.562   3.782  12.537 -0.1303  1.4970 -0.3759
 7385TIP3   OH243645   1.511   3.335  13.413  0.1489  0.3795  0.6530
 7385TIP3    H143646   1.506   3.409  13.352  0.9970  0.1148  0.2503
 7385TIP3    H243647   1.454   3.360  13.486  0.4110  1.4254  0.5150
 7386TIP3   OH243648   1.967   0.473  16.739 -0.2182 -0.2956 -0.3074
 7386TIP3    H143649   1.938   0.561  16.717 -0.4582 -0.1186  0.6483
 7386TIP3    H243650   2.048   0.461  16.690  0.2856  0.8005  0.2154
 7387TIP3   OH243651   0.881   3.996  11.989 -0.3593 -0.5832  0.0529
 7387TIP3    H143652   0.877   4.075  11.936 -0.8685  0.1821  1.1845
 7387TIP3    H243653   0.801   3.948  11.968 -1.4804  0.5979  1.4072
 7388TIP3   OH243654   6.668   1.808   2.857 -0.3330  0.6728  0.1328
 7388TIP3    H143655   6.749   1.774   2.820 -1.0884 -1.6988  0.4719
 7388TIP3    H243656   6.616   1.836   2.782 -0.0751  0.0997 -0.2615
 7389TIP3   OH243657   2.501   2.851   4.088  0.1315 -0.8765 -0.2809
 7389TIP3    H143658   2.573   2.864   4.026  1.7436 -2.2340  1.2069
 7389TIP3    H243659   2.472   2.940   4.109 -0.3962 -0.3697 -2.8257
 7390TIP3   OH243660   6.591   5.164   1.464 -0.1893  0.0085  0.4971
 7390TIP3    H143661   6.571   5.122   1.548 -1.7342  0.5137  0.4093
 7390TIP3    H243662   6.604   5.256   1.486 -1.4069  0.2971  0.1127
 7391TIP3   OH243663   1.143   0.156  12.167 -0.1388 -0.0633  0.0993
 7391TIP3    H143664   1.129   0.251  12.163  1.0883  0.1635  0.6523
 7391TIP3    H243665   1.127   0.126  12.077 -0.1825  0.7213 -0.1669
 7392TIP3   OH243666   6.321   3.843   3.701 -0.1691 -0.6606 -0.2908
 7392TIP3    H143667   6.273   3.855   3.782 -1.0992 -1.0950 -0.7612
 7392TIP3    H243668   6.413   3.841   3.727 -0.3094  1.2979  0.5047
 7393TIP3   OH243669   2.699   2.574   5.760 -0.0583 -0.7673 -1.0098
 7393TIP3    H143670   2.635   2.565   5.831  1.8973 -2.1301  0.6791
 7393TIP3    H243671   2.660   2.527   5.687 -0.5095 -2.6395  0.3662
 7394TIP3   OH243672   6.497   3.822  16.919  0.0834  0.2178 -0.5881
 7394TIP3    H143673   6.447   3.841  16.998 -1.3866  0.6809 -1.5884
 7394TIP3    H243674   6.464   3.884  16.854  2.2433  0.7994 -1.2020
 7395TIP3   OH243675   2.327   3.285   5.871  0.2746 -0.5966  0.3469
 7395TIP3    H143676   2.414   3.314   5.900 -0.5376  0.3504  1.9368
 7395TIP3    H243677   2.334   3.282   5.775  2.0465 -0.5224  0.4402
 7396TIP3   OH243678   1.203   1.257  15.577  0.3702  0.1405 -0.3020
 7396TIP3    H143679   1.292   1.245  15.546  0.4588  0.0234 -0.0084
 7396TIP3    H243680   1.179   1.172  15.614  0.6871  0.6003  0.9949
 7397TIP3   OH243681   0.263   1.339  16.554 -0.4678  0.4829 -0.5745
 7397TIP3    H143682   0.271   1.392  16.475  0.8272  2.4423  0.7578
 7397TIP3    H243683   0.212   1.394  16.614  0.9112  0.2749  0.8644
 7398TIP3   OH243684   1.951   0.745  16.673 -0.3068 -0.1357 -0.2048
 7398TIP3    H143685   1.882   0.811  16.666  0.9103  1.1128 -1.1821
 7398TIP3    H243686   2.032   0.796  16.678  0.6659 -1.5601 -0.7736
 7399TIP3   OH243687   2.188   4.816   3.295 -0.0491 -0.2346 -0.0188
 7399TIP3    H143688   2.125   4.750   3.267  0.9210 -0.7366 -1.1271
 7399TIP3    H243689   2.194   4.877   3.221 -0.7913  1.0282  0.9133
 7400TIP3   OH243690   4.809   5.785  12.106 -0.0513  0.1738  0.7224
 7400TIP3    H143691   4.851   5.736  12.036 -0.3571 -0.1969  0.7928
 7400TIP3    H243692   4.859   5.763  12.184  0.3552  0.6702  0.6090
 7401TIP3   OH243693   2.781   4.537  15.103 -0.0264 -0.1434 -0.3722
 7401TIP3    H143694   2.713   4.486  15.058 -0.9583 -0.4495  1.3250
 7401TIP3    H243695   2.733   4.594  15.163  1.1962 -0.1718  0.6805
 7402TIP3   OH243696   0.178   2.470   5.701 -0.0843  0.2357 -0.3353
 7402TIP3    H143697   0.223   2.506   5.624  2.0440 -2.5545 -0.5821
 7402TIP3    H243698   0.098   2.431   5.666  0.7373 -0.7806 -1.1812
 7403TIP3   OH243699   5.489   2.176   6.128  0.3458  0.0061  0.1401
 7403TIP3    H143700   5.478   2.139   6.215  0.3054  1.3510  0.7399
 7403TIP3    H243701   5.416   2.238   6.119  0.8960  0.5929 -0.4540
 7404TIP3   OH243702   2.854   4.978   4.626 -0.0258 -0.1262 -0.0860
 7404TIP3    H143703   2.841   4.910   4.692 -0.2852  1.0821  1.1575
 7404TIP3    H243704   2.793   5.047   4.650 -1.1408 -0.1896 -2.4265
 7405TIP3   OH243705   5.028   5.469  17.079  0.2160 -0.0978 -0.3725
 7405TIP3    H143706   5.119   5.471  17.052  0.9585 -2.6258  1.4987
 7405TIP3    H243707   4.989   5.398  17.027 -0.5058  0.4827 -0.6415
 7406TIP3   OH243708   3.897   6.052   3.816  0.8167 -0.1100 -0.3425
 7406TIP3    H143709   3.908   6.127   3.874  0.7953  0.2915 -0.8595
 7406TIP3    H243710   3.804   6.031   3.821  1.0767 -1.1081  1.0379
 7407TIP3   OH243711   6.023   1.199  15.204  0.3977  0.2794  0.1811
 7407TIP3    H143712   6.101   1.251  15.224  0.0724  0.8018  0.1116
 7407TIP3    H243713   5.958   1.264  15.175  0.7642 -0.3840 -2.4165
 7408TIP3   OH243714   0.251   6.669  17.011  0.1496  0.3187  0.0711
 7408TIP3    H143715   0.163   6.687  17.045  0.1335 -0.9725  0.8031
 7408TIP3    H243716   0.277   6.750  16.968 -1.5334  0.6308 -0.4624
 7409TIP3   OH243717   4.816   0.105   0.267 -0.2848 -0.0844 -0.0356
 7409TIP3    H143718   4.882   0.093   0.336  0.9203 -0.6984 -1.2479
 7409TIP3    H243719   4.867   0.110   0.186 -1.6051  1.5118 -0.8209
 7410TIP3   OH243720   0.866   1.964  17.277 -0.3558 -0.0373 -0.4012
 7410TIP3    H143721   0.942   2.005  17.237 -1.0463  0.3957 -1.3054
 7410TIP3    H243722   0.884   1.870  17.271  0.3236  0.0721 -0.1539
 7411TIP3   OH243723   3.066   3.992  15.779  0.2112  0.0258 -0.6318
 7411TIP3    H143724   3.108   4.053  15.718 -0.3989  1.5588  0.4220
 7411TIP3    H243725   3.138   3.961  15.835  0.3565  0.6140 -0.4905
 7412TIP3   OH243726   3.644   6.183  14.127 -0.1608  0.0621  0.4304
 7412TIP3    H143727   3.718   6.129  14.158  2.2122  2.2432 -1.0242
 7412TIP3    H243728   3.622   6.145  14.042 -0.0825 -0.0240  0.4475
 7413TIP3   OH243729   3.527   6.015  12.723  1.1346  0.5266 -0.6474
 7413TIP3    H143730   3.578   6.066  12.660 -0.2845 -0.0921 -2.4046
 7413TIP3    H243731   3.436   6.034  12.701  0.5845 -1.2383 -0.0969
 7414TIP3   OH243732   0.194   4.126  12.443 -0.4382 -0.2615  0.4197
 7414TIP3    H143733   0.282   4.158  12.464 -0.4258  1.5795 -2.0197
 7414TIP3    H243734   0.205   4.032  12.432  0.4905 -0.6181  3.2890
 7415TIP3   OH243735   6.362   0.118  15.439 -0.7866 -0.0669  0.1740
 7415TIP3    H143736   6.376   0.108  15.345  2.0542 -0.2755  0.5185
 7415TIP3    H243737   6.418   0.191  15.464  0.2514 -1.3807  1.9878
 7416TIP3   OH243738   6.514   2.943   2.093  0.5255 -0.1057  0.1578
 7416TIP3    H143739   6.583   2.969   2.032 -2.0842  1.4130 -2.3990
 7416TIP3    H243740   6.522   2.848   2.100  1.9563 -0.1216 -1.2129
 7417TIP3   OH243741   0.512   0.622   2.420  0.3312  0.3840  0.1543
 7417TIP3    H143742   0.528   0.529   2.435  1.8146  0.3690 -1.1831
 7417TIP3    H243743   0.595   0.654   2.384 -0.3108  2.1160  0.1536
 7418TIP3   OH243744   2.756   0.977  12.283  0.0096 -0.6025  0.6163
 7418TIP3    H143745   2.825   0.916  12.309 -0.1679 -1.0076  0.1503
 7418TIP3    H243746   2.681   0.953  12.336  0.0454 -0.5603  0.6860
 7419TIP3   OH243747   2.339   0.087  12.877  0.3332 -0.2683  0.0112
 7419TIP3    H143748   2.333   0.171  12.922  0.8374  0.3091 -0.9660
 7419TIP3    H243749   2.427   0.055  12.899  0.8565  0.3482 -1.0875
 7420TIP3   OH243750   1.847   3.557   3.861 -0.0008  0.7445  0.4678
 7420TIP3    H143751   1.782   3.541   3.930  0.1612  2.2929  1.0162
 7420TIP3    H243752   1.800   3.610   3.797  0.5432  1.3373  0.5595
 7421TIP3   OH243753   6.458   0.972  16.879 -0.3851 -0.4567 -0.2746
 7421TIP3    H143754   6.473   0.899  16.819 -1.6727 -0.7567 -0.2702
 7421TIP3    H243755   6.516   1.041  16.848 -1.5014 -0.3607 -2.3369
 7422TIP3   OH243756   4.408   3.279   4.273  0.0126 -0.1810 -0.1439
 7422TIP3    H143757   4.322   3.239   4.287 -0.1764 -0.6715 -2.3588
 7422TIP3    H243758   4.392   3.351   4.211  1.4075 -1.5013 -2.1604
 7423TIP3   OH243759   5.751   4.647   2.754 -0.1303 -0.3432  0.2318
 7423TIP3    H143760   5.665   4.658   2.794  0.3704  0.1543  1.2230
 7423TIP3    H243761   5.809   4.627   2.828  0.6108 -0.6092 -0.4108
 7424TIP3   OH243762   1.862   6.043   0.446  0.1475  0.1893 -0.4067
 7424TIP3    H143763   1.836   6.090   0.367  0.1029 -1.1373 -1.2069
 7424TIP3    H243764   1.811   6.084   0.516  0.2805  1.4636 -1.0330
 7425TIP3   OH243765   1.797   3.130  12.468 -0.5044 -0.2927 -0.1519
 7425TIP3    H143766   1.773   3.221  12.451  0.6993  0.0117 -0.3486
 7425TIP3    H243767   1.752   3.109  12.550  0.4491  1.0254  0.7747
 7426TIP3   OH243768   4.984   2.619  16.731  0.5750 -0.6114  0.3483
 7426TIP3    H143769   4.991   2.708  16.765  0.2872 -0.5871  0.3493
 7426TIP3    H243770   4.909   2.582  16.777  1.0769 -1.0650  0.8080
 7427TIP3   OH243771   0.006   0.552  10.449  0.0561 -0.2291 -0.3778
 7427TIP3    H143772  -0.058   0.561  10.378 -0.0595  0.1362 -0.2350
 7427TIP3    H243773  -0.038   0.496  10.513  0.4573 -1.1789 -0.9198
 7428TIP3   OH243774   1.284   0.126  10.649 -0.0215  0.4572  0.0749
 7428TIP3    H143775   1.245   0.121  10.562  0.1678 -0.2345  0.0227
 7428TIP3    H243776   1.273   0.038  10.686  2.5690 -0.1568 -0.4158
 7429TIP3   OH243777   5.449   2.978  16.171 -0.1283 -0.6602  0.5068
 7429TIP3    H143778   5.470   2.962  16.079 -1.3652  1.1890 -0.1503
 7429TIP3    H243779   5.485   3.065  16.189 -1.0358 -0.4504  1.3796
 7430TIP3   OH243780   5.514   3.873   5.416  0.1137 -0.1140 -0.0294
 7430TIP3    H143781   5.562   3.802   5.374 -0.2949 -0.3256 -0.1405
 7430TIP3    H243782   5.462   3.831   5.484  1.6688  0.3588  1.5253
 7431TIP3   OH243783   2.794   2.503  13.956 -0.7517  0.3804  0.1448
 7431TIP3    H143784   2.701   2.493  13.975 -1.1698 -0.3911 -1.9705
 7431TIP3    H243785   2.837   2.439  14.013 -1.8116 -1.2239 -0.7595
 7432TIP3   OH243786   3.909   2.560  15.905 -0.2540  0.5899 -0.5961
 7432TIP3    H143787   3.986   2.534  15.956 -1.0566 -0.9352 -0.0752
 7432TIP3    H243788   3.848   2.593  15.971 -0.4686  0.7086 -0.8584
 7433TIP3   OH243789   3.738   0.408  16.859  0.1457 -0.4948  0.4180
 7433TIP3    H143790   3.780   0.454  16.932  2.1720 -1.4790 -0.0674
 7433TIP3    H243791   3.728   0.475  16.791  1.4401 -0.3314  0.3668
 7434TIP3   OH243792   4.696   2.432   0.254  0.0646  0.0753  0.1249
 7434TIP3    H143793   4.702   2.489   0.178 -0.6564  0.6942  0.5105
 7434TIP3    H243794   4.748   2.355   0.232 -0.2019  0.2153 -1.0095
 7435TIP3   OH243795   2.623   4.329  14.980  0.2259 -0.0346 -0.1927
 7435TIP3    H143796   2.543   4.275  14.978  0.2590 -0.0779 -1.5885
 7435TIP3    H243797   2.667   4.309  14.897  0.8897  1.1831 -0.1548
 7436TIP3   OH243798   6.117   4.543   4.877 -0.1212 -0.3151  0.0328
 7436TIP3    H143799   6.208   4.530   4.850 -0.2053 -0.2359 -0.2808
 7436TIP3    H243800   6.076   4.457   4.866 -0.0145 -0.4233  0.4476
 7437TIP3   OH243801   5.373   5.435   4.716 -0.4755 -0.3672 -0.0493
 7437TIP3    H143802   5.341   5.373   4.782  1.4936 -1.2038  0.1853
 7437TIP3    H243803   5.397   5.380   4.641 -0.4671  0.3200 -0.5619
 7438TIP3   OH243804   6.620   3.537  16.964  0.4164 -0.7892  0.6504
 7438TIP3    H143805   6.587   3.453  16.932 -2.0236  0.6758 -0.9822
 7438TIP3    H243806   6.591   3.541  17.055 -3.0629 -0.1693 -0.3294
 7439TIP3   OH243807   5.658   4.330   3.328 -0.2338  0.0137 -0.1784
 7439TIP3    H143808   5.648   4.267   3.400  3.0572 -0.5013 -0.0385
 7439TIP3    H243809   5.644   4.415   3.369 -1.8954 -0.4121  0.2375
 7440TIP3   OH243810   4.578   1.076   1.344 -0.0414 -0.8177 -0.0998
 7440TIP3    H143811   4.510   1.009   1.338 -2.0602  0.9875  1.3598
 7440TIP3    H243812   4.546   1.138   1.409  1.6611  1.6776 -1.4694
 7441TIP3   OH243813   2.517   4.663  11.561 -0.2201  0.1188 -0.0314
 7441TIP3    H143814   2.469   4.682  11.480 -2.1507 -1.7320  0.5896
 7441TIP3    H243815   2.501   4.739  11.617 -2.6321 -0.4725  0.1920
 7442TIP3   OH243816   1.289   6.078   5.482 -0.5542 -0.6395  0.3325
 7442TIP3    H143817   1.261   6.170   5.485  0.8361 -0.2104  1.4151
 7442TIP3    H243818   1.229   6.033   5.541 -1.6447 -0.5709 -0.6891
 7443TIP3   OH243819   0.252   1.824   0.982  0.0094  0.3452  0.0029
 7443TIP3    H143820   0.171   1.774   0.993  1.2361 -1.5887  1.0269
 7443TIP3    H243821   0.259   1.877   1.061 -1.1307  1.9901 -0.9362
 7444TIP3   OH243822   0.978   6.274   4.656 -0.0481  0.1158  0.3766
 7444TIP3    H143823   0.935   6.317   4.582 -1.8390  1.8684  2.2683
 7444TIP3    H243824   1.071   6.295   4.646 -0.3683  1.0693 -0.9000
 7445TIP3   OH243825   5.523   6.467  11.550 -0.6985 -0.0277  0.0770
 7445TIP3    H143826   5.593   6.408  11.576 -1.0278 -1.2817 -1.6814
 7445TIP3    H243827   5.559   6.516  11.476 -1.4834 -0.3026 -0.5058
 7446TIP3   OH243828   1.677   1.817   1.136 -0.3100 -0.3100  0.5188
 7446TIP3    H143829   1.717   1.785   1.216  1.1127 -1.2308 -0.5169
 7446TIP3    H243830   1.592   1.773   1.132 -0.4461 -0.1561  1.5654
 7447TIP3   OH243831   2.572   4.687   2.477 -0.1040  0.3171  0.8206
 7447TIP3    H143832   2.541   4.707   2.388  2.0724 -1.4393 -0.4135
 7447TIP3    H243833   2.494   4.700   2.532 -1.7696  0.5845 -1.4301
 7448TIP3   OH243834   2.236   3.626   4.074 -1.0093 -0.3491  0.1653
 7448TIP3    H143835   2.261   3.660   4.160 -1.4407  0.3265  0.0352
 7448TIP3    H243836   2.188   3.698   4.034 -1.9005 -1.1006 -0.1448
 7449TIP3   OH243837   3.062   5.671  12.481  0.3174  0.5390  0.5996
 7449TIP3    H143838   3.066   5.736  12.551  0.6575  0.1884  0.9081
 7449TIP3    H243839   3.011   5.713  12.412  0.0594  0.9197  1.0204
 7450TIP3   OH243840   3.498   1.739  13.849 -0.6286  0.4017 -0.3117
 7450TIP3    H143841   3.436   1.804  13.817  0.3953  2.0752  0.8838
 7450TIP3    H243842   3.553   1.718  13.774 -1.0305  0.8588 -0.7347
 7451TIP3   OH243843   3.117   2.047   3.731  0.5483  0.3897 -0.3479
 7451TIP3    H143844   3.163   2.105   3.671 -0.2229 -0.4956 -1.8369
 7451TIP3    H243845   3.143   1.959   3.705 -0.9694 -0.0722 -0.3769
 7452TIP3   OH243846   0.254   4.928  14.541 -0.0533 -0.6891 -0.6997
 7452TIP3    H143847   0.165   4.894  14.549 -0.5701  0.7320 -0.0096
 7452TIP3    H243848   0.249   4.992  14.469  0.5251 -0.9203 -0.9574
 7453TIP3   OH243849   0.740   1.092  14.846  0.3437 -0.0628 -0.1805
 7453TIP3    H143850   0.672   1.133  14.793  0.2807 -1.0740 -0.9073
 7453TIP3    H243851   0.705   1.006  14.868  1.5671 -0.8171 -0.9993
 7454TIP3   OH243852   2.420   5.561  11.699 -0.4399  0.9849  0.5816
 7454TIP3    H143853   2.335   5.522  11.677  0.5437 -1.0617  0.1942
 7454TIP3    H243854   2.452   5.598  11.617 -1.0223  1.9650  0.7771
 7455TIP3   OH243855   5.303   5.724   0.513  0.4211  0.3870  0.3972
 7455TIP3    H143856   5.315   5.804   0.461  1.4903  0.7190  1.1173
 7455TIP3    H243857   5.391   5.688   0.522  0.2397  0.2746  1.8639
 7456TIP3   OH243858   5.742   2.232   2.703 -0.3204  0.3996 -0.3053
 7456TIP3    H143859   5.718   2.186   2.784  0.0256  1.0222  0.1582
 7456TIP3    H243860   5.674   2.299   2.694  0.1473  0.9123 -0.0406
 7457TIP3   OH243861   4.028   0.609  16.144  0.4420 -0.0955 -0.0247
 7457TIP3    H143862   3.990   0.521  16.148 -0.2323  0.1694 -0.4811
 7457TIP3    H243863   4.122   0.594  16.152  0.5962 -1.1200 -2.6908
 7458TIP3   OH243864   3.450   3.026   2.498  0.4758 -0.0729 -0.0379
 7458TIP3    H143865   3.461   2.969   2.574  1.0404  0.0421 -0.0244
 7458TIP3    H243866   3.415   3.107   2.534 -0.3479 -0.4094 -0.0600
 7459TIP3   OH243867   2.764   1.755   5.135  0.2177 -0.1954 -0.6327
 7459TIP3    H143868   2.750   1.811   5.059 -2.5299 -1.0057 -0.8439
 7459TIP3    H243869   2.859   1.750   5.144  0.5888  2.1913 -2.2733
 7460TIP3   OH243870   5.055   0.922   6.054 -0.0483 -0.3930  0.1757
 7460TIP3    H143871   5.089   0.901   6.141  0.9442  1.0814  0.1832
 7460TIP3    H243872   4.961   0.930   6.066 -0.0361 -1.1488  0.8952
 7461TIP3   OH243873   5.617   6.140   3.118 -0.8001  0.6281  0.2922
 7461TIP3    H143874   5.696   6.149   3.065 -1.2248 -1.4869 -0.7854
 7461TIP3    H243875   5.643   6.169   3.205  1.7459 -1.7752  0.4558
 7462TIP3   OH243876   1.977   1.277   4.932 -0.0661  0.5947  0.6995
 7462TIP3    H143877   1.955   1.337   4.861  1.5729  0.2113 -0.2026
 7462TIP3    H243878   1.990   1.334   5.008 -0.0328  1.2190  0.2394
 7463TIP3   OH243879   5.327   5.657   5.510 -0.1847  0.5389  0.2939
 7463TIP3    H143880   5.385   5.731   5.525  0.2070  0.3009 -0.0179
 7463TIP3    H243881   5.384   5.587   5.479 -0.5571  0.1205  0.5310
 7464TIP3   OH243882   1.944   4.884  13.290  0.0023 -0.2591  0.1666
 7464TIP3    H143883   1.885   4.890  13.365 -0.7854  0.0855 -0.4584
 7464TIP3    H243884   1.960   4.790  13.279 -1.5251 -0.4802 -0.4509
 7465TIP3   OH243885   6.232   3.973   4.127 -0.4013  0.3135  0.2202
 7465TIP3    H143886   6.283   3.907   4.173 -0.5809 -0.9313 -1.2577
 7465TIP3    H243887   6.167   4.003   4.191  0.7645  0.3111  1.4291
 7466TIP3   OH243888   4.482   4.348  13.341  0.4043 -0.2636 -0.7143
 7466TIP3    H143889   4.551   4.281  13.341  0.4886 -0.1908 -1.4521
 7466TIP3    H243890   4.420   4.317  13.275 -0.9940 -1.0426  0.8926
 7467TIP3   OH243891   5.036   6.705   4.135  0.8533  0.1977 -0.2344
 7467TIP3    H143892   4.992   6.789   4.126 -0.9051 -0.7084 -0.4654
 7467TIP3    H243893   5.058   6.679   4.045  1.0883  0.2355 -0.1905
 7468TIP3   OH243894   2.192   3.315  16.643  0.0474 -0.2953  0.1631
 7468TIP3    H143895   2.139   3.258  16.587  2.7428 -1.1079 -1.7710
 7468TIP3    H243896   2.236   3.255  16.704  2.1066 -0.3143 -1.2125
 7469TIP3   OH243897   0.768   5.207  16.907  0.2010 -0.0756  0.0144
 7469TIP3    H143898   0.783   5.183  16.998  0.4174 -0.3796 -0.1003
 7469TIP3    H243899   0.856   5.222  16.871  0.2563 -1.7641 -0.6301
 7470TIP3   OH243900   1.936   4.062   4.804 -0.4083  0.2860 -0.2064
 7470TIP3    H143901   1.870   4.121   4.767  1.7338  3.1775  0.1792
 7470TIP3    H243902   1.994   4.043   4.730 -0.6208 -0.7138 -0.1259
 7471TIP3   OH243903   1.557   2.736   4.901 -0.5577 -0.2362  0.3626
 7471TIP3    H143904   1.601   2.741   4.986 -1.2399  1.0466  0.6596
 7471TIP3    H243905   1.628   2.736   4.837  0.0271 -2.4288  0.9241
 7472TIP3   OH243906   0.214   1.865   0.611  0.5242  0.7544 -0.1165
 7472TIP3    H143907   0.260   1.925   0.669  1.1716  0.4534 -0.3086
 7472TIP3    H243908   0.211   1.910   0.527 -1.3500  1.6462  0.3872
 7473TIP3   OH243909   1.450   1.867  15.680  0.2289  0.0646  0.2485
 7473TIP3    H143910   1.527   1.883  15.734  0.8797  1.0310 -0.9089
 7473TIP3    H243911   1.410   1.789  15.717 -0.6744  1.9315  3.5923
 7474TIP3   OH243912   0.913   5.763   2.540  0.1291  0.2213 -0.3842
 7474TIP3    H143913   0.842   5.781   2.602 -0.6008  0.8852 -1.3901
 7474TIP3    H243914   0.978   5.716   2.592  1.1772  3.7301  1.8979
 7475TIP3   OH243915   4.679   0.132   6.322  0.0420  0.2377  0.4218
 7475TIP3    H143916   4.769   0.140   6.290  0.0611  1.6561  0.7802
 7475TIP3    H243917   4.643   0.220   6.317 -1.0383 -0.1343  1.1571
 7476TIP3   OH243918   2.384   3.721  12.427 -0.1406  0.3669  0.3269
 7476TIP3    H143919   2.381   3.730  12.332 -3.6173 -0.6302  0.1752
 7476TIP3    H243920   2.451   3.655  12.444  0.4128  0.4486 -1.4172
 7477TIP3   OH243921   1.933   4.841   2.890  0.1586 -0.1884 -0.1818
 7477TIP3    H143922   1.983   4.778   2.837  2.1391 -0.4002  1.7863
 7477TIP3    H243923   1.995   4.912   2.907 -0.1420 -0.4478  2.3582
 7478TIP3   OH243924   6.460   0.849   4.167 -0.0706  0.1600 -0.3366
 7478TIP3    H143925   6.452   0.847   4.072  0.0988 -0.7341 -0.3423
 7478TIP3    H243926   6.495   0.935   4.187  1.4906 -0.2427 -1.2125
 7479TIP3   OH243927   5.715   5.967  16.636 -0.4883  0.0146 -0.0325
 7479TIP3    H143928   5.749   6.034  16.577 -0.5123 -0.5616 -0.7218
 7479TIP3    H243929   5.636   6.004  16.673 -0.4447  0.4040 -0.3252
 7480TIP3   OH243930   2.876   0.162   0.392 -0.1897 -0.0300 -0.0850
 7480TIP3    H143931   2.876   0.212   0.473 -0.2202  0.4005 -0.3489
 7480TIP3    H243932   2.932   0.212   0.332 -0.1248 -0.3680 -0.3142
 7481TIP3   OH243933   2.478   3.187   2.115  0.1282  0.8872 -0.3282
 7481TIP3    H143934   2.559   3.203   2.067  0.5671 -0.6327 -0.1314
 7481TIP3    H243935   2.506   3.156   2.201 -0.6098 -1.0344 -0.7194
 7482TIP3   OH243936   3.213   2.802  14.727 -0.2382 -0.0512 -0.4530
 7482TIP3    H143937   3.244   2.716  14.754  0.5662  0.2372 -0.4213
 7482TIP3    H243938   3.155   2.830  14.798  1.0822  0.2815  0.5375
 7483TIP3   OH243939   5.214   0.608  13.517 -0.6793  0.3708  0.0092
 7483TIP3    H143940   5.302   0.630  13.489 -0.1971 -0.6901  0.6467
 7483TIP3    H243941   5.199   0.661  13.595 -0.8143  0.9441 -0.4014
 7484TIP3   OH243942   5.960   6.062  13.034  0.5097  0.1629  0.3698
 7484TIP3    H143943   5.869   6.094  13.039  0.5038  0.4006 -0.8155
 7484TIP3    H243944   6.013   6.141  13.043  0.5676  0.1507  0.1465
 7485TIP3   OH243945   3.562   2.593  14.429  0.0764  0.4631  0.3513
 7485TIP3    H143946   3.470   2.594  14.456 -0.0172 -0.2924  0.0907
 7485TIP3    H243947   3.585   2.501  14.427  0.6912  0.6182 -0.0975
 7486TIP3   OH243948   3.889   5.293   5.671 -0.2356  0.2815  0.0440
 7486TIP3    H143949   3.887   5.313   5.765 -0.2758 -1.2971  0.4085
 7486TIP3    H243950   3.839   5.211   5.663  2.8571 -1.6693 -0.7836
 7487TIP3   OH243951   0.700   0.154   0.575 -0.6094  0.2589 -0.4879
 7487TIP3    H143952   0.768   0.176   0.639 -1.4169  0.5229  0.2938
 7487TIP3    H243953   0.710   0.060   0.560 -1.0134  0.0085  0.7457
 7488TIP3   OH243954   3.752   4.666  13.965 -0.4025  0.2417  0.2688
 7488TIP3    H143955   3.658   4.652  13.952 -0.0575 -1.1514 -1.0583
 7488TIP3    H243956   3.769   4.751  13.923 -0.5620 -0.9887 -2.5415
 7489TIP3   OH243957   1.537   4.251   3.914 -0.6889 -0.0153 -0.3342
 7489TIP3    H143958   1.520   4.192   3.840 -0.5888  0.3387 -0.6448
 7489TIP3    H243959   1.547   4.193   3.989 -1.6396 -0.3422 -0.4377
 7490TIP3   OH243960   2.868   2.840   4.289  0.0682 -0.0939  0.8796
 7490TIP3    H143961   2.789   2.891   4.274  0.8455  0.6662 -1.0158
 7490TIP3    H243962   2.939   2.904   4.291  0.6874 -0.7826  2.2659
 7491TIP3   OH243963   0.092   0.792   3.063  0.1655  0.3303 -0.2609
 7491TIP3    H143964   0.037   0.853   3.014  1.2238 -0.3149 -2.4022
 7491TIP3    H243965   0.126   0.843   3.136 -0.5197  1.7298 -0.8809
 7492TIP3   OH243966   1.971   0.888   3.054  0.1596  0.5034 -1.0103
 7492TIP3    H143967   2.006   0.852   2.972 -1.0596 -0.7260 -1.0313
 7492TIP3    H243968   1.989   0.820   3.119 -0.0760  0.8851 -0.5409
 7493TIP3   OH243969   0.033   2.663   3.781 -0.0215 -0.3029 -0.3899
 7493TIP3    H143970   0.072   2.579   3.806  0.4556  0.4759  1.6619
 7493TIP3    H243971   0.103   2.711   3.739  0.2092 -0.2928 -0.0004
 7494TIP3   OH243972   1.473   3.077   6.513  0.1392  0.3657  0.3375
 7494TIP3    H143973   1.490   3.023   6.590 -2.4113  0.6741  1.2169
 7494TIP3    H243974   1.551   3.132   6.504  0.5608  0.2210  2.6059
 7495TIP3   OH243975   1.851   4.811   2.618  0.3181  0.6154  0.0751
 7495TIP3    H143976   1.880   4.896   2.587 -0.9121  1.9722  2.3353
 7495TIP3    H243977   1.788   4.781   2.552  0.2297  1.8125 -0.4082
 7496TIP3   OH243978   6.545   3.795   3.839  0.3258  0.0899  0.1466
 7496TIP3    H143979   6.556   3.819   3.931  1.2701  1.3020 -0.2520
 7496TIP3    H243980   6.621   3.833   3.795  0.2072 -0.9954 -1.0448
 7497TIP3   OH243981   2.210   3.552   6.247  0.2659  0.4486  0.0337
 7497TIP3    H143982   2.139   3.539   6.310 -0.8032  1.9797 -0.7757
 7497TIP3    H243983   2.190   3.492   6.175  1.4472 -1.2478  1.0546
 7498TIP3   OH243984   3.277   4.256  10.896 -0.7688 -0.9070  0.0994
 7498TIP3    H143985   3.194   4.220  10.927 -2.0992  2.4051  0.7236
 7498TIP3    H243986   3.260   4.280  10.805 -0.0127 -1.4529 -0.1992
 7499TIP3   OH243987   4.764   0.121   5.403  0.1388  0.1829 -0.3155
 7499TIP3    H143988   4.819   0.079   5.469  1.8649  0.7337 -1.3321
 7499TIP3    H243989   4.733   0.201   5.446 -0.2095 -0.3291  0.4083
 7500TIP3   OH243990   1.173   2.144  12.855 -0.1438 -0.0098 -0.1369
 7500TIP3    H143991   1.188   2.051  12.841 -2.6558 -0.2037 -2.2171
 7500TIP3    H243992   1.225   2.188  12.787 -0.8256 -0.0477 -0.6858
 7501TIP3   OH243993   0.174   4.505  17.163 -0.4470  0.4870  0.2880
 7501TIP3    H143994   0.203   4.424  17.120  1.6135  0.8446  0.8803
 7501TIP3    H243995   0.079   4.507  17.149 -0.7453 -2.5255  1.1030
 7502TIP3   OH243996   5.282   6.388   2.416  0.5586  0.5489  0.0664
 7502TIP3    H143997   5.353   6.378   2.480  1.8142  4.1126 -0.5657
 7502TIP3    H243998   5.209   6.424   2.465 -0.9750 -2.9528  0.6776
 7503TIP3   OH243999   6.013   5.459  12.149  0.0643 -0.1704 -0.2560
 7503TIP3    H144000   5.977   5.374  12.125 -0.2662 -0.0970 -0.0263
 7503TIP3    H244001   6.078   5.439  12.217  0.3429 -0.2870 -0.5559
 7504TIP3   OH244002   6.702   6.651  15.616  0.4633 -0.4401 -0.9125
 7504TIP3    H144003   6.612   6.680  15.630 -0.2813 -2.8062 -0.2092
 7504TIP3    H244004   6.714   6.654  15.521 -0.6583 -0.8275 -1.0813
 7505TIP3   OH244005   6.481   3.633  11.015  0.1907 -0.1924  0.2610
 7505TIP3    H144006   6.437   3.614  10.932 -0.2967 -3.1156  1.0671
 7505TIP3    H244007   6.418   3.685  11.064 -1.2540 -1.8502  0.2698
 7506TIP3   OH244008   4.116   0.928  15.094 -0.2898  0.0949 -0.2377
 7506TIP3    H144009   4.086   0.981  15.168 -0.7132 -0.7686  0.2194
 7506TIP3    H244010   4.209   0.915  15.110 -0.2341  0.4917 -0.2245
 7507TIP3   OH244011   6.205   2.604  16.082  0.1151  0.3167 -0.4233
 7507TIP3    H144012   6.178   2.694  16.101  0.1013  0.2076  0.1090
 7507TIP3    H244013   6.153   2.551  16.142  0.8418  0.0326 -0.0317
 7508TIP3   OH244014   0.339   6.147   4.542  0.9826  0.2196 -0.2808
 7508TIP3    H144015   0.261   6.202   4.551  1.3595  0.5942  0.8114
 7508TIP3    H244016   0.375   6.171   4.456  0.4320  0.7384 -0.3758
 7509TIP3   OH244017   4.952   1.126  11.706 -0.6842 -0.0412  0.2867
 7509TIP3    H144018   4.991   1.079  11.779  0.7544  1.0791  0.2962
 7509TIP3    H244019   4.951   1.218  11.735 -0.1311  0.4169 -1.0417
 7510TIP3   OH244020   4.884   4.357   4.048  0.4644  0.0888  0.4756
 7510TIP3    H144021   4.897   4.352   3.954  0.6341 -0.0070  0.5035
 7510TIP3    H244022   4.818   4.290   4.067  1.0553 -0.4824  0.5390
 7511TIP3   OH244023   4.165   5.783  12.518 -0.1625 -0.3933 -0.0040
 7511TIP3    H144024   4.217   5.857  12.488  1.1889 -1.8966 -1.5581
 7511TIP3    H244025   4.132   5.742  12.438  1.2061 -2.8789  0.5852
 7512TIP3   OH244026   3.486   6.350   5.006  0.3185 -0.3649  0.1288
 7512TIP3    H144027   3.497   6.445   5.005  1.6476 -0.4957  0.1658
 7512TIP3    H244028   3.418   6.334   5.071 -0.3191  0.5962 -0.2909
 7513TIP3   OH244029   3.703   3.282   5.741  0.6467 -0.1521  0.1014
 7513TIP3    H144030   3.793   3.305   5.766  0.7319 -1.0086  0.6112
 7513TIP3    H244031   3.703   3.186   5.738  0.8637 -0.2010 -3.9399
 7514TIP3   OH244032   4.703   5.063   3.001  0.1852  0.3707  0.1097
 7514TIP3    H144033   4.629   5.004   3.015  1.6081 -1.2575  1.2358
 7514TIP3    H244034   4.663   5.150   2.989 -2.0027 -0.8356 -2.1674
 7515TIP3   OH244035   3.052   3.238   0.921  0.3741  0.3576  0.0811
 7515TIP3    H144036   3.069   3.152   0.958 -2.6423 -0.2238  0.3089
 7515TIP3    H244037   3.064   3.227   0.827  0.5939 -0.1380  0.1679
 7516TIP3   OH244038   2.769   4.794   4.853 -0.6075  0.3808  0.0383
 7516TIP3    H144039   2.761   4.772   4.946  1.0901  2.0996  0.6530
 7516TIP3    H244040   2.777   4.709   4.810  1.5287 -0.4203  1.8090
 7517TIP3   OH244041   1.897   3.697  14.738  0.1279  0.3066 -0.3500
 7517TIP3    H144042   1.979   3.707  14.689  0.2663 -2.2909 -0.8239
 7517TIP3    H244043   1.925   3.661  14.823 -0.4560 -0.1530 -0.3444
 7518TIP3   OH244044   3.015   0.029  13.297 -0.2131  0.7109  0.6040
 7518TIP3    H144045   2.935  -0.014  13.327  1.1765 -1.9278  0.8335
 7518TIP3    H244046   3.029  -0.005  13.209  1.3707 -0.0177  1.1012
 7519TIP3   OH244047   5.483   0.006   3.045 -0.2386  0.0240 -0.5733
 7519TIP3    H144048   5.432  -0.038   2.977 -0.0727 -1.4753  0.2182
 7519TIP3    H244049   5.551  -0.057   3.068 -0.4258  0.3945  1.1194
 7520TIP3   OH244050   5.903   6.616  14.738 -0.1155  0.3123  0.1033
 7520TIP3    H144051   5.813   6.585  14.751 -0.0082  0.3496  0.9389
 7520TIP3    H244052   5.893   6.698  14.690 -0.5524  0.5550  0.6027
 7521TIP3   OH244053   1.553   1.670   1.431 -0.8273  0.1339 -0.0900
 7521TIP3    H144054   1.504   1.751   1.444 -1.1462 -0.4120  2.9800
 7521TIP3    H244055   1.645   1.695   1.437 -0.9268  0.3028  0.9273
 7522TIP3   OH244056   6.017   1.366   4.513 -0.1643 -0.0298 -0.6016
 7522TIP3    H144057   5.965   1.348   4.435  0.8186 -0.6040 -1.1482
 7522TIP3    H244058   5.997   1.295   4.573 -2.8843  1.7468  0.7635
 7523TIP3   OH244059   4.757   3.161  12.116  0.1484  0.3402  0.4346
 7523TIP3    H144060   4.676   3.134  12.072 -0.3792  3.1316 -0.5186
 7523TIP3    H244061   4.728   3.190  12.203  0.1807  0.9905  0.2280
 7524TIP3   OH244062   3.804   1.290   2.297 -0.0128  0.8929 -0.7976
 7524TIP3    H144063   3.868   1.310   2.228  0.8496  1.0157  0.0159
 7524TIP3    H244064   3.842   1.216   2.344 -1.1783  0.0305 -1.1777
 7525TIP3   OH244065   2.323   4.117  14.877  0.0113  0.0373 -0.3802
 7525TIP3    H144066   2.281   4.143  14.959  0.4791  0.7313 -0.3568
 7525TIP3    H244067   2.399   4.066  14.903 -0.9053 -1.4099 -0.4252
 7526TIP3   OH244068   0.990   5.945  12.302  0.2257 -0.1832 -0.0430
 7526TIP3    H144069   1.004   5.877  12.236 -0.5064 -0.7229  0.3362
 7526TIP3    H244070   0.941   6.013  12.256 -1.1725 -0.9996  0.1495
 7527TIP3   OH244071   4.678   6.624  15.782  0.7424  0.5809 -0.0810
 7527TIP3    H144072   4.629   6.547  15.757 -0.6575  1.0519  1.0326
 7527TIP3    H244073   4.746   6.633  15.716  0.9535 -1.6032 -0.2086
 7528TIP3   OH244074   6.160   2.770  11.850  0.3771 -0.4221 -0.1256
 7528TIP3    H144075   6.095   2.835  11.821  0.6928 -0.3115 -0.5962
 7528TIP3    H244076   6.198   2.737  11.769 -0.5777 -2.0372  0.0494
 7529TIP3   OH244077   3.555   4.092   4.484  0.9870  0.1021  0.0904
 7529TIP3    H144078   3.537   4.164   4.544  0.7496 -0.8896  1.2461
 7529TIP3    H244079   3.504   4.018   4.518  1.0113 -0.5495 -1.2182
 7530TIP3   OH244080   2.177   3.153   5.413  0.1617 -0.3562 -0.5044
 7530TIP3    H144081   2.255   3.122   5.459  0.3087  0.3874 -0.2340
 7530TIP3    H244082   2.179   3.107   5.329  0.9769 -0.2349 -0.5601
 7531TIP3   OH244083   3.469   4.604  13.940  0.1955 -0.5033 -0.3493
 7531TIP3    H144084   3.451   4.510  13.932  0.1537 -0.4031 -1.4801
 7531TIP3    H244085   3.406   4.645  13.881 -1.4768  0.4449  1.9070
 7532TIP3   OH244086   5.569   2.561  13.497  0.7021  0.2012 -0.2542
 7532TIP3    H144087   5.500   2.589  13.436  1.9986 -1.7403 -2.8270
 7532TIP3    H244088   5.618   2.494  13.448  2.6453 -0.5750  2.5254
 7533TIP3   OH244089   3.591   0.560  13.131  0.8845 -0.4963  0.4504
 7533TIP3    H144090   3.627   0.496  13.192  0.7142 -2.3533 -1.2733
 7533TIP3    H244091   3.500   0.534  13.120  0.3582  1.0757  0.9446
 7534TIP3   OH244092   5.386   2.386   4.505  0.6122 -0.0836  0.6057
 7534TIP3    H144093   5.398   2.307   4.454  0.8218  0.7979 -0.7720
 7534TIP3    H244094   5.419   2.456   4.449  0.9834  0.9245  2.0091
 7535TIP3   OH244095   3.912   6.514  13.605  0.0115  0.2183  0.0987
 7535TIP3    H144096   3.869   6.588  13.649  0.3766 -0.3909  1.5603
 7535TIP3    H244097   3.844   6.447  13.598 -1.7336  2.0468 -5.3262
 7536TIP3   OH244098   2.931   4.878  14.369  0.2505 -0.3276 -0.1535
 7536TIP3    H144099   2.859   4.934  14.342  0.7680  0.2897 -0.2715
 7536TIP3    H244100   2.913   4.857  14.461  1.0286  1.6254  0.5016
 7537TIP3   OH244101   4.864   4.876   0.980  0.0184 -0.1492  0.1828
 7537TIP3    H144102   4.819   4.801   1.019 -0.2509  0.3945  0.9416
 7537TIP3    H244103   4.831   4.951   1.029 -1.9270  0.8369 -2.4443
 7538TIP3   OH244104   2.962   1.717  15.776  0.1287 -0.3990  0.2421
 7538TIP3    H144105   2.961   1.710  15.871  0.7571  1.0588  0.3862
 7538TIP3    H244106   2.923   1.635  15.745 -0.3727 -0.7579  1.7468
 7539TIP3   OH244107   3.000   2.033  11.006 -0.1279  0.1852  0.4004
 7539TIP3    H144108   2.905   2.037  11.006 -0.1826 -0.0291 -1.6988
 7539TIP3    H244109   3.022   1.972  10.936  1.5681  0.1101  0.9322
 7540TIP3   OH244110   5.525   3.251   4.789  0.7977  0.0482  1.1263
 7540TIP3    H144111   5.613   3.271   4.758  0.1947  0.6051 -0.3068
 7540TIP3    H244112   5.521   3.155   4.790  0.8115 -0.0063 -0.7007
 7541TIP3   OH244113   5.904   5.308   0.263 -0.4525  0.0825 -0.1744
 7541TIP3    H144114   5.933   5.377   0.322  0.6447 -0.9213  0.4955
 7541TIP3    H244115   5.869   5.240   0.321 -0.9967 -0.1644 -0.7851
 7542TIP3   OH244116   4.622   5.243  16.600 -0.0882 -0.0654  0.9382
 7542TIP3    H144117   4.698   5.275  16.551 -0.0165 -0.7778  0.5698
 7542TIP3    H244118   4.652   5.242  16.691  0.1154  0.3029  0.8809
 7543TIP3   OH244119   6.762   5.692   0.833 -0.7379 -0.0662 -0.4105
 7543TIP3    H144120   6.809   5.776   0.839  0.9015 -0.8034 -1.9345
 7543TIP3    H244121   6.783   5.647   0.915  3.0050 -1.1526 -1.7603
 7544TIP3   OH244122   2.310   1.133  15.357 -0.9670  0.0094 -0.1498
 7544TIP3    H144123   2.328   1.082  15.278  0.3490  0.4429 -0.1527
 7544TIP3    H244124   2.236   1.087  15.398  1.2041 -3.0531  0.7566
 7545TIP3   OH244125   6.575   3.942   0.439  0.1552 -0.1026  0.0026
 7545TIP3    H144126   6.573   3.979   0.350  1.0052 -0.3024 -0.1085
 7545TIP3    H244127   6.638   3.997   0.486 -0.6877  0.3484  0.6588
 7546TIP3   OH244128   4.715   5.768   1.649  0.3818  0.2287  0.1893
 7546TIP3    H144129   4.642   5.790   1.591 -0.0383  0.0644  0.6584
 7546TIP3    H244130   4.709   5.674   1.662  1.3572  0.0229 -0.6816
 7547TIP3   OH244131   0.849   2.577   2.513  0.3016  0.2406  0.0802
 7547TIP3    H144132   0.890   2.492   2.501  1.2785  0.6495  0.4130
 7547TIP3    H244133   0.922   2.639   2.515 -0.3376  1.0005  0.6390
 7548TIP3   OH244134   5.645   6.668  11.077 -0.3854 -0.0063 -0.1453
 7548TIP3    H144135   5.572   6.689  11.019 -0.8116  0.8706  0.6844
 7548TIP3    H244136   5.723   6.692  11.026 -0.6836 -0.4821 -0.8453
 7549TIP3   OH244137   0.987   6.424  14.133  0.8700  0.0404 -0.2661
 7549TIP3    H144138   0.944   6.345  14.100 -0.1704  0.3980  0.1937
 7549TIP3    H244139   0.953   6.494  14.078 -1.5579  0.7832  1.9703
 7550TIP3   OH244140   5.649   0.462   5.569 -0.1838  0.2552  0.1779
 7550TIP3    H144141   5.743   0.445   5.576  0.3045  2.6051  0.0805
 7550TIP3    H244142   5.618   0.461   5.660  0.1089  0.4145  0.2798
 7551TIP3   OH244143   4.487   5.221   1.192  0.9008 -0.1967 -0.2088
 7551TIP3    H144144   4.483   5.297   1.133  0.1344  0.3960  0.5919
 7551TIP3    H244145   4.406   5.173   1.174  0.6245  0.0319  0.4149
 7552TIP3   OH244146   3.930   2.892   3.434  0.3475  0.2166  0.6370
 7552TIP3    H144147   3.966   2.977   3.457  1.2610 -0.0899  0.3980
 7552TIP3    H244148   3.863   2.911   3.369  1.9472  0.6223 -0.9735
 7553TIP3   OH244149   3.011   0.488   3.434 -0.0140 -0.1335  0.2882
 7553TIP3    H144150   2.937   0.442   3.394 -1.1060 -1.3233  3.3763
 7553TIP3    H244151   2.971   0.539   3.504  1.8154  1.6131  0.1364
 7554TIP3   OH244152   5.777   1.402  16.814  0.1452  0.1039  0.0588
 7554TIP3    H144153   5.785   1.362  16.727  0.7833 -0.5804  0.4244
 7554TIP3    H244154   5.859   1.450  16.826  0.1779 -0.0322  0.3899
 7555TIP3   OH244155   5.518   4.535  13.345  0.3814  0.4182  0.3201
 7555TIP3    H144156   5.554   4.623  13.337  2.1891 -0.3914 -1.3475
 7555TIP3    H244157   5.461   4.527  13.268  0.9324 -0.1474 -0.0381
 7556TIP3   OH244158   2.066   5.838  14.951 -0.0515 -1.2713 -0.1335
 7556TIP3    H144159   1.980   5.848  14.992 -0.1774 -0.9676 -0.4675
 7556TIP3    H244160   2.117   5.787  15.014 -0.4203 -1.3000  0.1445
 7557TIP3   OH244161   3.967   1.781   4.866 -0.3215 -0.6192 -0.2004
 7557TIP3    H144162   4.012   1.697   4.861  0.5587 -0.1287 -0.8244
 7557TIP3    H244163   3.891   1.771   4.809 -1.5197 -1.7199  1.4794
 7558TIP3   OH244164   4.113   6.279  13.097 -0.4860  0.0521  0.3322
 7558TIP3    H144165   4.118   6.374  13.103 -0.7641  0.0174  1.1978
 7558TIP3    H244166   4.204   6.252  13.084 -0.5176  0.4827 -0.9471
 7559TIP3   OH244167   2.351   3.721  10.818 -0.4183 -0.5847  0.0490
 7559TIP3    H144168   2.374   3.769  10.897 -1.5221  0.7636 -0.4123
 7559TIP3    H244169   2.300   3.783  10.766  1.6317 -0.8724 -2.4846
 7560TIP3   OH244170   0.713   0.849  15.568 -0.0700 -0.3290 -0.0462
 7560TIP3    H144171   0.686   0.894  15.487 -0.4927  0.7666  0.6877
 7560TIP3    H244172   0.786   0.900  15.600 -0.5798 -0.1314  0.8236
 7561TIP3   OH244173   4.639   3.911  12.892 -0.4180  0.1627 -0.2316
 7561TIP3    H144174   4.583   3.856  12.946 -0.3779  0.4258  0.0870
 7561TIP3    H244175   4.601   3.907  12.805 -0.1594 -0.7109 -0.3038
 7562TIP3   OH244176   2.718   2.995  16.638 -0.2995 -0.6696  0.2421
 7562TIP3    H144177   2.742   2.922  16.695  0.4420  0.1225  0.9752
 7562TIP3    H244178   2.793   3.004  16.579  0.6317  0.8549  1.5632
 7563TIP3   OH244179   3.619   1.368   6.251  0.2902 -0.4065  0.6547
 7563TIP3    H144180   3.648   1.333   6.335  0.0379 -1.5831  0.2803
 7563TIP3    H244181   3.687   1.432   6.227  1.7087 -1.8516  0.6049
 7564TIP3   OH244182   3.419   1.973   4.683 -0.3630  0.5996  0.5527
 7564TIP3    H144183   3.425   1.878   4.672  2.3101  0.6034  1.4912
 7564TIP3    H244184   3.409   2.006   4.593  0.7960 -0.4567  0.0080
 7565TIP3   OH244185   5.056   5.441   5.475 -0.3665  0.5786  0.7821
 7565TIP3    H144186   5.030   5.447   5.383  2.8167 -3.0207 -0.6446
 7565TIP3    H244187   4.987   5.388   5.515 -0.4895 -0.0747 -0.2376
 7566TIP3   OH244188   3.238   5.910  16.292  0.4825 -0.3527 -0.1779
 7566TIP3    H144189   3.330   5.895  16.313  0.3854  0.6239  1.0709
 7566TIP3    H244190   3.193   5.830  16.319  1.1101 -1.3818 -2.0441
 7567TIP3   OH244191   6.691   5.068  11.011 -0.4234  0.1413 -0.4042
 7567TIP3    H144192   6.674   5.159  11.035 -0.2185  0.1558 -0.3090
 7567TIP3    H244193   6.608   5.036  10.975 -0.5181  0.3410 -0.3615
 7568TIP3   OH244194   5.354   0.754   0.280 -0.6241 -0.1072 -0.3048
 7568TIP3    H144195   5.363   0.659   0.287 -1.0081 -0.2092 -1.0782
 7568TIP3    H244196   5.276   0.767   0.226 -0.3849  0.6427 -0.4835
 7569TIP3   OH244197   1.756   5.928   1.961  0.3904 -0.5091  0.5455
 7569TIP3    H144198   1.785   5.975   1.883 -1.0328  0.1732  0.4135
 7569TIP3    H244199   1.687   5.982   1.998 -0.7941 -2.1295  0.8022
 7570TIP3   OH244200   4.151   4.769  16.734  0.7681 -0.1398 -0.2307
 7570TIP3    H144201   4.115   4.696  16.784  0.2946 -1.6417 -2.5891
 7570TIP3    H244202   4.159   4.735  16.644  0.3403  2.7716 -1.4907
 7571TIP3   OH244203   1.615   5.820  16.249  0.1447  0.0077 -0.0214
 7571TIP3    H144204   1.697   5.863  16.224 -0.5622  1.4458  0.0515
 7571TIP3    H244205   1.582   5.871  16.322 -0.8996 -0.4786 -0.1333
 7572TIP3   OH244206   6.077   4.428  13.372 -0.4755 -0.0478 -0.3349
 7572TIP3    H144207   6.128   4.507  13.392  1.9302 -1.1223 -1.7256
 7572TIP3    H244208   6.037   4.404  13.455  1.3741  0.8680  0.8943
 7573TIP3   OH244209   5.203   0.274  15.533  1.0191 -0.6019  0.3766
 7573TIP3    H144210   5.154   0.224  15.467  0.2533 -0.7502  1.0423
 7573TIP3    H244211   5.169   0.364  15.524 -0.1437 -0.8995  1.5195
 7574TIP3   OH244212   3.736   3.358   3.778 -0.4869  0.0984 -0.4130
 7574TIP3    H144213   3.752   3.272   3.816 -4.2488 -0.5371  0.0883
 7574TIP3    H244214   3.821   3.403   3.783  1.0451 -2.7324  1.3946
 7575TIP3   OH244215   6.039   1.201  14.781  0.3850 -0.0275 -0.1678
 7575TIP3    H144216   6.004   1.287  14.803 -1.9686 -1.0154  0.2460
 7575TIP3    H244217   6.019   1.190  14.688 -2.4493 -1.3970  0.5024
 7576TIP3   OH244218   2.774   5.005  14.894 -0.2167  0.2674 -0.3164
 7576TIP3    H144219   2.818   4.986  14.811  1.6557  0.2092  0.6266
 7576TIP3    H244220   2.795   4.930  14.949 -1.5889  0.2262  0.1851
 7577TIP3   OH244221   4.786   1.110   0.217 -0.2197 -0.5539  0.6764
 7577TIP3    H144222   4.701   1.068   0.233  0.0922 -1.1643  0.7803
 7577TIP3    H244223   4.808   1.085   0.127  0.6090 -1.7989  1.1957
 7578TIP3   OH244224   2.322   0.851   1.147  0.0869 -0.0447 -0.3891
 7578TIP3    H144225   2.235   0.816   1.128  0.3600 -0.3370 -1.1215
 7578TIP3    H244226   2.319   0.872   1.241 -1.2915  1.5067 -0.7541
 7579TIP3   OH244227   5.453   0.237   3.238 -0.4732 -0.1058 -0.2827
 7579TIP3    H144228   5.451   0.176   3.165  2.9298  1.9020 -2.3396
 7579TIP3    H244229   5.401   0.195   3.307 -1.6810 -3.3085 -2.9053
 7580TIP3   OH244230   6.550   4.654  12.125  0.2650  0.0417  0.4369
 7580TIP3    H144231   6.472   4.693  12.162  0.3291 -1.3570  2.2061
 7580TIP3    H244232   6.541   4.560  12.142  0.5128 -0.7270 -2.8347
 7581TIP3   OH244233   2.528   0.846   3.150 -0.4353  0.0251 -0.4859
 7581TIP3    H144234   2.504   0.918   3.208 -2.3035 -0.6132 -0.4026
 7581TIP3    H244235   2.613   0.816   3.183  0.0123  1.6664 -0.0473
 7582TIP3   OH244236   6.698   2.691   0.181  0.2622  0.3460 -0.3813
 7582TIP3    H144237   6.679   2.773   0.135  1.2285  0.7103 -0.1490
 7582TIP3    H244238   6.792   2.681   0.173  0.3166 -0.0795  0.7059
 7583TIP3   OH244239   6.754   2.947   3.546  0.5616 -0.2594  0.2960
 7583TIP3    H144240   6.706   2.931   3.628  2.2170  0.9791  1.5914
 7583TIP3    H244241   6.822   2.879   3.545  0.7810 -0.0378  0.1585
 7584TIP3   OH244242   6.642   5.558  16.077 -0.3163 -0.5842  0.3064
 7584TIP3    H144243   6.678   5.596  15.997  0.8931  0.6342  1.3639
 7584TIP3    H244244   6.593   5.481  16.048  0.6546 -0.5611 -1.5238
 7585TIP3   OH244245   6.688   1.053  16.686  0.3868 -0.3790 -0.3093
 7585TIP3    H144246   6.755   1.041  16.753 -1.5525 -0.3494  1.7835
 7585TIP3    H244247   6.735   1.046  16.603  2.9344 -0.3548  1.0238
 7586TIP3   OH244248   1.277   3.699   4.283  0.6004 -0.3393  0.6607
 7586TIP3    H144249   1.266   3.768   4.217  1.9405 -1.9094 -1.3447
 7586TIP3    H244250   1.217   3.629   4.254 -0.6852 -0.1081  2.6040
 7587TIP3   OH244251   1.917   3.423  11.831  0.3380 -0.3537  0.2921
 7587TIP3    H144252   1.899   3.516  11.841 -1.6221 -0.6316 -0.1795
 7587TIP3    H244253   1.974   3.418  11.754  0.9219  0.4853  0.6587
 7588TIP3   OH244254   4.991   0.596   4.997 -0.4300  0.1892 -0.1504
 7588TIP3    H144255   4.922   0.622   4.937 -0.7769  0.7820  0.4836
 7588TIP3    H244256   5.064   0.655   4.977 -0.0469 -0.5188 -0.9042
 7589TIP3   OH244257   4.980   2.360   4.084  0.0207  0.0282  0.0293
 7589TIP3    H144258   4.924   2.357   4.162  1.2628 -1.5178  0.9238
 7589TIP3    H244259   5.003   2.452   4.075 -0.5381  0.3077  1.2043
 7590TIP3   OH244260   0.963   6.651  12.783  0.0783 -0.1971  0.1141
 7590TIP3    H144261   1.050   6.623  12.754  0.6892  1.2504  0.4071
 7590TIP3    H244262   0.904   6.626  12.712  1.3096  1.9392 -1.7937
 7591TIP3   OH244263   4.932   5.419   2.231 -0.3936 -0.0709 -0.3427
 7591TIP3    H144264   4.913   5.510   2.209  1.1078  0.6148  1.0199
 7591TIP3    H244265   5.027   5.412   2.225 -0.0947 -0.5590  2.9115
 7592TIP3   OH244266   2.664   2.153   0.162 -0.3295 -0.1444  0.0231
 7592TIP3    H144267   2.684   2.062   0.184 -0.4380 -0.1110  0.2671
 7592TIP3    H244268   2.625   2.148   0.075 -1.1102 -0.4322  0.3737
 7593TIP3   OH244269   4.996   6.699   4.503 -0.2881  0.0280  0.1486
 7593TIP3    H144270   5.009   6.629   4.438  2.0455 -0.7373  1.3058
 7593TIP3    H244271   5.051   6.771   4.471 -1.6176  0.8666 -0.3215
 7594TIP3   OH244272   4.449   0.990   0.961 -0.2168 -0.2225 -0.8764
 7594TIP3    H144273   4.505   0.935   1.016 -0.1046 -1.7738 -2.4369
 7594TIP3    H244274   4.499   1.070   0.947  0.3419 -0.3898  0.1005
 7595TIP3   OH244275   2.775   5.889   3.724  0.2930 -0.4465  0.1775
 7595TIP3    H144276   2.834   5.957   3.692 -0.5770  0.3916  0.3051
 7595TIP3    H244277   2.704   5.937   3.767 -0.4241 -1.4304  0.1283
 7596TIP3   OH244278   1.257   4.882   5.604 -0.7493  0.3691  0.1230
 7596TIP3    H144279   1.236   4.842   5.520 -0.5668  1.3402 -0.4087
 7596TIP3    H244280   1.173   4.894   5.647 -1.2542  2.7297 -1.2897
 7597TIP3   OH244281   4.815   2.758  15.519 -0.1621 -0.2151  0.5721
 7597TIP3    H144282   4.725   2.742  15.547  0.5762 -2.2732  2.0317
 7597TIP3    H244283   4.860   2.787  15.598  0.4594  0.8911 -0.1668
 7598TIP3   OH244284   2.334   2.275   3.561  0.6429 -0.1048 -0.2528
 7598TIP3    H144285   2.300   2.247   3.476 -0.6275  3.1792 -0.9868
 7598TIP3    H244286   2.396   2.346   3.540 -0.6923  1.6994  1.4937
 7599TIP3   OH244287   1.229   4.257  11.540  0.0047  0.0336  0.0618
 7599TIP3    H144288   1.261   4.263  11.630  1.0464  4.4435 -0.3305
 7599TIP3    H244289   1.134   4.253  11.548  0.1070 -0.1453  1.3590
 7600TIP3   OH244290   2.815   0.615  12.599 -0.3577  0.1367  0.1981
 7600TIP3    H144291   2.819   0.709  12.611  1.3193  0.0955  0.2478
 7600TIP3    H244292   2.836   0.579  12.685 -0.3517 -0.2740  0.0277
 7601TIP3   OH244293   0.136   1.696   5.464  0.4026 -0.4470 -0.3568
 7601TIP3    H144294   0.102   1.778   5.427  1.9247  0.6554  0.5374
 7601TIP3    H244295   0.208   1.672   5.405  0.3406 -0.8299 -0.2804
 7602TIP3   OH244296   3.611   3.689   1.783 -0.2868 -0.3508  0.0866
 7602TIP3    H144297   3.579   3.668   1.695 -1.7550 -2.9326  1.0925
 7602TIP3    H244298   3.539   3.664   1.840  0.5351  1.4959  2.0524
 7603TIP3   OH244299   4.244   4.888   5.366  0.0451  0.1407 -0.0525
 7603TIP3    H144300   4.179   4.886   5.436 -0.4901  1.9834 -0.4309
 7603TIP3    H244301   4.321   4.846   5.404 -0.2989  0.8901  1.5933
 7604TIP3   OH244302   3.045   0.575   2.710 -0.1805  0.1653  0.1304
 7604TIP3    H144303   3.030   0.630   2.633  0.7797 -0.0815 -0.2529
 7604TIP3    H244304   2.969   0.518   2.715  0.1369 -0.3980 -1.1511
 7605TIP3   OH244305   5.244   6.044  16.421 -0.1291 -0.3471 -0.0024
 7605TIP3    H144306   5.153   6.017  16.405 -0.5212  1.3048 -0.7229
 7605TIP3    H244307   5.297   5.983  16.370 -0.8488 -1.0817  0.1100
 7606TIP3   OH244308   0.251   5.131  14.381  0.1207  0.6001  0.5073
 7606TIP3    H144309   0.281   5.208  14.430  0.0735  1.6233 -0.9791
 7606TIP3    H244310   0.177   5.164  14.329  1.1443  0.0157 -1.4342
 7607TIP3   OH244311   4.516   5.259  16.871 -0.3265 -0.3328 -0.0726
 7607TIP3    H144312   4.429   5.297  16.868  0.1845  1.1041  1.7830
 7607TIP3    H244313   4.502   5.169  16.900 -1.1009  0.4489  2.1445
 7608TIP3   OH244314   1.188   6.185   1.349 -0.3513  0.3498  0.4153
 7608TIP3    H144315   1.265   6.203   1.404  0.0382  1.7156 -0.5266
 7608TIP3    H244316   1.223   6.142   1.272 -0.6817 -0.0297  0.4742
 7609TIP3   OH244317   4.849   5.147   5.350  0.6579 -0.5489 -0.1774
 7609TIP3    H144318   4.851   5.184   5.439  0.0439  0.8470 -0.7179
 7609TIP3    H244319   4.787   5.202   5.303  1.6590 -0.7093 -1.7275
 7610TIP3   OH244320   4.448   0.769   3.780  0.8182 -0.2988 -0.5058
 7610TIP3    H144321   4.441   0.687   3.827 -0.9719  0.8142  1.3181
 7610TIP3    H244322   4.513   0.820   3.828 -0.2541  0.4437  0.2148
 7611TIP3   OH244323   2.975   2.295  16.189 -0.6381  0.0058 -0.9659
 7611TIP3    H144324   2.978   2.200  16.180  1.3635 -0.1907  0.9404
 7611TIP3    H244325   2.898   2.312  16.243 -1.1217 -0.4781 -1.4881
 7612TIP3   OH244326   6.080   4.537   3.685  0.0473  0.0565 -0.4043
 7612TIP3    H144327   6.144   4.538   3.755 -0.6614 -1.8483  0.3364
 7612TIP3    H244328   6.129   4.509   3.608  0.4358  0.2685 -0.2359
 7613TIP3   OH244329   4.252   4.911   0.719 -0.4942  0.5058 -0.2225
 7613TIP3    H144330   4.262   4.862   0.637  0.4288 -0.1983  0.2952
 7613TIP3    H244331   4.336   4.901   0.764 -1.0497  0.7076  0.9013
 7614TIP3   OH244332   5.841   3.737   5.756  0.4331  0.2820 -0.8612
 7614TIP3    H144333   5.901   3.790   5.809  0.9004  0.6811 -1.7728
 7614TIP3    H244334   5.843   3.650   5.796  1.3736  0.3778 -0.6960
 7615TIP3   OH244335   4.633   5.862   2.139 -0.1297  0.4218  0.0052
 7615TIP3    H144336   4.689   5.923   2.091 -0.2633 -0.8274 -1.8452
 7615TIP3    H244337   4.565   5.838   2.075 -1.9108  0.7177  1.6920
 7616TIP3   OH244338   5.467   1.621   0.326  0.2597  0.1535 -0.0989
 7616TIP3    H144339   5.509   1.575   0.254 -2.0008 -2.2546 -0.0393
 7616TIP3    H244340   5.421   1.694   0.285  0.7322  0.0777 -0.7758
 7617TIP3   OH244341   1.576   2.456  13.851  0.1805  0.0837  0.0741
 7617TIP3    H144342   1.609   2.539  13.817  0.9320 -0.8864 -1.6756
 7617TIP3    H244343   1.488   2.477  13.882 -0.3028  1.2172 -1.8627
 7618TIP3   OH244344   1.466   2.249   4.514  0.1033  0.6471  0.5750
 7618TIP3    H144345   1.460   2.178   4.579 -0.7611  1.0715  0.9855
 7618TIP3    H244346   1.382   2.295   4.522  0.8392  2.0147  0.6663
 7619TIP3   OH244347   3.252   6.071  16.506 -0.2449 -0.0997 -0.1727
 7619TIP3    H144348   3.226   6.031  16.423 -0.6079  2.4449 -1.3799
 7619TIP3    H244349   3.177   6.126  16.531  0.4940  0.4116  0.9923
 7620TIP3   OH244350   0.941   2.207   4.552  0.5161 -0.3134  0.0151
 7620TIP3    H144351   0.933   2.115   4.579 -1.3754 -0.1981  0.0257
 7620TIP3    H244352   0.875   2.217   4.483  0.0798  1.2366  0.6176
 7621TIP3   OH244353   1.623   3.023   5.423  0.9959  0.5019  0.4680
 7621TIP3    H144354   1.568   2.949   5.399  0.5500  0.6331  1.0503
 7621TIP3    H244355   1.630   3.075   5.343 -0.4958  0.9513  0.5955
 7622TIP3   OH244356   3.065   6.324  11.778 -0.6738 -0.1693 -0.1398
 7622TIP3    H144357   2.978   6.299  11.746 -0.8676  1.9138 -1.4092
 7622TIP3    H244358   3.126   6.269  11.729 -1.1969 -0.2375 -0.7209
 7623TIP3   OH244359   5.587   1.869  16.656  0.0363 -0.1015 -0.2787
 7623TIP3    H144360   5.533   1.791  16.645 -1.0683  0.5702  0.2715
 7623TIP3    H244361   5.593   1.906  16.569  0.1954 -0.5526 -0.4650
 7624TIP3   OH244362   3.264   6.216  14.196  0.4100  0.1085 -0.6887
 7624TIP3    H144363   3.209   6.235  14.121 -1.5996 -0.3350  0.5834
 7624TIP3    H244364   3.302   6.130  14.177 -0.5398 -0.2653 -0.9869
 7625TIP3   OH244365   3.735   2.350  15.366  0.2177  0.1613 -0.0423
 7625TIP3    H144366   3.745   2.445  15.373 -0.3735  0.2450 -0.3137
 7625TIP3    H244367   3.819   2.315  15.398  0.2717  0.7558  0.4909
 7626TIP3   OH244368   3.082   4.207  16.127 -0.0442 -0.0432 -0.0679
 7626TIP3    H144369   3.102   4.136  16.066 -0.5249  0.0809 -0.3761
 7626TIP3    H244370   3.158   4.265  16.123 -0.5667  0.5902 -1.4538
 7627TIP3   OH244371   3.165   0.513   5.702 -0.0956  0.3707 -0.0778
 7627TIP3    H144372   3.186   0.604   5.683  0.3147  0.1979 -0.4867
 7627TIP3    H244373   3.233   0.463   5.656  0.0339 -0.1195  0.6388
 7628TIP3   OH244374   2.703   0.518   4.815 -0.8331  0.4376 -0.3490
 7628TIP3    H144375   2.633   0.459   4.788 -0.7038  0.8990 -1.8023
 7628TIP3    H244376   2.723   0.493   4.905 -0.7712 -1.7146 -0.9235
 7629TIP3   OH244377   3.025   4.705  13.218  0.0506 -0.3878 -0.1282
 7629TIP3    H144378   2.935   4.707  13.185 -0.9297  1.8012  2.2669
 7629TIP3    H244379   3.080   4.716  13.141 -1.7355 -1.5146 -1.6307
 7630TIP3   OH244380   3.848   4.787  11.631  0.2915 -0.3950  0.3916
 7630TIP3    H144381   3.852   4.817  11.540 -0.3706  1.3125  0.8974
 7630TIP3    H244382   3.846   4.692  11.624  1.2803 -0.3317 -1.3392
 7631TIP3   OH244383   2.836   4.689   3.109  0.2340  0.3278  0.2872
 7631TIP3    H144384   2.852   4.777   3.142  0.3839  0.1007  0.8365
 7631TIP3    H244385   2.782   4.648   3.177 -2.0074  0.8080 -1.1153
 7632TIP3   OH244386   1.828   6.769   5.529  0.3606  0.1316  0.0345
 7632TIP3    H144387   1.907   6.753   5.581  0.9606  2.1928 -0.1307
 7632TIP3    H244388   1.756   6.753   5.589  0.9919  0.6105  0.9547
 7633TIP3   OH244389   2.160   0.856   5.931  0.3230 -0.2899 -0.0693
 7633TIP3    H144390   2.181   0.823   5.843 -0.1325 -2.1564  0.4655
 7633TIP3    H244391   2.160   0.951   5.922  1.2452 -0.4136 -1.8638
 7634TIP3   OH244392   6.209   3.267  16.418  0.4810  0.0494  0.4552
 7634TIP3    H144393   6.200   3.249  16.324 -1.5354 -2.8103  1.0794
 7634TIP3    H244394   6.297   3.236  16.440  0.1317 -1.4552 -0.1325
 7635TIP3   OH244395   0.107   6.673   1.711 -0.0498  0.2412  0.1157
 7635TIP3    H144396   0.174   6.646   1.648  0.2078  0.9454  0.0810
 7635TIP3    H244397   0.042   6.602   1.708  0.0840  0.1385 -0.7518
 7636TIP3   OH244398   1.399   2.747   2.896 -0.9538 -0.1607 -0.1890
 7636TIP3    H144399   1.362   2.680   2.954 -0.2477  0.5781  1.1420
 7636TIP3    H244400   1.360   2.829   2.926  0.9626  0.4986  0.6007
 7637TIP3   OH244401   5.842   0.066   1.772 -0.4650 -0.3824 -0.4978
 7637TIP3    H144402   5.923   0.018   1.755 -0.6169 -0.4098 -1.1398
 7637TIP3    H244403   5.850   0.094   1.863  0.7290  0.4880 -0.8482
 7638TIP3   OH244404   0.553   0.674  16.472  0.0549 -0.4475 -0.7026
 7638TIP3    H144405   0.639   0.632  16.484  0.3173  0.1637 -0.4132
 7638TIP3    H244406   0.501   0.608  16.426  1.0089 -0.4177 -1.8595
 7639TIP3   OH244407   0.638   1.359  13.239 -0.5641  0.1727  0.7248
 7639TIP3    H144408   0.633   1.430  13.303 -0.4446  0.0982  0.8172
 7639TIP3    H244409   0.731   1.348  13.221 -0.6708  1.1149 -0.4964
 7640TIP3   OH244410   2.197   5.446  11.571  0.3311  0.2975  0.0644
 7640TIP3    H144411   2.126   5.382  11.580  0.8626 -0.2053  0.7266
 7640TIP3    H244412   2.159   5.516  11.518 -0.3464 -0.4299 -0.4219
 7641TIP3   OH244413   1.131   2.084  16.176 -0.3826 -0.4787  0.4170
 7641TIP3    H144414   1.138   2.016  16.110 -0.1774  0.0974 -0.1668
 7641TIP3    H244415   1.213   2.079  16.225  0.6323  0.7750 -1.0477
 7642TIP3   OH244416   4.536   3.591   0.982 -0.1342 -0.0541  0.6973
 7642TIP3    H144417   4.441   3.597   0.982 -0.3524 -2.2737 -0.8902
 7642TIP3    H244418   4.556   3.525   1.048  0.2830  0.1999  0.8273
 7643TIP3   OH244419   5.033   2.448  14.862 -0.2848  0.1594  0.1818
 7643TIP3    H144420   5.055   2.389  14.933 -0.1371  0.2998  0.2540
 7643TIP3    H244421   5.004   2.391  14.790 -0.2750  0.0106  0.2975
 7644TIP3   OH244422   5.871   6.536  12.044  0.2922  0.2462 -0.5711
 7644TIP3    H144423   5.834   6.616  12.005  1.1771  0.0087 -1.9783
 7644TIP3    H244424   5.934   6.505  11.979 -0.7023 -2.1440 -0.4940
 7645TIP3   OH244425   0.223   0.005   5.643  0.2435 -0.4866 -0.0373
 7645TIP3    H144426   0.206  -0.081   5.680 -1.7105 -1.2351 -2.3549
 7645TIP3    H244427   0.152   0.018   5.580  0.9398  2.4784 -0.3693
 7646TIP3   OH244428   0.584   3.326  16.375  0.5909  0.4421 -0.3466
 7646TIP3    H144429   0.610   3.249  16.425 -0.8267  0.1989  0.0639
 7646TIP3    H244430   0.664   3.379  16.369  1.6452 -1.1145 -0.7930
 7647TIP3   OH244431   4.603   5.164  15.446 -0.0794 -0.0645 -0.0146
 7647TIP3    H144432   4.611   5.160  15.541  0.7761 -1.3386 -0.1166
 7647TIP3    H244433   4.564   5.080  15.421  1.2032 -0.4207 -0.9117
 7648TIP3   OH244434   5.929   3.891   1.173 -0.2820  0.1910 -0.3254
 7648TIP3    H144435   5.957   3.981   1.157  1.0460  0.0067  0.7926
 7648TIP3    H244436   5.860   3.899   1.240 -0.5617  0.3974 -0.6321
 7649TIP3   OH244437   3.177   5.160  11.141  0.3734 -0.5875  0.6749
 7649TIP3    H144438   3.197   5.181  11.233  1.7923  0.8685  0.0757
 7649TIP3    H244439   3.234   5.086  11.121  1.5639  0.3663  0.4236
 7650TIP3   OH244440   2.170   0.058   6.685 -0.9192 -0.7134  1.5519
 7650TIP3    H144441   2.221  -0.017   6.656 -0.9974 -0.5211  0.9019
 7650TIP3    H244442   2.232   0.130   6.687 -1.9610  0.8013 -4.1870
 7651TIP3   OH244443   2.468   3.417   5.095 -0.4744 -0.1117 -0.0064
 7651TIP3    H144444   2.538   3.422   5.031  1.1409  2.3414  1.7605
 7651TIP3    H244445   2.495   3.350   5.157 -1.2746 -1.3713 -0.9792
 7652TIP3   OH244446   4.781   3.730  15.121 -0.2820 -0.1406  0.1038
 7652TIP3    H144447   4.799   3.637  15.107 -0.3475  0.0772 -1.7825
 7652TIP3    H244448   4.851   3.775  15.075  0.0052  0.7705  1.3832
 7653TIP3   OH244449   3.723   2.966   0.585 -1.2004 -0.0600  0.0901
 7653TIP3    H144450   3.640   2.963   0.538 -1.2160  2.3084 -0.1670
 7653TIP3    H244451   3.702   3.005   0.669 -0.4207  0.1482  0.1963
 7654TIP3   OH244452   0.582   6.094  11.739 -0.2690 -0.1119  0.1718
 7654TIP3    H144453   0.578   6.188  11.757  0.0226 -0.1291  0.3214
 7654TIP3    H244454   0.605   6.054  11.822 -1.2976 -0.3998  0.3343
 7655TIP3   OH244455   1.141   3.943  12.045  0.4537  0.3956  0.1147
 7655TIP3    H144456   1.158   3.919  11.954 -0.5699  1.7264 -0.4710
 7655TIP3    H244457   1.051   3.976  12.045  0.0380 -0.6215  1.8508
 7656TIP3   OH244458   4.977   2.990   2.255 -0.2026 -0.0139 -0.0128
 7656TIP3    H144459   4.994   3.037   2.336 -0.9090 -1.5767  1.0870
 7656TIP3    H244460   4.916   2.919   2.280  0.2397 -1.0587 -1.7184
 7657TIP3   OH244461   6.138   5.159  10.395  0.0291 -0.2061  0.2146
 7657TIP3    H144462   6.060   5.213  10.381  0.1685 -0.0946 -0.1284
 7657TIP3    H244463   6.207   5.204  10.347  0.5464  0.2627  1.3699
 7658TIP3   OH244464   6.249   4.231   0.344  0.4910 -0.7746  0.1223
 7658TIP3    H144465   6.322   4.259   0.398 -0.0601  0.5358  0.2277
 7658TIP3    H244466   6.290   4.190   0.267  1.2850 -1.6109  0.9643
 7659TIP3   OH244467   6.305   4.260  11.700  0.5098  0.2561 -0.3356
 7659TIP3    H144468   6.237   4.199  11.669 -0.3381  0.8422  0.3387
 7659TIP3    H244469   6.262   4.345  11.701  0.8049  0.4217  1.4614
 7660TIP3   OH244470   1.452   0.849  14.160  0.6740 -0.1350  0.2048
 7660TIP3    H144471   1.429   0.921  14.102  0.3804 -0.4983 -0.1359
 7660TIP3    H244472   1.369   0.817  14.194  0.6802 -1.1381 -0.6489
 7661TIP3   OH244473   0.026   5.876  14.203 -0.4386 -0.1713 -0.1904
 7661TIP3    H144474  -0.068   5.874  14.184 -0.8948  2.0370  1.4338
 7661TIP3    H244475   0.040   5.960  14.248  2.0760 -1.0606  0.8691
 7662TIP3   OH244476   1.934   4.928  14.502 -0.6481  0.0591  0.1989
 7662TIP3    H144477   1.967   4.917  14.591 -0.7997 -0.8671  0.1552
 7662TIP3    H244478   2.009   4.962  14.453 -0.5581  0.5568  0.6702
 7663TIP3   OH244479   5.437   0.231  17.249  0.0544  0.4253  0.1360
 7663TIP3    H144480   5.406   0.294  17.314 -0.1423  2.0407 -1.4369
 7663TIP3    H244481   5.461   0.285  17.173 -0.1404 -1.3969 -1.2899
 7664TIP3   OH244482   6.107   4.517   2.849  0.4304  0.0332 -0.3353
 7664TIP3    H144483   6.089   4.445   2.909  0.7327 -1.1127 -1.5644
 7664TIP3    H244484   6.195   4.547   2.873  1.0755 -1.2574 -0.9805
 7665TIP3   OH244485   5.934   3.202   5.061 -0.0260  0.4290  0.1604
 7665TIP3    H144486   5.892   3.273   5.013 -0.9265 -0.3932 -0.3179
 7665TIP3    H244487   5.862   3.148   5.092  0.6336 -0.2714  0.5157
 7666TIP3   OH244488   5.356   1.023   4.362 -0.3596 -0.1018 -0.3999
 7666TIP3    H144489   5.382   1.107   4.400  0.6043 -0.2516 -0.6989
 7666TIP3    H244490   5.268   1.007   4.396  0.1152  0.2040  1.0219
 7667TIP3   OH244491   4.657   1.197  12.942 -0.1472 -0.4945 -0.3444
 7667TIP3    H144492   4.579   1.230  12.896  0.5784  3.4431  0.8097
 7667TIP3    H244493   4.730   1.219  12.884  0.4288  0.6525  0.7567
 7668TIP3   OH244494   6.212   1.808   0.512 -0.4937 -0.2249 -0.1481
 7668TIP3    H144495   6.123   1.799   0.546 -0.8887 -1.5391 -1.4089
 7668TIP3    H244496   6.235   1.720   0.481  1.2053  0.1131  0.0354
 7669TIP3   OH244497   4.712   6.715  14.599 -0.2210 -0.0152 -0.2717
 7669TIP3    H144498   4.795   6.762  14.602  0.1095 -0.5761 -0.4719
 7669TIP3    H244499   4.734   6.630  14.559 -0.6206 -0.6951  0.8983
 7670TIP3   OH244500   4.568   6.584   2.446 -0.3299 -0.3149  0.2689
 7670TIP3    H144501   4.599   6.570   2.357  1.4148 -1.1249  0.9647
 7670TIP3    H244502   4.643   6.563   2.502 -1.3444  0.2673  1.9351
 7671TIP3   OH244503   6.209   0.054   5.414  0.4330  0.3384  0.8756
 7671TIP3    H144504   6.138   0.108   5.378  1.3166  1.4953  0.7831
 7671TIP3    H244505   6.286   0.110   5.407  1.6358 -1.3470 -0.2707
 7672TIP3   OH244506   1.941   3.538   1.332  0.2345  0.2937 -0.3616
 7672TIP3    H144507   1.989   3.523   1.250 -0.8577  0.9412 -1.1460
 7672TIP3    H244508   1.873   3.472   1.333  0.1713  0.3598 -0.0231
 7673TIP3   OH244509   1.463   1.654  14.372 -0.0426  0.1850 -0.4000
 7673TIP3    H144510   1.429   1.731  14.418 -1.0539 -0.3979 -0.1413
 7673TIP3    H244511   1.552   1.645  14.406 -0.6465 -0.0271  1.2329
 7674TIP3   OH244512   3.294   2.812   0.152 -0.6126  0.5979  0.0732
 7674TIP3    H144513   3.287   2.721   0.124  0.7609  0.3830  0.3703
 7674TIP3    H244514   3.384   2.821   0.182 -0.6431  2.1391 -0.2269
 7675TIP3   OH244515   6.342   4.469   4.695  0.1039 -0.1304 -0.2916
 7675TIP3    H144516   6.277   4.485   4.627 -0.7529 -0.8489  0.3456
 7675TIP3    H244517   6.420   4.441   4.647 -0.9915 -2.2546 -0.9223
 7676TIP3   OH244518   4.580   6.348   2.005 -0.1816 -0.0452  0.0175
 7676TIP3    H144519   4.547   6.258   2.006 -1.8234  0.5248 -0.3670
 7676TIP3    H244520   4.565   6.378   1.916  0.9803  0.4159 -0.0432
 7677TIP3   OH244521   1.202   4.533   5.467 -0.3471  0.8377  0.2818
 7677TIP3    H144522   1.139   4.604   5.462 -1.4067 -0.1419 -1.5949
 7677TIP3    H244523   1.273   4.559   5.407  1.1303  1.9469  2.3991
 7678TIP3   OH244524   3.432   2.789   1.806  0.1425 -0.1271 -0.3976
 7678TIP3    H144525   3.414   2.818   1.716 -0.0068 -0.6117 -0.5281
 7678TIP3    H244526   3.347   2.760   1.839  0.1502  0.2678 -0.0125
 7679TIP3   OH244527   3.215   1.524   0.939  0.2431  0.6371  0.2946
 7679TIP3    H144528   3.215   1.594   1.004  0.7575 -0.3713  1.4123
 7679TIP3    H244529   3.187   1.446   0.988 -0.4184  0.0726 -0.9457
 7680TIP3   OH244530   4.812   2.877  12.185  0.1285  0.5823 -0.0355
 7680TIP3    H144531   4.894   2.867  12.232 -0.1677  1.2931  0.6544
 7680TIP3    H244532   4.804   2.971  12.170 -1.4273  0.7551  1.5464
 7681TIP3   OH244533   0.789   5.059   5.613  0.4864  0.3587  0.5368
 7681TIP3    H144534   0.735   5.101   5.546 -1.2781  0.4101  1.9202
 7681TIP3    H244535   0.762   5.101   5.695  1.2857 -0.9542  1.5070
 7682TIP3   OH244536   5.824   6.412   2.128 -0.0443  0.2470 -0.6160
 7682TIP3    H144537   5.730   6.397   2.122 -0.1017  0.5823 -0.6020
 7682TIP3    H244538   5.834   6.506   2.113  0.3365  0.1283 -1.1373
 7683TIP3   OH244539   5.084   6.388  12.121  0.5402 -0.2203 -0.5018
 7683TIP3    H144540   5.092   6.483  12.123  0.3187 -0.2038 -0.4154
 7683TIP3    H244541   5.123   6.359  12.204  0.2803 -0.1806 -0.3647
 7684TIP3   OH244542   0.174   3.407  14.103  0.2815 -0.9721  0.4067
 7684TIP3    H144543   0.160   3.407  14.198 -0.1287  0.8162  0.3783
 7684TIP3    H244544   0.269   3.408  14.093  0.3657  1.4842  0.8889
 7685TIP3   OH244545   3.233   5.882  17.016  0.1770 -0.0242  0.3031
 7685TIP3    H144546   3.202   5.908  17.103 -0.9845 -1.3757  0.3198
 7685TIP3    H244547   3.214   5.958  16.960 -2.5458 -0.4971  0.4782
 7686TIP3   OH244548   0.787   2.440  12.022  0.1053  0.1080  0.0449
 7686TIP3    H144549   0.759   2.435  12.113 -0.4034 -2.3132 -0.1857
 7686TIP3    H244550   0.863   2.382  12.017  0.3401  0.4857 -1.0043
 7687TIP3   OH244551   0.757   6.611   1.859 -0.2735  0.0014 -0.1675
 7687TIP3    H144552   0.752   6.515   1.856 -0.7083  0.0334 -0.9033
 7687TIP3    H244553   0.666   6.639   1.857 -0.1310  0.4397 -1.1863
 7688TIP3   OH244554   1.538   3.745   3.698 -0.0856  0.6395 -1.1997
 7688TIP3    H144555   1.573   3.807   3.762 -0.3047  0.3836 -0.8355
 7688TIP3    H244556   1.527   3.798   3.618  0.8727  0.7831 -1.2473
 7689TIP3   OH244557   2.774   4.753   1.340 -0.1623  0.4317 -0.1066
 7689TIP3    H144558   2.716   4.677   1.331 -0.4554  0.7688 -1.2474
 7689TIP3    H244559   2.775   4.793   1.253  0.6527  1.2614  0.2645
 7690TIP3   OH244560   5.035   1.208  17.011 -0.4387 -0.2094 -1.0952
 7690TIP3    H144561   4.978   1.131  16.999 -0.0198 -0.9340  1.0918
 7690TIP3    H244562   5.016   1.263  16.936 -1.5452 -1.9696 -2.1982
 7691TIP3   OH244563   5.050   1.328  12.869  0.2601  0.3262 -0.7545
 7691TIP3    H144564   5.139   1.317  12.836  0.7909  0.2751  0.6337
 7691TIP3    H244565   5.039   1.257  12.932  0.0097  1.6128  0.6885
 7692TIP3   OH244566   1.772   3.273  15.690  0.5594  0.4653 -0.5647
 7692TIP3    H144567   1.781   3.182  15.663 -2.1904  0.3410 -1.2853
 7692TIP3    H244568   1.763   3.322  15.609 -0.1514  1.1026 -0.1127
 7693TIP3   OH244569   0.393   3.309  14.687  0.0254 -0.5637  0.1102
 7693TIP3    H144570   0.353   3.393  14.664 -1.2675 -1.3011 -0.4166
 7693TIP3    H244571   0.348   3.245  14.632  1.8212 -1.4682 -0.3653
 7694TIP3   OH244572   0.467   0.426  16.180  0.2590 -0.4873  0.1324
 7694TIP3    H144573   0.397   0.470  16.132  1.0474  0.9834  0.2822
 7694TIP3    H244574   0.441   0.432  16.272  0.5158 -0.0420  0.1789
 7695TIP3   OH244575   3.767   4.293   5.866  0.2114 -0.3659  0.7766
 7695TIP3    H144576   3.741   4.357   5.932 -1.6196 -0.3735  0.1232
 7695TIP3    H244577   3.783   4.212   5.915 -1.1609 -0.3863  1.2230
 7696TIP3   OH244578   5.706   0.824   1.915 -0.2084  0.7026  0.3893
 7696TIP3    H144579   5.790   0.833   1.870 -0.7976  0.0541 -0.8846
 7696TIP3    H244580   5.645   0.795   1.848 -1.3836  0.7826  1.3740
 7697TIP3   OH244581   5.748   6.658  16.628 -0.0858 -0.0160 -0.5528
 7697TIP3    H144582   5.700   6.738  16.649 -0.6212 -0.3538 -0.4831
 7697TIP3    H244583   5.840   6.685  16.628 -0.3625  1.3524 -3.7289
 7698TIP3   OH244584   0.097   1.496  15.627  0.1586  0.0965 -0.3813
 7698TIP3    H144585   0.187   1.505  15.659 -0.2145  0.1064  0.6827
 7698TIP3    H244586   0.081   1.577  15.578  0.5081  0.3777 -0.0322
 7699TIP3   OH244587   0.955   3.192   2.222 -0.2201  0.9157 -0.0136
 7699TIP3    H144588   0.987   3.130   2.288  0.4647  1.8004  0.5141
 7699TIP3    H244589   0.872   3.224   2.257  0.0452  1.2343  0.3370
 7700TIP3   OH244590   6.474   0.426  12.713 -0.7922 -0.3643 -0.0294
 7700TIP3    H144591   6.569   0.436  12.717 -0.8017 -0.2136 -0.1683
 7700TIP3    H244592   6.450   0.464  12.628 -1.1453  0.9085  0.6233
 7701TIP3   OH244593   1.317   1.323   1.690  0.2054 -0.2901 -0.2245
 7701TIP3    H144594   1.291   1.245   1.641 -1.9362 -0.0052  0.3534
 7701TIP3    H244595   1.314   1.393   1.625 -0.5504 -0.2556 -0.1571
 7702TIP3   OH244596   6.265   5.230  12.043  0.8475  0.4343  0.1001
 7702TIP3    H144597   6.206   5.174  12.094  1.0786 -0.0308 -0.1417
 7702TIP3    H244598   6.303   5.289  12.108 -0.8636  1.6349  0.0872
 7703TIP3   OH244599   6.093   1.675  17.191 -0.0907 -0.0424 -0.4270
 7703TIP3    H144600   6.184   1.691  17.219 -0.1006 -0.3194 -0.2352
 7703TIP3    H244601   6.042   1.739  17.241 -0.2356 -1.2532  1.0516
 7704TIP3   OH244602   3.654   3.615  14.534  0.0791  0.6971  0.3747
 7704TIP3    H144603   3.727   3.676  14.535  0.0973  0.7086 -0.4508
 7704TIP3    H244604   3.588   3.658  14.480  0.3699 -0.3000 -0.8263
 7705TIP3   OH244605   2.226   0.624   1.713 -0.7070  0.5390  0.2471
 7705TIP3    H144606   2.315   0.628   1.750 -0.5947 -0.2463  0.0762
 7705TIP3    H244607   2.204   0.715   1.694  0.1247  0.7304  0.1594
 7706TIP3   OH244608   5.942   3.968   0.763  0.5085  0.1052 -0.4551
 7706TIP3    H144609   5.960   4.039   0.702  5.2795 -0.2302  0.2120
 7706TIP3    H244610   5.971   3.889   0.717  0.1436 -0.7392  0.7222
 7707TIP3   OH244611   6.250   1.676  16.514 -0.2331  1.1896  0.3140
 7707TIP3    H144612   6.187   1.631  16.458 -1.5210  1.1192  1.7630
 7707TIP3    H244613   6.328   1.684  16.460 -1.0307  0.0749 -1.0726
 7708TIP3   OH244614   4.851   3.298  15.475 -0.1256  0.6804  0.0727
 7708TIP3    H144615   4.928   3.344  15.443  0.3762  0.7923  1.3970
 7708TIP3    H244616   4.868   3.283  15.568 -0.8369 -1.0520 -0.0320
 7709TIP3   OH244617   6.354   0.168   0.118 -0.0651 -0.1028 -0.0750
 7709TIP3    H144618   6.337   0.248   0.068 -0.0017 -0.3473 -0.4861
 7709TIP3    H244619   6.437   0.186   0.163 -0.9199  0.7609  1.2672
 7710TIP3   OH244620   6.525   4.339   2.700 -0.5384 -0.1269  0.0575
 7710TIP3    H144621   6.558   4.356   2.788  1.8538 -2.5740 -0.2318
 7710TIP3    H244622   6.603   4.317   2.649 -1.7173  2.0937 -3.0043
 7711TIP3   OH244623   1.957   0.970  14.994 -0.3830 -0.1757 -0.1668
 7711TIP3    H144624   1.968   0.959  14.900 -1.6907 -0.2652 -0.3279
 7711TIP3    H244625   2.003   1.052  15.014 -1.3311  0.6230 -1.1410
 7712TIP3   OH244626   6.695   2.865   1.006 -0.3033 -0.3106 -0.3735
 7712TIP3    H144627   6.676   2.773   0.986 -1.6260  0.1872 -1.5911
 7712TIP3    H244628   6.790   2.870   1.007 -0.2025 -1.4968 -1.2953
 7713TIP3   OH244629   2.461   0.688   1.801 -0.9448 -0.2864  0.4171
 7713TIP3    H144630   2.530   0.744   1.765  1.0700 -1.9965  1.4061
 7713TIP3    H244631   2.469   0.698   1.896 -1.4112 -1.2537  0.5665
 7714TIP3   OH244632   3.077   4.220   0.043 -0.1521  0.5931  1.1124
 7714TIP3    H144633   3.168   4.227   0.013 -1.1762 -2.8813 -4.2109
 7714TIP3    H244634   3.067   4.127   0.065 -2.5224  0.7422  0.8379
 7715TIP3   OH244635   4.620   2.494   0.976  0.1972 -0.8191  0.4723
 7715TIP3    H144636   4.536   2.508   1.020 -0.3089 -0.1037 -0.6941
 7715TIP3    H244637   4.605   2.518   0.885  1.3159 -1.9622 -0.0560
 7716TIP3   OH244638   3.603   4.085  14.572 -0.4811  0.0997  0.1910
 7716TIP3    H144639   3.623   4.020  14.639  2.1368  2.1354  1.6053
 7716TIP3    H244640   3.554   4.153  14.619  0.8237  1.2476 -0.0348
 7717TIP3   OH244641   4.513   0.367   2.243  0.2471 -0.5942  0.0269
 7717TIP3    H144642   4.575   0.393   2.174  0.3648  0.1847  0.4151
 7717TIP3    H244643   4.429   0.401   2.213  0.4568  0.5853  0.6911
 7718TIP3   OH244644   1.849   1.561   5.257 -0.3476  0.0037  0.1295
 7718TIP3    H144645   1.800   1.534   5.180  0.6684 -2.4857  0.2464
 7718TIP3    H244646   1.869   1.653   5.242 -2.1551  0.1976 -1.4467
 7719TIP3   OH244647   3.295   2.172  11.825 -0.2771  0.6423 -0.4738
 7719TIP3    H144648   3.313   2.260  11.793 -0.3256  0.2820 -1.5164
 7719TIP3    H244649   3.224   2.140  11.770 -0.1179 -0.1273 -0.2478
 7720TIP3   OH244650   2.933   5.476   3.246 -0.3058  0.0987  0.3761
 7720TIP3    H144651   2.890   5.521   3.319  1.0175 -1.0317  1.9232
 7720TIP3    H244652   2.890   5.391   3.241  0.2706 -0.2124  0.5320
 7721TIP3   OH244653   5.614   6.496   5.100 -0.2151  0.4424  0.3246
 7721TIP3    H144654   5.608   6.552   5.023 -1.9906  0.6059  0.5351
 7721TIP3    H244655   5.665   6.420   5.071 -0.8567  0.5019 -1.0176
 7722TIP3   OH244656   3.427   3.646  14.737 -0.4160 -0.3426  0.6035
 7722TIP3    H144657   3.501   3.594  14.767 -0.3761 -0.4905  0.2528
 7722TIP3    H244658   3.419   3.625  14.644 -0.0352  0.7056  0.3126
 7723TIP3   OH244659   3.977   5.556   0.654  0.6063 -0.1238 -0.0362
 7723TIP3    H144660   3.901   5.570   0.711  2.3457  0.4130  2.2826
 7723TIP3    H244661   3.953   5.479   0.603 -0.7234 -1.2594  2.1175
 7724TIP3   OH244662   2.034   1.217  16.618  0.6755  0.3258 -0.4026
 7724TIP3    H144663   1.968   1.281  16.641 -0.7196 -1.2829  0.2995
 7724TIP3    H244664   2.034   1.217  16.522 -0.2524  0.4576 -0.4130
 7725TIP3   OH244665   3.020   5.922   3.091  0.1417 -0.1703  0.0652
 7725TIP3    H144666   3.089   5.940   3.028 -0.4198 -0.4021 -0.6246
 7725TIP3    H244667   3.003   5.828   3.082  0.2860 -0.2739  0.8029
 7726TIP3   OH244668   0.601   6.054   0.038  0.1859 -0.1360  0.3953
 7726TIP3    H144669   0.509   6.074   0.055  0.0272 -1.1452  0.7604
 7726TIP3    H244670   0.602   5.962   0.014  0.8737  0.3003 -1.4772
 7727TIP3   OH244671   1.277   0.054   4.650  0.2209  0.7587 -0.0500
 7727TIP3    H144672   1.245   0.140   4.678  0.6709  0.9983 -0.2619
 7727TIP3    H244673   1.256  -0.004   4.722  0.9084  1.2663  0.5790
 7728TIP3   OH244674   1.446   4.374  13.005 -0.1693 -0.4779 -0.4442
 7728TIP3    H144675   1.440   4.279  12.989 -0.6832 -0.6204  0.5168
 7728TIP3    H244676   1.531   4.385  13.048 -1.1945 -0.8882  1.8098
 7729TIP3   OH244677   5.256   2.904   1.148  0.9248 -0.4106  0.5255
 7729TIP3    H144678   5.284   2.857   1.070 -0.5264 -1.5860  0.6651
 7729TIP3    H244679   5.189   2.964   1.117  1.9217  0.7592  0.5454
 7730TIP3   OH244680   1.018   0.223   5.471  0.5918 -0.1109  0.0809
 7730TIP3    H144681   0.944   0.284   5.469  1.1155  0.5686  0.8950
 7730TIP3    H244682   1.077   0.259   5.536  2.2764  0.0752 -1.4755
 7731TIP3   OH244683   0.834   1.528  13.460  0.2239 -0.0008  0.2362
 7731TIP3    H144684   0.802   1.561  13.544  2.9568  1.2371  0.9214
 7731TIP3    H244685   0.834   1.605  13.403  0.2164 -0.3977 -0.3059
 7732TIP3   OH244686   0.018   0.155  13.268  0.9136  0.5310  0.2716
 7732TIP3    H144687   0.043   0.123  13.182 -0.9732  1.2586 -0.6050
 7732TIP3    H244688   0.024   0.079  13.325  3.5174  0.3339 -0.1339
 7733TIP3   OH244689   4.380   2.595   2.001  0.5659 -0.0554 -0.0656
 7733TIP3    H144690   4.387   2.691   2.003  0.1174 -0.0225  0.1450
 7733TIP3    H244691   4.319   2.575   2.072 -0.4655 -0.3967 -1.0361
 7734TIP3   OH244692   5.092   0.798   0.255  0.4825  0.4288  0.1262
 7734TIP3    H144693   4.998   0.806   0.241  0.3841 -1.2834 -0.4582
 7734TIP3    H244694   5.110   0.853   0.331 -0.7594  1.7928 -0.5273
 7735TIP3   OH244695   0.167   6.229  13.971 -0.1648 -0.0530 -0.4328
 7735TIP3    H144696   0.168   6.196  13.881  1.2642 -1.8606  0.1744
 7735TIP3    H244697   0.106   6.172  14.017 -1.9286  1.7081 -0.4918
 7736TIP3   OH244698   0.386   1.618  16.421 -0.8480  0.4330 -0.0369
 7736TIP3    H144699   0.475   1.627  16.387 -0.9592 -0.4128 -0.5805
 7736TIP3    H244700   0.345   1.553  16.364 -1.0305 -1.0944  1.7422
 7737TIP3   OH244701   0.759   4.557   1.150  0.8326 -0.2162 -0.1132
 7737TIP3    H144702   0.771   4.462   1.153  0.1816 -0.3190 -0.7175
 7737TIP3    H244703   0.674   4.572   1.191  0.8141  0.0837 -0.2608
 7738TIP3   OH244704   3.577   4.394   4.752 -0.5369  0.4367 -0.0211
 7738TIP3    H144705   3.642   4.440   4.805 -0.8265 -0.9569  1.6147
 7738TIP3    H244706   3.585   4.434   4.665  2.3867  0.4277  0.1334
 7739TIP3   OH244707   4.225   5.439   3.764  0.1959 -0.3531  0.2630
 7739TIP3    H144708   4.290   5.475   3.824 -0.6436  0.5298  0.6752
 7739TIP3    H244709   4.177   5.515   3.733 -0.0524 -0.9040 -0.7420
 7740TIP3   OH244710   5.695   1.326  17.183  0.1097  0.3480 -0.4336
 7740TIP3    H144711   5.755   1.400  17.196 -0.8979  1.2341 -0.6481
 7740TIP3    H244712   5.608   1.365  17.186 -0.4321 -0.7302 -1.2294
 7741TIP3   OH244713   6.337   4.814   1.756  0.2387 -0.2812  0.3305
 7741TIP3    H144714   6.353   4.728   1.717 -0.9841 -0.0647 -0.7066
 7741TIP3    H244715   6.401   4.871   1.715  1.8744 -0.8918  1.9118
 7742TIP3   OH244716   4.365   5.611  14.401 -0.3104  0.0625 -0.0845
 7742TIP3    H144717   4.422   5.614  14.324  2.7462 -0.7054  1.9826
 7742TIP3    H244718   4.376   5.696  14.443  0.6081 -0.6538  1.1699
 7743TIP3   OH244719   6.080   3.272  11.434 -0.2516 -0.6872 -0.0523
 7743TIP3    H144720   6.008   3.320  11.393  0.1230 -0.1297 -0.0617
 7743TIP3    H244721   6.129   3.235  11.360 -0.3114 -0.7624 -0.0555
 7744TIP3   OH244722   2.547   1.057   1.854  0.2117 -0.0122  0.0870
 7744TIP3    H144723   2.473   1.053   1.914  0.4911  3.3921  0.8630
 7744TIP3    H244724   2.514   1.104   1.777  1.6349  2.2250  0.7490
 7745TIP3   OH244725   3.883   4.979  16.224 -0.3300  0.0783  0.0513
 7745TIP3    H144726   3.861   5.047  16.160 -0.3297  1.2969  1.3028
 7745TIP3    H244727   3.969   4.947  16.196  1.6305  3.3996  1.5407
 7746TIP3   OH244728   4.496   4.525  12.964 -0.5624  0.1860  0.1179
 7746TIP3    H144729   4.540   4.483  13.037 -0.6180 -0.1651 -0.0480
 7746TIP3    H244730   4.403   4.506  12.977 -0.6238  0.5671  0.2388
 7747TIP3   OH244731   1.764   1.127   4.998 -0.4907 -0.3068 -0.3271
 7747TIP3    H144732   1.846   1.174   4.982 -0.4547 -0.0795  0.4942
 7747TIP3    H244733   1.731   1.107   4.911  0.1667  0.0777 -0.6727
 7748TIP3   OH244734   0.465   0.611   4.605 -0.7073 -0.0268  0.4798
 7748TIP3    H144735   0.393   0.548   4.597 -0.3393 -0.4714  0.5936
 7748TIP3    H244736   0.461   0.640   4.697  0.5249 -1.6285  1.0882
 7749TIP3   OH244737   3.364   5.514  12.226  0.5305 -0.2057  0.2784
 7749TIP3    H144738   3.453   5.523  12.192  0.3969  1.2148  0.2376
 7749TIP3    H244739   3.350   5.420  12.231  1.3941 -0.4584 -1.3887
 7750TIP3   OH244740   5.367   5.116   4.737 -0.3670 -0.4304  0.0355
 7750TIP3    H144741   5.374   5.028   4.774  0.6388 -1.0990 -1.6373
 7750TIP3    H244742   5.456   5.140   4.712 -0.7938  0.5497 -0.6562
 7751TIP3   OH244743   2.766   0.202   4.015 -0.0279  0.4975 -0.1634
 7751TIP3    H144744   2.731   0.118   3.989  1.1958  0.2232 -0.9840
 7751TIP3    H244745   2.798   0.188   4.105 -0.3656  0.2577 -0.0805
 7752TIP3   OH244746   3.555   0.932  11.034  0.1993 -0.0826  0.3349
 7752TIP3    H144747   3.593   0.942  10.947  0.2037  1.0415  0.4590
 7752TIP3    H244748   3.463   0.907  11.018  0.2969 -0.2418  0.0211
 7753TIP3   OH244749   5.599   4.634  16.277  0.3277  0.4472  0.1742
 7753TIP3    H144750   5.669   4.612  16.216  1.3721  1.8977  0.8133
 7753TIP3    H244751   5.634   4.610  16.363 -0.5473 -0.1677  0.3793
 7754TIP3   OH244752   6.005   0.352  14.115  0.0627  0.2044  0.2808
 7754TIP3    H144753   6.072   0.420  14.114 -0.5741  0.8588 -1.3936
 7754TIP3    H244754   6.054   0.270  14.124  1.2247  0.5823 -1.8858
 7755TIP3   OH244755   1.468   4.794   2.166  0.0805  0.4603 -0.2867
 7755TIP3    H144756   1.397   4.850   2.199  0.1248  0.4571 -0.1862
 7755TIP3    H244757   1.423   4.717   2.130  0.0179  0.5730 -0.4511
 7756TIP3   OH244758   1.768   2.066  11.028 -0.0289 -0.1758 -0.0328
 7756TIP3    H144759   1.823   2.136  10.992 -0.1416  1.3362  2.5181
 7756TIP3    H244760   1.828   1.994  11.045  0.7451  0.5772  0.4841
 7757TIP3   OH244761   0.211   4.044   5.892  0.5400 -0.2551  0.5655
 7757TIP3    H144762   0.125   4.029   5.854  0.6510  0.6461 -0.0723
 7757TIP3    H244763   0.272   4.030   5.820  0.8050  0.8077  0.5768
 7758TIP3   OH244764   0.379   4.814   0.962 -0.3978  0.2792  0.6367
 7758TIP3    H144765   0.319   4.846   0.895  0.7935  2.5865  0.5618
 7758TIP3    H244766   0.402   4.892   1.012  0.7788 -0.9410  2.0724
 7759TIP3   OH244767   5.565   2.923   1.954  0.1208  0.5278  0.0661
 7759TIP3    H144768   5.558   2.948   1.862  0.7091 -0.5817 -0.2916
 7759TIP3    H244769   5.638   2.861   1.957  0.9394  1.4997  1.4881
 7760TIP3   OH244770   1.384   4.249   3.366  0.0873  0.2581  0.0684
 7760TIP3    H144771   1.405   4.214   3.453  1.1133  1.2454  0.2341
 7760TIP3    H244772   1.332   4.327   3.384 -1.9229 -0.9168 -0.2955
 7761TIP3   OH244773   3.079   4.594   4.711  0.0568 -0.2168  0.5298
 7761TIP3    H144774   3.166   4.634   4.707  1.6121 -3.2420  1.3765
 7761TIP3    H244775   3.046   4.601   4.621  2.7944 -2.1445 -0.7981
 7762TIP3   OH244776   2.298   4.978  14.851 -0.2347 -0.3474 -0.0251
 7762TIP3    H144777   2.352   5.043  14.896 -1.6907  0.7492  0.2333
 7762TIP3    H244778   2.319   4.989  14.759 -0.4412  0.5096  0.0183
 7763TIP3   OH244779   4.048   1.816  14.890  0.2115  0.3710 -0.4202
 7763TIP3    H144780   4.067   1.856  14.805  1.4055  1.9866  0.5569
 7763TIP3    H244781   4.010   1.887  14.942  1.7626  0.0952  1.1578
 7764TIP3   OH244782   0.581   4.343  16.941  0.0249 -0.2201  0.2048
 7764TIP3    H144783   0.649   4.277  16.956  0.1004 -0.0588  0.5919
 7764TIP3    H244784   0.523   4.304  16.876 -0.0746 -0.7785  0.6170
 7765TIP3   OH244785   3.595   2.436  17.128  0.3384 -0.8377 -0.0550
 7765TIP3    H144786   3.562   2.525  17.115 -0.5020 -1.2394 -0.7637
 7765TIP3    H244787   3.683   2.449  17.163 -0.1796  0.2604  0.9115
 7766TIP3   OH244788   3.345   6.821   0.470 -0.5934 -0.3393  0.2039
 7766TIP3    H144789   3.306   6.785   0.549  4.1149 -0.4102  2.8613
 7766TIP3    H244790   3.340   6.916   0.482  0.8749 -0.3533  1.0999
 7767TIP3   OH244791   5.888   1.581   5.015 -0.3797  0.0998  0.1304
 7767TIP3    H144792   5.887   1.489   4.988  1.8554 -0.6596  2.2306
 7767TIP3    H244793   5.805   1.593   5.061 -1.2850 -0.4515 -1.2949
 7768TIP3   OH244794   4.826   3.460  12.410 -0.1396 -0.2037 -0.5700
 7768TIP3    H144795   4.748   3.405  12.397  0.1384 -1.6334  2.8092
 7768TIP3    H244796   4.812   3.501  12.496  2.1172  0.8017 -0.6179
 7769TIP3   OH244797   5.498   0.760  12.410  0.2332  0.4763 -0.0461
 7769TIP3    H144798   5.498   0.853  12.431 -2.0361 -0.0236  2.9229
 7769TIP3    H244799   5.552   0.720  12.478 -0.2729 -0.5158 -0.2049
 7770TIP3   OH244800   0.627   0.672   2.969 -0.2747  0.4500 -0.5303
 7770TIP3    H144801   0.536   0.685   2.997  0.1592  2.3587  0.1286
 7770TIP3    H244802   0.678   0.730   3.025  1.5626 -1.7049  0.1756
 7771TIP3   OH244803   3.295   1.709  12.499  0.6236  0.9693  0.7915
 7771TIP3    H144804   3.207   1.700  12.461  1.1507 -0.1714 -0.2359
 7771TIP3    H244805   3.279   1.723  12.592 -0.6418 -0.1067  0.7752
 7772TIP3   OH244806   2.374   2.249   3.288  0.7571  0.0530  0.3307
 7772TIP3    H144807   2.295   2.257   3.233  0.4597 -3.0530  0.0858
 7772TIP3    H244808   2.446   2.270   3.229  0.2277  0.3513 -0.2214
 7773TIP3   OH244809   2.308   1.670  13.657  0.1071 -0.3841 -0.0920
 7773TIP3    H144810   2.382   1.622  13.618 -0.4193 -0.4464 -1.0452
 7773TIP3    H244811   2.324   1.666  13.751  2.5122  1.4993 -0.3114
 7774TIP3   OH244812   6.449   0.505  14.523 -0.0741 -0.3266 -0.1300
 7774TIP3    H144813   6.455   0.600  14.524 -1.4356 -0.1940 -1.0480
 7774TIP3    H244814   6.472   0.480  14.433 -1.9724 -0.6293 -0.5846
 7775TIP3   OH244815   3.619   1.878   6.880  0.3087  0.1224  0.5834
 7775TIP3    H144816   3.638   1.784   6.887 -0.4504 -0.0211  0.8219
 7775TIP3    H244817   3.650   1.902   6.793  0.6561 -0.3136  0.5823
 7776TIP3   OH244818   2.408   5.874  11.566  0.4078  0.6785  0.8796
 7776TIP3    H144819   2.455   5.821  11.502  2.1741  3.2492 -0.0944
 7776TIP3    H244820   2.318   5.842  11.561  1.2675 -1.8863  0.0841
 7777TIP3   OH244821   0.390   1.079   4.690 -0.0907 -0.8007 -0.3258
 7777TIP3    H144822   0.319   1.041   4.742 -0.5646 -0.3575 -0.6460
 7777TIP3    H244823   0.434   1.139   4.749 -0.8814  0.0112 -0.5352
 7778TIP3   OH244824   0.188   4.371  14.154 -0.0830  0.0316 -0.4572
 7778TIP3    H144825   0.203   4.327  14.070 -0.1708  0.8293 -0.9001
 7778TIP3    H244826   0.115   4.431  14.136 -1.7564 -1.5139  0.8203
 7779TIP3   OH244827   4.180   2.086   2.689 -0.0379 -0.2957 -1.0415
 7779TIP3    H144828   4.232   2.016   2.649  0.4868 -0.4584 -0.1181
 7779TIP3    H244829   4.240   2.160   2.695  0.3209 -0.6605  0.5541
 7780TIP3   OH244830   4.980   1.379  13.963  0.4152  0.1891  0.4598
 7780TIP3    H144831   4.900   1.337  13.934  0.2600  0.0764  1.0333
 7780TIP3    H244832   4.954   1.429  14.041  0.2223  2.7255 -1.1158
 7781TIP3   OH244833   3.130   5.365  12.493  0.6573 -0.1151  0.4754
 7781TIP3    H144834   3.101   5.362  12.584 -1.3757 -0.8152 -0.1451
 7781TIP3    H244835   3.094   5.447  12.459  2.0187  0.5023  0.4650
 7782TIP3   OH244836   5.493   0.818  14.246 -0.0532 -0.0995 -0.4401
 7782TIP3    H144837   5.454   0.733  14.268 -0.5775  0.4862  1.0621
 7782TIP3    H244838   5.436   0.854  14.178 -0.1590 -0.6959 -0.6745
 7783TIP3   OH244839   1.921   6.038  10.518  0.6828  0.0361  0.0843
 7783TIP3    H144840   1.835   5.996  10.521  0.5150  0.2870 -0.8721
 7783TIP3    H244841   1.954   6.019  10.430  1.7252 -0.2761  0.5330
 7784TIP3   OH244842   1.966   0.407   1.829  0.1124  0.5414 -0.0143
 7784TIP3    H144843   1.935   0.393   1.918 -0.3387  1.4002 -0.0296
 7784TIP3    H244844   2.062   0.403   1.836  0.0652 -0.1569  0.3652
 7785TIP3   OH244845   5.869   2.309  11.042  0.0297  0.4163 -0.1649
 7785TIP3    H144846   5.916   2.227  11.027  0.9633  1.0559 -0.9149
 7785TIP3    H244847   5.791   2.302  10.987  0.3807  0.2495 -0.6539
 7786TIP3   OH244848   1.497   5.345   2.207 -0.0072 -0.5421 -0.1039
 7786TIP3    H144849   1.554   5.277   2.172 -1.3605 -0.8936 -1.7483
 7786TIP3    H244850   1.454   5.305   2.282 -0.7489 -1.5079 -1.0236
 7787TIP3   OH244851   0.962   3.306   1.561 -0.1460 -0.7483  0.1092
 7787TIP3    H144852   0.966   3.395   1.596 -2.1698 -0.3954 -0.4295
 7787TIP3    H244853   0.904   3.259   1.622  3.4537 -2.7402  2.3477
 7788TIP3   OH244854   4.253   0.650   4.202 -0.6291  0.1780  0.0261
 7788TIP3    H144855   4.241   0.564   4.243  2.0043 -0.2768  0.0259
 7788TIP3    H244856   4.268   0.710   4.275 -2.7730  0.7669  0.0470
 7789TIP3   OH244857   0.456   2.260   5.810  0.4412  0.3018  0.4518
 7789TIP3    H144858   0.453   2.340   5.863 -1.6139 -0.0778  1.0139
 7789TIP3    H244859   0.495   2.287   5.727 -0.4109  1.9536  0.5530
 7790TIP3   OH244860   4.649   6.656  13.977  0.3831  0.4714 -0.2642
 7790TIP3    H144861   4.702   6.724  13.935  1.9827 -0.4330  0.2029
 7790TIP3    H244862   4.626   6.693  14.062 -0.4284  1.1892 -0.7904
 7791TIP3   OH244863   0.936   2.561   5.529 -0.0331 -0.0958  0.4021
 7791TIP3    H144864   0.955   2.653   5.511 -1.2667  0.2740  0.8790
 7791TIP3    H244865   0.842   2.553   5.512 -0.0145 -1.1779  0.7656
 7792TIP3   OH244866   3.143   5.212  15.899  0.0047 -0.3495  0.2711
 7792TIP3    H144867   3.154   5.209  15.804 -0.4960 -0.1544  0.2080
 7792TIP3    H244868   3.049   5.202  15.913 -0.0272  0.4771  0.7038
 7793TIP3   OH244869   2.929   4.988  16.839 -0.4640  0.0681  0.2183
 7793TIP3    H144870   3.008   5.009  16.889 -0.6341 -0.7414  0.8345
 7793TIP3    H244871   2.941   4.898  16.811 -1.0369  0.0390  0.0558
 7794TIP3   OH244872   0.269   3.700  12.044 -0.2491 -0.2785  0.8404
 7794TIP3    H144873   0.197   3.720  11.983 -0.8015 -1.3285  1.1335
 7794TIP3    H244874   0.308   3.786  12.063 -1.0752  0.2459  0.2536
 7795TIP3   OH244875   2.108   0.039   4.546  0.1897  0.6086  0.2327
 7795TIP3    H144876   2.116   0.130   4.520  0.9854  0.6739  0.6967
 7795TIP3    H244877   2.106  -0.009   4.463 -0.7811  1.0680 -0.0344
 7796TIP3   OH244878   5.937   4.916  15.657  0.2062 -0.0515 -0.6986
 7796TIP3    H144879   5.865   4.880  15.605 -0.6545  0.4118  0.1525
 7796TIP3    H244880   6.007   4.931  15.593  0.8677 -3.7246 -1.0054
 7797TIP3   OH244881   3.840   6.317  11.083  0.2338 -0.1076 -0.2963
 7797TIP3    H144882   3.902   6.354  11.020  1.5241 -0.3577  0.7831
 7797TIP3    H244883   3.893   6.301  11.162 -1.1879 -0.4222  0.6252
 7798TIP3   OH244884   4.874   4.220  13.936 -0.2801 -0.4730  0.0364
 7798TIP3    H144885   4.803   4.240  13.874 -0.8494 -0.1690  0.7641
 7798TIP3    H244886   4.844   4.258  14.019  0.7634 -0.3072  0.3486
 7799TIP3   OH244887   2.031   0.023   1.125 -0.3233 -0.5015 -0.1176
 7799TIP3    H144888   2.106   0.080   1.110 -0.7189  0.0297 -0.1056
 7799TIP3    H244889   2.068  -0.057   1.161  0.1871 -0.0471  0.3891
 7800TIP3   OH244890   6.201   4.189   0.913 -0.2110 -0.1371  0.2096
 7800TIP3    H144891   6.273   4.222   0.966 -0.8946  1.8934 -0.0480
 7800TIP3    H244892   6.243   4.130   0.850  1.1554  0.5905  0.3996
 7801TIP3   OH244893   5.210   2.706   5.748  0.4846 -0.0124 -0.1423
 7801TIP3    H144894   5.179   2.772   5.686  0.0676  0.2864  0.3662
 7801TIP3    H244895   5.166   2.729   5.830  2.5406  0.8492  0.8058
 7802TIP3   OH244896   3.039   2.583  12.046  0.3306 -0.3327  0.3398
 7802TIP3    H144897   2.964   2.633  12.079 -0.1975  1.2195 -2.8155
 7802TIP3    H244898   3.004   2.535  11.971  2.0272 -1.3492  0.1544
 7803TIP3   OH244899   2.365   2.756  11.725  0.8413  0.7967 -0.1786
 7803TIP3    H144900   2.377   2.770  11.631  0.4032  0.9087 -0.2200
 7803TIP3    H244901   2.333   2.840  11.758 -0.5643  0.3011 -0.2038
 7804TIP3   OH244902   1.769   2.946   0.068  0.2288 -0.4725  0.3421
 7804TIP3    H144903   1.805   2.987  -0.011 -1.6053  0.2031 -0.1953
 7804TIP3    H244904   1.779   2.852   0.053  0.1177 -0.3473 -0.5940
 7805TIP3   OH244905   5.811   3.771   2.773 -0.2356  0.0735  0.7507
 7805TIP3    H144906   5.816   3.843   2.710  2.2099  0.5097  1.3115
 7805TIP3    H244907   5.793   3.814   2.856 -0.2263 -0.1137  0.8483
 7806TIP3   OH244908   1.339   0.610   4.243 -0.1026  0.5734  0.0123
 7806TIP3    H144909   1.411   0.670   4.227 -0.9337  1.7207  0.4537
 7806TIP3    H244910   1.366   0.528   4.201  1.0271  1.2552 -0.6350
 7807TIP3   OH244911   4.567   1.880   5.439  0.1271 -0.1435  0.6388
 7807TIP3    H144912   4.484   1.834   5.429 -0.7006  1.3638  0.3101
 7807TIP3    H244913   4.559   1.927   5.521  0.3421  0.6108  0.2405
 7808TIP3   OH244914   1.093   6.078  14.141  0.4133  0.4929 -0.4855
 7808TIP3    H144915   1.185   6.075  14.115  0.5974 -2.3590  0.1603
 7808TIP3    H244916   1.045   6.095  14.060  1.2886 -2.8399 -1.8485
 7809TIP3   OH244917   0.710   0.769  14.802  0.5419  0.8311 -0.2015
 7809TIP3    H144918   0.763   0.722  14.739 -0.2178 -1.2393  0.6345
 7809TIP3    H244919   0.676   0.702  14.861 -4.4593  1.5946 -1.6918
 7810TIP3   OH244920   2.606   2.455  15.546 -0.1246 -0.0293  0.1914
 7810TIP3    H144921   2.687   2.434  15.500 -0.0841 -3.2239  1.4883
 7810TIP3    H244922   2.626   2.535  15.595  1.9484 -0.2342 -0.2391
 7811TIP3   OH244923   1.128   2.049  17.181  0.5659 -0.6502 -0.0912
 7811TIP3    H144924   1.147   2.034  17.274  1.5411 -1.2860 -0.3748
 7811TIP3    H244925   1.180   1.983  17.135 -3.0395 -3.2597 -0.9271
 7812TIP3   OH244926   1.689   5.869   0.921  0.2279  0.7315 -0.3926
 7812TIP3    H144927   1.711   5.785   0.961 -2.8338  0.3147  0.6769
 7812TIP3    H244928   1.668   5.847   0.830 -0.6866  0.2794 -0.0845
 7813TIP3   OH244929   3.236   4.731  17.033  0.2121 -0.0019  0.0977
 7813TIP3    H144930   3.173   4.714  17.103 -0.1247 -1.3339 -0.4881
 7813TIP3    H244931   3.272   4.645  17.011  0.3051  0.3712 -1.3663
 7814TIP3   OH244932   6.425   2.490  12.561  0.7317 -0.5525  0.0578
 7814TIP3    H144933   6.398   2.398  12.570 -2.2979  0.1958 -0.2046
 7814TIP3    H244934   6.388   2.533  12.638 -0.2376  0.8791 -1.1656
 7815TIP3   OH244935   4.568   0.552  12.518  0.5217 -0.2586  0.1748
 7815TIP3    H144936   4.651   0.580  12.480  0.6781 -0.0286  0.6774
 7815TIP3    H244937   4.579   0.565  12.612 -0.5311  0.9716  0.1507
 7816TIP3   OH244938   4.039   5.226   3.942  0.0287 -0.1947  0.0390
 7816TIP3    H144939   4.033   5.143   3.894  1.8486 -1.0642  1.2067
 7816TIP3    H244940   4.121   5.266   3.912 -0.5130  0.8898 -0.0462
 7817TIP3   OH244941   0.383   0.199   0.441 -0.3412 -0.3781 -0.0109
 7817TIP3    H144942   0.441   0.271   0.465 -1.4132  0.2314  0.8234
 7817TIP3    H244943   0.442   0.125   0.426  0.6204  0.0964  1.2645
 7818TIP3   OH244944   4.040   4.848  12.444 -0.2983  0.6916  0.3134
 7818TIP3    H144945   4.087   4.898  12.511  1.1067 -0.0488 -0.0937
 7818TIP3    H244946   3.965   4.811  12.491 -1.2873  2.9506  0.6790
 7819TIP3   OH244947   4.331   4.638  14.897 -0.1200 -0.0844  0.3676
 7819TIP3    H144948   4.338   4.579  14.972 -1.2060 -0.2525  0.3539
 7819TIP3    H244949   4.359   4.723  14.932  1.5014 -0.5770  0.3728
 7820TIP3   OH244950   6.543   4.598  10.870 -0.3924  0.5766 -0.7862
 7820TIP3    H144951   6.451   4.591  10.896 -0.1262  0.9368  0.2788
 7820TIP3    H244952   6.561   4.515  10.825 -0.7552 -0.2714  0.5680
 7821TIP3   OH244953   4.926   3.487  14.221  0.1121  0.1377 -0.4081
 7821TIP3    H144954   4.936   3.557  14.285  0.9791 -1.6547  1.5171
 7821TIP3    H244955   4.964   3.522  14.140 -0.1259  2.1089  0.2972
 7822TIP3   OH244956   6.389   3.158   2.212  0.2160  0.6989 -0.2486
 7822TIP3    H144957   6.433   3.157   2.297 -0.5753 -0.3592  0.1774
 7822TIP3    H244958   6.431   3.087   2.163  0.4768  1.1253 -0.6592
 7823TIP3   OH244959   0.376   1.727   3.163  0.3908 -0.3608 -0.3169
 7823TIP3    H144960   0.372   1.636   3.132 -0.0570 -0.3220 -0.3719
 7823TIP3    H244961   0.465   1.755   3.142  0.2543 -0.4965 -1.1007
 7824TIP3   OH244962   2.083   3.413   4.167 -0.2157 -0.1334  0.1520
 7824TIP3    H144963   2.166   3.452   4.140  0.3280 -0.4740  1.2644
 7824TIP3    H244964   2.040   3.388   4.085  1.6210 -1.6837 -0.4159
 7825TIP3   OH244965   4.900   0.798  11.926 -0.9101 -0.0036 -0.5664
 7825TIP3    H144966   4.808   0.776  11.943 -0.8708 -0.0949 -0.4720
 7825TIP3    H244967   4.906   0.892  11.942 -0.8854 -0.0773 -0.1266
 7826TIP3   OH244968   3.595   4.688  14.261 -0.0347 -0.0984 -0.0225
 7826TIP3    H144969   3.651   4.696  14.183  0.1641 -1.9225 -0.1157
 7826TIP3    H244970   3.610   4.598  14.291 -2.6880 -0.5604  0.1310
 7827TIP3   OH244971   6.730   3.682   5.944 -0.2838 -0.2647  0.0470
 7827TIP3    H144972   6.816   3.672   5.986 -0.0170 -1.5800 -0.7846
 7827TIP3    H244973   6.723   3.608   5.885 -1.6041  0.3570 -0.6110
 7828TIP3   OH244974   4.686   4.615   2.175  0.2260 -0.4168  0.0356
 7828TIP3    H144975   4.636   4.533   2.181  0.8407 -0.7129  1.4439
 7828TIP3    H244976   4.679   4.640   2.083 -1.3937 -1.1469 -0.0757
 7829TIP3   OH244977   2.440   1.373  12.311 -0.7369 -0.1977  0.1341
 7829TIP3    H144978   2.399   1.291  12.339 -0.7862 -0.3793 -0.4618
 7829TIP3    H244979   2.524   1.346  12.273  0.6572  0.2672  2.6111
 7830TIP3   OH244980   4.115   4.378   5.778 -0.0718  0.4950  0.3533
 7830TIP3    H144981   4.173   4.303   5.764 -0.6256  0.3693 -1.6705
 7830TIP3    H244982   4.031   4.350   5.742 -0.4994  1.7971  0.2879
 7831TIP3   OH244983   3.845   6.412   5.206 -0.5220  0.1494 -0.5544
 7831TIP3    H144984   3.848   6.409   5.110 -1.2909  1.5428 -0.6429
 7831TIP3    H244985   3.752   6.408   5.227 -0.4249  1.0569  0.0806
 7832TIP3   OH244986   0.186   2.598   1.089  0.6018  0.8127  0.0954
 7832TIP3    H144987   0.269   2.621   1.048  0.3539  1.4599 -0.0583
 7832TIP3    H244988   0.150   2.528   1.035  0.1987  1.7716 -0.9174
 7833TIP3   OH244989   5.063   3.226   3.516 -0.0652 -0.3107 -0.6283
 7833TIP3    H144990   5.052   3.311   3.472  0.5123  0.6646  0.9915
 7833TIP3    H244991   4.975   3.201   3.543 -0.2339 -0.2098 -1.0759
 7834TIP3   OH244992   3.574   5.789   1.372  0.7955  0.2757 -0.5027
 7834TIP3    H144993   3.588   5.695   1.363  0.6419  0.1056  0.7959
 7834TIP3    H244994   3.660   5.828   1.352  0.9288 -0.1481 -0.7772
 7835TIP3   OH244995   3.191   2.952   5.705 -0.0055 -0.2560 -0.1025
 7835TIP3    H144996   3.123   2.994   5.652  0.4139  1.2372  0.4800
 7835TIP3    H244997   3.158   2.863   5.720 -1.4551  0.1813 -0.4975
 7836TIP3   OH244998   4.419   1.961  16.204 -0.1712 -0.1440 -0.1096
 7836TIP3    H144999   4.402   2.017  16.280  0.9247 -0.1106  0.1237
 7836TIP3    H245000   4.449   1.878  16.241 -0.7602 -0.5299 -0.4828
 7837TIP3   OH245001   0.931   4.354   1.339 -0.0278  0.0251 -0.1807
 7837TIP3    H145002   0.975   4.295   1.401  1.9726  2.2887  0.6834
 7837TIP3    H245003   0.849   4.309   1.319  1.0691 -2.7183  0.9273
 7838TIP3   OH245004   2.426   2.732   5.018 -0.1970 -0.2529  0.0823
 7838TIP3    H145005   2.494   2.664   5.025 -0.4579 -0.7870 -1.9770
 7838TIP3    H245006   2.475   2.814   5.024  0.7218 -0.6264 -1.5300
 7839TIP3   OH245007   5.975   4.786  13.804 -0.5441  0.2021 -0.4622
 7839TIP3    H145008   6.015   4.780  13.891 -0.4533 -1.0847 -0.5793
 7839TIP3    H245009   5.964   4.880  13.789 -1.1405  0.4396  1.2165
 7840TIP3   OH245010   5.527   3.479   1.795  0.0595 -0.4018  0.4864
 7840TIP3    H145011   5.613   3.518   1.777 -1.5384  2.5135 -1.8580
 7840TIP3    H245012   5.538   3.386   1.777  2.7337 -0.1181  0.3230
 7841TIP3   OH245013   5.991   2.700   5.091 -0.3154  0.5909  0.0579
 7841TIP3    H145014   6.008   2.793   5.072  2.6645  0.2931  0.7520
 7841TIP3    H245015   6.011   2.655   5.009 -0.2446  0.4372  0.1598
 7842TIP3   OH245016   4.006   5.364   1.430 -0.4404  0.2716 -0.8908
 7842TIP3    H145017   3.974   5.454   1.424 -1.1496  0.0411 -0.6020
 7842TIP3    H245018   4.095   5.369   1.396 -0.5285  1.0526 -1.0382
 7843TIP3   OH245019   4.308   3.301  11.201  0.1049 -0.2472 -0.0489
 7843TIP3    H145020   4.369   3.330  11.269  0.7119  3.0334 -1.7702
 7843TIP3    H245021   4.355   3.314  11.119 -2.0757  0.1793 -1.3106
 7844TIP3   OH245022   2.387   0.050   2.513  0.3604 -0.0734 -0.7115
 7844TIP3    H145023   2.303   0.057   2.468 -0.2415 -1.1857  0.1730
 7844TIP3    H245024   2.414   0.140   2.528 -0.6978  0.3023 -0.9666
 7845TIP3   OH245025   4.682   1.821  12.763  0.1379 -0.1798  0.3395
 7845TIP3    H145026   4.605   1.765  12.776  0.4311 -0.7783 -0.4415
 7845TIP3    H245027   4.744   1.791  12.830  0.5573 -1.2808 -0.5267
 7846TIP3   OH245028   5.539   6.771   2.670 -0.4404 -0.0076 -1.1317
 7846TIP3    H145029   5.558   6.705   2.737  0.3229  0.4270 -0.9198
 7846TIP3    H245030   5.610   6.834   2.676 -2.1905  1.9649  0.0459
 7847TIP3   OH245031   6.749   2.470  16.636  0.2452  0.1526  0.3342
 7847TIP3    H145032   6.685   2.539  16.652  0.2770 -0.0177  1.2473
 7847TIP3    H245033   6.705   2.390  16.664  0.8815  0.0437  1.0296
 7848TIP3   OH245034   6.265   1.294  14.294  0.7679 -0.1134  0.2961
 7848TIP3    H145035   6.221   1.233  14.353  0.0406  0.7964  0.7226
 7848TIP3    H245036   6.197   1.358  14.271  0.6626 -1.0452 -2.4525
 7849TIP3   OH245037   4.396   3.132  16.543 -0.1519 -0.0738  0.7309
 7849TIP3    H145038   4.383   3.156  16.634  1.5267 -1.3420  1.3571
 7849TIP3    H245039   4.317   3.084  16.519 -0.2816 -0.3881  1.7518
 7850TIP3   OH245040   6.602   3.107  14.478 -0.5701 -0.3286  0.5534
 7850TIP3    H145041   6.612   3.199  14.454 -4.0949  0.5752  1.9501
 7850TIP3    H245042   6.642   3.100  14.564 -0.7543  0.0270  0.6692
 7851TIP3   OH245043   5.051   0.820  11.399  0.0200  0.3707 -0.2762
 7851TIP3    H145044   5.137   0.838  11.363 -0.2313  0.5629 -0.7804
 7851TIP3    H245045   5.061   0.834  11.494  0.9696 -1.2574 -0.1107
 7852TIP3   OH245046   5.407   6.409  14.642  0.1772 -0.1405  0.2080
 7852TIP3    H145047   5.384   6.348  14.572  1.1088  0.5295 -0.7194
 7852TIP3    H245048   5.479   6.366  14.688 -0.3207 -0.5043  0.6570
 7853TIP3   OH245049   1.709   4.425   0.709  0.4848 -0.2499 -0.1004
 7853TIP3    H145050   1.674   4.355   0.653  1.9300  0.7287 -2.3775
 7853TIP3    H245051   1.725   4.497   0.648  1.0856  1.3050  1.8272
 7854TIP3   OH245052   1.423   5.839  14.315  0.3154  0.9298 -0.2532
 7854TIP3    H145053   1.435   5.882  14.230  0.1535  0.3287 -0.5837
 7854TIP3    H245054   1.415   5.746  14.294  0.0801  0.7983  0.4035
 7855TIP3   OH245055   5.859   3.638  11.528 -0.0377 -0.1710  0.3884
 7855TIP3    H145056   5.789   3.696  11.558 -1.0919  0.6516 -3.2037
 7855TIP3    H245057   5.814   3.561  11.494  0.6293  0.6489 -2.5940
 7856TIP3   OH245058   5.210   4.650  14.992 -0.0335  0.1106  0.2814
 7856TIP3    H145059   5.155   4.577  14.963 -0.0093  0.6383 -1.1620
 7856TIP3    H245060   5.228   4.631  15.084  1.2001 -2.4937 -0.3949
 7857TIP3   OH245061   1.321   3.864  11.795 -0.1356  0.3154 -0.1369
 7857TIP3    H145062   1.238   3.820  11.774  0.3000 -0.9847  0.6984
 7857TIP3    H245063   1.384   3.825  11.734 -0.1136  1.2878 -0.7571
 7858TIP3   OH245064   5.962   3.666   6.353  0.0571 -0.0236 -0.5289
 7858TIP3    H145065   5.901   3.604   6.314  1.5652 -1.7824 -0.2353
 7858TIP3    H245066   5.952   3.654   6.447  1.1065 -0.6570 -0.4741
 7859TIP3   OH245067   4.078   1.129   2.085  0.3026  0.8204 -0.2320
 7859TIP3    H145068   4.030   1.056   2.124 -1.5740  1.8647 -0.4733
 7859TIP3    H245069   4.168   1.117   2.116 -0.4193 -0.2917  1.6447
 7860TIP3   OH245070   0.256   1.263  13.126  0.3074  0.3140 -0.0675
 7860TIP3    H145071   0.235   1.248  13.033  0.0835 -0.6584  0.1277
 7860TIP3    H245072   0.298   1.349  13.127 -0.2204  0.6064 -0.9940
 7861TIP3   OH245073   3.205   1.457  13.735 -0.6911 -0.1682  0.0340
 7861TIP3    H145074   3.262   1.456  13.658 -1.6682 -3.3537 -0.8029
 7861TIP3    H245075   3.261   1.427  13.807 -0.7014 -0.9638 -0.2821
 7862TIP3   OH245076   4.061   5.522  11.936 -0.1989  0.7002 -0.3566
 7862TIP3    H145077   4.119   5.568  11.997  0.5332 -0.7326  0.0651
 7862TIP3    H245078   4.072   5.569  11.853  1.2444  0.7398 -0.1714
 7863TIP3   OH245079   0.535   4.505  13.380  1.1558 -0.4552  0.0152
 7863TIP3    H145080   0.463   4.499  13.318  1.5816 -1.2269 -0.4286
 7863TIP3    H245081   0.544   4.416  13.415  1.0999 -0.0926  0.9891
 7864TIP3   OH245082   0.182   5.779  12.852  0.6572 -0.3341  0.1475
 7864TIP3    H145083   0.217   5.690  12.857 -2.0150 -1.4532  0.4987
 7864TIP3    H245084   0.090   5.770  12.875  0.0070  2.3624 -1.0134
 7865TIP3   OH245085   5.693   2.698  11.905 -0.4269 -0.8877 -1.0892
 7865TIP3    H145086   5.761   2.636  11.879  1.0471  0.3772 -0.4772
 7865TIP3    H245087   5.684   2.686  11.999 -1.3772 -1.3381 -1.2311
 7866TIP3   OH245088   2.639   2.667   0.208  0.3116  0.0429  0.0951
 7866TIP3    H145089   2.724   2.704   0.185  0.3592 -0.8098 -1.2037
 7866TIP3    H245090   2.658   2.577   0.233 -0.2567 -0.3016 -0.6873
 7867TIP3   OH245091   1.769   3.923  14.766  0.1316  0.1051  0.0353
 7867TIP3    H145092   1.716   3.938  14.687 -0.7739  0.8393  0.7558
 7867TIP3    H245093   1.778   3.827  14.770  1.0480  0.0897 -1.4841
 7868TIP3   OH245094   6.370   3.467  13.224  0.4972 -0.3340  0.2797
 7868TIP3    H145095   6.325   3.521  13.290 -2.1997 -0.8525 -0.9891
 7868TIP3    H245096   6.436   3.418  13.273 -0.6565  0.1263  2.3918
 7869TIP3   OH245097   0.604   4.515  17.150 -0.4213 -0.5787  0.3497
 7869TIP3    H145098   0.582   4.459  17.224 -0.7166 -0.6664  0.1965
 7869TIP3    H245099   0.590   4.460  17.073 -1.3800 -0.0903  0.1626
 7870TIP3   OH245100   5.637   3.345  11.822  0.1173  0.3452 -0.2723
 7870TIP3    H145101   5.669   3.259  11.846  0.1288  0.7156  1.1198
 7870TIP3    H245102   5.592   3.377  11.900 -0.8976  1.1247 -1.1494
 7871TIP3   OH245103   5.786   0.399  16.744  0.1377  0.1996  0.0315
 7871TIP3    H145104   5.822   0.381  16.831  2.1226  0.3472 -0.7123
 7871TIP3    H245105   5.751   0.314  16.714  0.2800 -0.0664  0.6097
 7872TIP3   OH245106   1.905   1.914   0.583 -0.1925  0.0132  0.1278
 7872TIP3    H145107   1.890   1.959   0.666  1.5111  1.8513 -0.4704
 7872TIP3    H245108   1.875   1.977   0.516 -0.9030 -1.1534 -0.6989
 7873TIP3   OH245109   0.993   6.245   2.692  0.5098  0.1261  0.4186
 7873TIP3    H145110   1.023   6.239   2.601 -0.0916 -2.4145  0.3217
 7873TIP3    H245111   0.981   6.155   2.720 -0.1560  0.8601  2.7814
 7874TIP3   OH245112   3.199   1.381   4.889  0.5247 -0.0297  0.5310
 7874TIP3    H145113   3.277   1.413   4.845  0.3596 -0.8347 -0.3758
 7874TIP3    H245114   3.134   1.450   4.878  1.2069  0.8072  1.6147
 7875TIP3   OH245115   2.972   1.497   4.478  0.0821  0.0474  0.1491
 7875TIP3    H145116   2.919   1.499   4.557 -0.9932 -2.1214 -0.4655
 7875TIP3    H245117   3.005   1.408   4.473  1.1135  0.4704 -1.2338
 7876TIP3   OH245118   0.750   3.265  13.617  0.2448 -0.0311  0.1648
 7876TIP3    H145119   0.669   3.220  13.597  0.2140  0.3753 -0.6863
 7876TIP3    H245120   0.795   3.273  13.533  0.3709  1.2652  0.3264
 7877TIP3   OH245121   4.715   4.916  16.270  0.2230  0.1853  0.0875
 7877TIP3    H145122   4.623   4.900  16.251  0.4962 -0.6151 -0.6426
 7877TIP3    H245123   4.761   4.840  16.233  1.1397  0.3846  0.7700
 7878TIP3   OH245124   3.450   1.985  13.244  0.0440 -0.4594  0.1517
 7878TIP3    H145125   3.416   2.074  13.234 -0.0447 -0.4975  0.1136
 7878TIP3    H245126   3.406   1.935  13.175  1.0186 -0.2650 -0.6323
 7879TIP3   OH245127   6.263   6.106  16.936 -0.4925  1.0570  0.0624
 7879TIP3    H145128   6.245   6.034  16.875 -0.0258  1.2006 -0.2550
 7879TIP3    H245129   6.180   6.122  16.980 -0.0224 -1.4632  2.1017
 7880TIP3   OH245130   0.428   5.221  11.269  0.1507  0.1110  0.0316
 7880TIP3    H145131   0.363   5.245  11.203 -0.8837 -0.6096  0.7516
 7880TIP3    H245132   0.428   5.294  11.331  1.1903  0.8305 -0.7826
 7881TIP3   OH245133   5.680   6.303   2.652  0.6555  0.4443 -0.5519
 7881TIP3    H145134   5.603   6.258   2.619  1.4376 -1.6810  0.3216
 7881TIP3    H245135   5.653   6.394   2.663 -3.1926 -0.8700  3.8542
 7882TIP3   OH245136   1.578   4.295  10.452  0.1105  0.2093 -0.0304
 7882TIP3    H145137   1.574   4.218  10.394 -1.9626  0.5318 -0.3982
 7882TIP3    H245138   1.635   4.357  10.405  0.1048 -0.3056 -0.7386
 7883TIP3   OH245139   5.879   2.146   5.620 -0.0074  0.8104 -0.1396
 7883TIP3    H145140   5.972   2.168   5.609  0.5347 -0.1665  1.9163
 7883TIP3    H245141   5.841   2.223   5.660 -0.0731  1.1778 -0.8961
 7884TIP3   OH245142   3.941   1.934  14.236 -0.0252 -0.7869 -0.0813
 7884TIP3    H145143   3.942   1.975  14.150  1.9904 -0.4462  0.0494
 7884TIP3    H245144   3.943   1.840  14.219 -0.7127 -0.7447 -0.3965
 7885TIP3   OH245145   6.104   2.878  16.139 -0.0934 -0.1576 -0.6879
 7885TIP3    H145146   6.083   2.949  16.200  0.9831 -0.3584 -0.0464
 7885TIP3    H245147   6.066   2.905  16.056 -3.1131 -0.6445  0.4104
 7886TIP3   OH245148   3.284   0.182  12.964  0.4718 -0.0379 -0.1296
 7886TIP3    H145149   3.349   0.251  12.947 -1.1543  1.9598  1.2163
 7886TIP3    H245150   3.308   0.148  13.050  0.4320 -0.1246 -0.1535
 7887TIP3   OH245151   3.975   0.861   0.461  0.0096 -0.6023  0.6414
 7887TIP3    H145152   3.983   0.780   0.512  2.0093 -0.7064  0.2683
 7887TIP3    H245153   3.885   0.890   0.476 -1.0666 -3.3195  0.1515
 7888TIP3   OH245154   2.604   3.633   5.387 -0.5153  0.2839  0.5731
 7888TIP3    H145155   2.647   3.690   5.452  0.3585 -0.9985  1.1537
 7888TIP3    H245156   2.522   3.607   5.429 -1.5232  2.0389 -0.1866
 7889TIP3   OH245157   4.505   2.894   2.647  0.3325 -0.2055 -0.1081
 7889TIP3    H145158   4.425   2.910   2.698  0.1187  0.4597 -0.6349
 7889TIP3    H245159   4.574   2.886   2.713 -0.2805 -1.5903  0.4014
 7890TIP3   OH245160   3.975   3.616  11.389  0.0780  0.1373  1.0019
 7890TIP3    H145161   4.023   3.533  11.386  1.8147  1.1025  1.0999
 7890TIP3    H245162   3.949   3.632  11.298 -1.3667 -1.0838  1.1524
 7891TIP3   OH245163   2.814   2.624  16.457 -0.5040 -0.0349  0.2202
 7891TIP3    H145164   2.869   2.557  16.497  0.4717  0.7514  0.2498
 7891TIP3    H245165   2.788   2.680  16.530 -0.9466 -0.1307  0.1363
 7892TIP3   OH245166   5.877   4.445   4.066 -0.1112 -0.0419 -0.1604
 7892TIP3    H145167   5.823   4.397   4.003  0.3070 -0.5928 -0.1069
 7892TIP3    H245168   5.879   4.534   4.032 -1.8385  0.2365  0.3465
 7893TIP3   OH245169   2.898   0.819   6.187 -0.4947 -0.0011  0.2126
 7893TIP3    H145170   2.804   0.832   6.184 -0.2167  2.7916  0.3086
 7893TIP3    H245171   2.921   0.787   6.100 -1.3944  0.6590 -0.2879
 7894TIP3   OH245172   3.309   4.709  16.683 -0.1835  0.1449  0.3614
 7894TIP3    H145173   3.258   4.636  16.717  0.8040  0.2026  2.0584
 7894TIP3    H245174   3.250   4.785  16.689 -0.9404 -0.3351 -0.6777
 7895TIP3   OH245175   2.232   5.601  14.275  0.5286  0.1231 -0.8160
 7895TIP3    H145176   2.192   5.530  14.224 -0.6453 -0.0664  0.3363
 7895TIP3    H245177   2.320   5.568  14.297  0.1086 -0.8550 -0.5591
 7896TIP3   OH245178   2.645   5.259   5.737  0.0789 -0.0931 -0.2139
 7896TIP3    H145179   2.733   5.223   5.723  0.6138  0.4519  1.5574
 7896TIP3    H245180   2.631   5.253   5.832 -1.0793  1.4850 -0.2489
 7897TIP3   OH245181   4.075   2.168  12.419 -0.2527 -0.0334  0.1159
 7897TIP3    H145182   4.032   2.185  12.503 -0.7522 -0.0782 -0.1271
 7897TIP3    H245183   4.166   2.149  12.442 -0.3309  0.2007  0.6257
 7898TIP3   OH245184   2.447   3.220  10.215 -0.3985  0.1229 -0.1381
 7898TIP3    H145185   2.398   3.139  10.226  1.6799 -1.1951 -0.0463
 7898TIP3    H245186   2.528   3.207  10.265  0.4738  1.8095 -1.0048
 7899TIP3   OH245187   6.534   3.412   3.150  1.1399  0.3330  0.4453
 7899TIP3    H145188   6.576   3.421   3.064  2.4581  2.6979  1.2613
 7899TIP3    H245189   6.545   3.497   3.191  0.6564 -0.7760  3.0398
 7900TIP3   OH245190   1.435   0.154  16.339  0.0163  0.2257 -0.0253
 7900TIP3    H145191   1.490   0.158  16.260 -0.0594  0.9994 -0.0467
 7900TIP3    H245192   1.497   0.136  16.410  0.0508 -0.7447 -0.2911
 7901TIP3   OH245193   0.006   4.020  14.530  0.1279  0.2506  0.0319
 7901TIP3    H145194  -0.006   4.113  14.550  1.8526  0.2012  1.6262
 7901TIP3    H245195  -0.044   3.974  14.598  1.2408  0.0641  0.7624
 7902TIP3   OH245196   3.646   2.684  16.380  0.6115 -0.7092 -0.0830
 7902TIP3    H145197   3.621   2.591  16.379  3.5688 -1.6692  1.7082
 7902TIP3    H245198   3.579   2.726  16.434  1.9643 -2.9402  3.7318
 7903TIP3   OH245199   1.946   1.226  14.252 -0.2659  0.0797  0.2623
 7903TIP3    H145200   1.911   1.287  14.318 -0.1363 -0.1859  0.5841
 7903TIP3    H245201   1.956   1.143  14.300  2.5199  0.5671  0.7212
 7904TIP3   OH245202   1.537   5.970  13.172  0.1552 -0.3883 -0.3110
 7904TIP3    H145203   1.626   5.982  13.204  0.0674 -1.3352  0.3168
 7904TIP3    H245204   1.539   6.003  13.082  0.9256  0.3623 -0.0255
 7905TIP3   OH245205   4.755   5.681  15.686 -0.3025  0.1280 -0.8034
 7905TIP3    H145206   4.701   5.757  15.705  0.0941  0.4061 -0.7601
 7905TIP3    H245207   4.833   5.693  15.740 -0.6097 -0.7559 -0.1327
 7906TIP3   OH245208   0.707   3.539   3.898 -0.4730  0.0997  0.4281
 7906TIP3    H145209   0.634   3.478   3.887  0.4627 -0.8981 -0.6364
 7906TIP3    H245210   0.784   3.488   3.871  0.3254  1.8336 -0.7398
 7907TIP3   OH245211   0.789   1.072  12.576  0.0561 -0.9513  0.2123
 7907TIP3    H145212   0.843   1.095  12.652  1.0637  1.0072 -1.0074
 7907TIP3    H245213   0.744   1.154  12.554 -0.8687 -1.7165 -0.8037
 7908TIP3   OH245214   5.007   1.552  14.665  0.1934  0.7351  0.1873
 7908TIP3    H145215   4.976   1.498  14.737  0.3129  1.0119  0.4486
 7908TIP3    H245216   5.073   1.498  14.621 -1.0037 -0.0619 -0.6867
 7909TIP3   OH245217   2.368   5.007   2.783 -0.2046  0.0471 -0.0758
 7909TIP3    H145218   2.390   5.089   2.828 -2.0686  1.8221 -2.1664
 7909TIP3    H245219   2.284   5.025   2.740 -0.7270 -3.0240 -0.5748
 7910TIP3   OH245220   1.008   1.014   0.014  0.3272 -0.8285  0.2655
 7910TIP3    H145221   1.103   1.004   0.014  0.2347 -1.8098  0.2789
 7910TIP3    H245222   0.993   1.104   0.043  1.1984 -1.3430  2.5081
 7911TIP3   OH245223   5.740   4.203   5.925 -0.3981  0.1580 -0.3582
 7911TIP3    H145224   5.694   4.122   5.947 -0.3380  0.3052  0.3677
 7911TIP3    H245225   5.776   4.233   6.009 -0.7426  1.1294 -0.5457
 7912TIP3   OH245226   1.891   6.495  16.682 -0.1277 -0.3412  0.5495
 7912TIP3    H145227   1.963   6.556  16.701  0.0163 -0.7756  1.4472
 7912TIP3    H245228   1.930   6.429  16.625 -0.4135  0.6604 -0.8635
 7913TIP3   OH245229   6.532   3.838  15.487  0.7070 -0.3730  0.0794
 7913TIP3    H145230   6.492   3.906  15.433  0.0483 -0.1727  0.8019
 7913TIP3    H245231   6.626   3.846  15.471  0.5890  0.2964 -0.3125
 7914TIP3   OH245232   0.780   5.810   4.888  0.4109 -0.1398  0.3357
 7914TIP3    H145233   0.771   5.773   4.800 -1.3780  1.2645 -0.1304
 7914TIP3    H245234   0.691   5.832   4.914  1.0978  1.1789  1.7460
 7915TIP3   OH245235   5.134   2.014  11.833  0.0037  0.0213  0.4040
 7915TIP3    H145236   5.050   2.028  11.789  0.4046 -1.8212 -1.0789
 7915TIP3    H245237   5.196   2.064  11.780  0.1145 -0.1292  0.3926
 7916TIP3   OH245238   2.855   1.393  17.119  0.1594  0.3333  0.0858
 7916TIP3    H145239   2.821   1.368  17.033  0.6207 -0.7775  0.2135
 7916TIP3    H245240   2.895   1.478  17.105 -2.2987  1.5568 -0.1561
 7917TIP3   OH245241   4.414   4.713   1.258 -0.0979 -0.3502  0.3318
 7917TIP3    H145242   4.479   4.705   1.327  0.2636 -1.1185 -0.0868
 7917TIP3    H245243   4.419   4.630   1.210  1.0585  0.8683 -1.8255
 7918TIP3   OH245244   5.639   4.856  14.713  0.6695 -0.8612 -0.8058
 7918TIP3    H145245   5.558   4.810  14.735  0.0160  0.6903  0.1602
 7918TIP3    H245246   5.611   4.933  14.664  1.4430  0.2063  0.3628
 7919TIP3   OH245247   2.703   4.658   1.776 -0.1648  0.0108 -0.7762
 7919TIP3    H145248   2.690   4.750   1.756 -1.0007 -0.1511 -1.0148
 7919TIP3    H245249   2.791   4.654   1.814  0.0116  0.8490 -1.0731
 7920TIP3   OH245250   4.052   5.179   5.369  0.2045 -0.2757  0.9630
 7920TIP3    H145251   4.024   5.175   5.277 -0.1723 -0.4095  1.0817
 7920TIP3    H245252   4.145   5.159   5.366  0.2593  0.0060  0.5779
 7921TIP3   OH245253   1.988   0.923  14.719  0.2963  0.6678  0.2230
 7921TIP3    H145254   1.910   0.885  14.678  0.5954 -0.2330  0.4489
 7921TIP3    H245255   2.061   0.873  14.681  0.6674  0.6359  0.9600
 7922TIP3   OH245256   6.502   2.519   5.622  0.1836  0.7935 -0.4434
 7922TIP3    H145257   6.472   2.558   5.540 -3.1135  1.5317  0.9542
 7922TIP3    H245258   6.439   2.449   5.639  0.2174  1.2633  1.8828
 7923TIP3   OH245259   2.020   2.452   4.784  0.2524 -0.5874  0.1491
 7923TIP3    H145260   2.011   2.490   4.697  2.1996  3.3132  1.3897
 7923TIP3    H245261   2.113   2.432   4.792 -0.1084 -2.1395  0.9527
 7924TIP3   OH245262   3.577   2.414  14.770  0.0229  0.1492 -0.3848
 7924TIP3    H145263   3.626   2.398  14.689  1.5388  0.9077  0.3356
 7924TIP3    H245264   3.559   2.326  14.804  1.0819 -0.1609 -0.5699
 7925TIP3   OH245265   6.514   3.715   2.949 -0.3566  0.5795 -0.0109
 7925TIP3    H145266   6.517   3.780   2.879  0.3664  0.1842 -0.3649
 7925TIP3    H245267   6.421   3.693   2.958 -0.4595  0.6476 -0.8335
 7926TIP3   OH245268   4.050   1.891   1.671 -0.1967  0.1897  0.2534
 7926TIP3    H145269   4.124   1.859   1.618 -2.1767 -0.9438 -2.0197
 7926TIP3    H245270   4.045   1.984   1.651  3.4178  1.5507  4.1743
 7927TIP3   OH245271   5.675   6.213  12.459 -0.0789  0.4743 -0.0764
 7927TIP3    H145272   5.743   6.187  12.397 -1.2109  0.2510 -1.2607
 7927TIP3    H245273   5.627   6.282  12.413 -1.3310 -0.1400  0.2892
 7928TIP3   OH245274   4.077   1.872  13.596 -0.1983  0.3274  0.6498
 7928TIP3    H145275   4.135   1.816  13.544 -0.6777  1.2279 -0.9066
 7928TIP3    H245276   4.135   1.932  13.641  0.1628  0.3800  0.1236
 7929TIP3   OH245277   0.430   5.938   2.686 -0.0668 -0.8490 -0.6347
 7929TIP3    H145278   0.365   5.870   2.671 -0.0365 -0.9862 -0.1582
 7929TIP3    H245279   0.440   5.941   2.781  0.1198 -0.3582 -0.6663
 7930TIP3   OH245280   0.750   2.247  11.118  0.5308 -0.1330 -0.6200
 7930TIP3    H145281   0.814   2.185  11.153 -0.6340 -1.4509 -0.7671
 7930TIP3    H245282   0.727   2.302  11.193  3.0188  1.4984 -0.9140
 7931TIP3   OH245283   4.808   6.171  16.908  0.3135  0.2121 -0.2996
 7931TIP3    H145284   4.758   6.147  16.830 -0.3876  0.2413  0.1389
 7931TIP3    H245285   4.756   6.139  16.981  1.5890 -0.9718  0.1318
 7932TIP3   OH245286   2.031   3.092  11.903  0.0105 -0.1820 -0.1822
 7932TIP3    H145287   1.938   3.096  11.922  0.0675 -1.3100  0.4335
 7932TIP3    H245288   2.045   3.005  11.866  0.3789  0.9330 -2.9432
 7933TIP3   OH245289   6.330   3.412   0.178  0.0602  0.4557 -0.2766
 7933TIP3    H145290   6.272   3.368   0.241 -1.7649  2.5038 -0.4216
 7933TIP3    H245291   6.402   3.446   0.232 -0.0447 -0.1619  0.2692
 7934TIP3   OH245292   0.778   2.555  15.874 -0.4236  0.1389  0.2815
 7934TIP3    H145293   0.773   2.645  15.906 -0.1051 -0.0341  0.8463
 7934TIP3    H245294   0.747   2.559  15.784 -1.2577  0.6582  0.5870
 7935TIP3   OH245295   1.090   5.473   3.261  0.1279  0.5296  0.2581
 7935TIP3    H145296   1.088   5.533   3.336  2.3011 -2.7735  3.2506
 7935TIP3    H245297   1.020   5.410   3.278 -1.1046  1.1542 -2.0251
 7936TIP3   OH245298   3.451   1.874  11.546 -0.1043  0.2158  0.2293
 7936TIP3    H145299   3.439   1.968  11.558 -0.4461  0.3301 -0.9388
 7936TIP3    H245300   3.546   1.863  11.536 -0.2784  1.0033 -3.7357
 7937TIP3   OH245301   1.909   0.107   6.588  0.0378  0.7140  0.3673
 7937TIP3    H145302   1.865   0.176   6.639  1.9042  2.7828 -0.6487
 7937TIP3    H245303   1.995   0.099   6.629 -0.0610 -0.9004  0.3065
 7938TIP3   OH245304   3.977   3.795   2.817  0.5101 -0.8490  0.6439
 7938TIP3    H145305   3.883   3.815   2.823  0.5383 -0.8521  1.2152
 7938TIP3    H245306   4.005   3.837   2.736  0.6219  1.8293  1.9226
 7939TIP3   OH245307   6.105   5.428  12.746 -0.3976 -0.4697 -0.1231
 7939TIP3    H145308   6.069   5.467  12.826  0.8521 -0.7138  0.5900
 7939TIP3    H245309   6.036   5.372  12.712 -1.5829  0.9783 -0.1804
 7940TIP3   OH245310   0.694   4.889  13.493 -0.6829 -0.2473  0.3822
 7940TIP3    H145311   0.742   4.968  13.466  0.9435 -0.5393  2.2295
 7940TIP3    H245312   0.630   4.921  13.556 -2.7396  0.0643 -1.7013
 7941TIP3   OH245313   1.245   5.107   5.252 -0.2017  0.2571 -0.5874
 7941TIP3    H145314   1.307   5.126   5.181  0.3484 -1.5481 -0.6398
 7941TIP3    H245315   1.236   5.012   5.251 -0.0541  0.1663  1.8721
 7942TIP3   OH245316   5.743   1.919  13.958  0.1793  0.4722 -0.3114
 7942TIP3    H145317   5.822   1.925  13.905  1.6257  1.3608  1.8235
 7942TIP3    H245318   5.672   1.941  13.897  1.3122 -1.8306 -2.6648
 7943TIP3   OH245319   1.272   4.951  15.567  0.6779  0.0174  0.0455
 7943TIP3    H145320   1.285   4.892  15.641  2.7316  2.1633  1.4946
 7943TIP3    H245321   1.360   4.980  15.543 -0.1255  1.1210 -1.8014
 7944TIP3   OH245322   3.340   2.771  15.491 -0.5284 -0.2987 -0.4626
 7944TIP3    H145323   3.293   2.815  15.421  1.3011 -1.6858 -2.7357
 7944TIP3    H245324   3.388   2.841  15.536 -1.9103  0.6422 -0.3818
 7945TIP3   OH245325   1.306   2.764  15.509  0.0947 -0.1698  0.4034
 7945TIP3    H145326   1.333   2.683  15.466  1.8540  0.8115 -0.4629
 7945TIP3    H245327   1.259   2.813  15.441  1.8320  0.8673 -0.1180
 7946TIP3   OH245328   4.070   4.386  16.553  0.7250 -0.4378 -0.0498
 7946TIP3    H145329   4.045   4.294  16.563  0.0463 -0.3530 -0.8671
 7946TIP3    H245330   4.124   4.389  16.474 -0.6667  0.0990 -1.0233
 7947TIP3   OH245331   5.164   1.476  11.632 -0.1972  0.4358 -0.3466
 7947TIP3    H145332   5.233   1.415  11.606  2.0136  3.2733 -1.7378
 7947TIP3    H245333   5.181   1.493  11.725 -2.1033 -2.3914  0.6599
 7948TIP3   OH245334   5.890   6.337  13.244 -0.6771 -0.3219  0.3051
 7948TIP3    H145335   5.833   6.271  13.207  1.2012 -1.7479 -0.2079
 7948TIP3    H245336   5.935   6.293  13.316 -0.8527  1.0261  1.2909
 7949TIP3   OH245337   0.351   1.208   2.793 -0.2049 -0.5509  0.3478
 7949TIP3    H145338   0.258   1.224   2.812  0.4725  0.2428  3.4195
 7949TIP3    H245339   0.356   1.113   2.779 -1.1785 -0.9938  2.5684
 7950TIP3   OH245340   4.714   2.437  15.246 -0.1257 -0.2398 -0.9902
 7950TIP3    H145341   4.768   2.473  15.176  0.5675 -0.5553 -0.6290
 7950TIP3    H245342   4.773   2.377  15.293 -0.1341  1.0707  0.7725
 7951TIP3   OH245343   5.683   5.046   0.038  0.3260  0.3519 -0.3540
 7951TIP3    H145344   5.648   4.965   0.000 -2.7593  2.1361 -1.6617
 7951TIP3    H245345   5.681   5.031   0.133  0.3974 -1.3155 -0.5936
 7952TIP3   OH245346   1.125   4.485   6.058  0.4063  0.0800 -0.3381
 7952TIP3    H145347   1.119   4.491   6.153  0.3419 -0.3527 -0.3144
 7952TIP3    H245348   1.195   4.546   6.035  0.3378  0.2772 -0.0247
 7953TIP3   OH245349   5.103   2.867  11.910  0.2576 -0.3529 -0.4303
 7953TIP3    H145350   5.060   2.953  11.904  0.2478 -0.4061 -1.1841
 7953TIP3    H245351   5.033   2.807  11.937  0.1172 -0.2393 -0.5398
 7954TIP3   OH245352   4.628   1.473   1.496  0.0693  0.1355  0.2655
 7954TIP3    H145353   4.676   1.481   1.413 -3.2982 -0.0066 -1.9011
 7954TIP3    H245354   4.568   1.549   1.496 -1.0692 -0.7060  1.7904
 7955TIP3   OH245355   3.118   3.438   6.058 -0.1775  0.3763 -0.1433
 7955TIP3    H145356   3.194   3.478   6.099 -1.1009  1.2301  0.7851
 7955TIP3    H245357   3.091   3.369   6.118  0.2576 -0.4060 -0.8136
 7956TIP3   OH245358   5.684   3.544   2.785  0.4630  0.5676  0.2183
 7956TIP3    H145359   5.690   3.544   2.881 -0.4005  0.3018  0.2789
 7956TIP3    H245360   5.735   3.620   2.758  0.7654  0.6078  0.8900
 7957TIP3   OH245361   0.324   1.611  14.605 -0.2221 -0.2622  0.3260
 7957TIP3    H145362   0.307   1.619  14.699 -0.0535  1.1694  0.2443
 7957TIP3    H245363   0.315   1.700  14.571 -1.0023 -0.8736 -1.1476
 7958TIP3   OH245364   3.369   0.689  14.375  0.3379 -0.1338 -0.5219
 7958TIP3    H145365   3.419   0.642  14.308  0.1941 -0.9665 -0.0681
 7958TIP3    H245366   3.366   0.779  14.344  0.9223 -0.3503 -1.2547
 7959TIP3   OH245367   4.416   6.681   3.886 -0.3277 -0.2426  0.0810
 7959TIP3    H145368   4.365   6.624   3.943  1.1840 -1.4255  0.3088
 7959TIP3    H245369   4.481   6.721   3.944  1.7918 -2.1197 -0.8833
 7960TIP3   OH245370   1.878   1.915   2.430  0.0795  0.1862  0.0627
 7960TIP3    H145371   1.877   1.820   2.416 -0.3373  0.1598  0.2678
 7960TIP3    H245372   1.941   1.928   2.501 -2.5598 -0.3229  2.7088
 7961TIP3   OH245373   4.141   1.234  15.606  0.5940 -0.1265 -0.5539
 7961TIP3    H145374   4.186   1.159  15.569  0.8709 -0.8254  1.1053
 7961TIP3    H245375   4.049   1.219  15.585  0.4378 -1.7638  0.9800
 7962TIP3   OH245376   3.857   4.100  12.669 -0.1127 -0.7824 -0.7784
 7962TIP3    H145377   3.863   4.004  12.671 -0.8933 -0.8332 -0.0069
 7962TIP3    H245378   3.906   4.128  12.746 -1.1895 -0.6654 -0.1124
 7963TIP3   OH245379   5.674   4.966   3.529 -0.2259 -0.4301  0.7930
 7963TIP3    H145380   5.719   4.939   3.449  0.4882 -1.0191  1.3834
 7963TIP3    H245381   5.705   5.055   3.544 -1.1656  0.0830 -0.1410
 7964TIP3   OH245382   4.508   4.762   4.610 -0.3919 -0.1485 -0.6425
 7964TIP3    H145383   4.429   4.709   4.607 -0.8676  0.4392  0.8367
 7964TIP3    H245384   4.492   4.834   4.550 -1.6004  0.7472  0.6915
 7965TIP3   OH245385   3.885   5.143  13.906  1.3480  0.2144 -0.2361
 7965TIP3    H145386   3.819   5.117  13.843  1.5603 -0.9169 -0.0153
 7965TIP3    H245387   3.914   5.061  13.946  0.0058  0.9575  2.5672
 7966TIP3   OH245388   4.549   2.824   2.184 -0.1417  0.2720  0.1273
 7966TIP3    H145389   4.522   2.762   2.251 -0.4113  1.5872  1.2787
 7966TIP3    H245390   4.467   2.859   2.149  0.0091  0.9902  0.4719
 7967TIP3   OH245391   5.561   2.367   5.802 -0.2001  0.1398  0.4251
 7967TIP3    H145392   5.631   2.412   5.850  1.8232  0.5850 -2.6472
 7967TIP3    H245393   5.589   2.276   5.799  0.3404  0.3287 -0.8646
 7968TIP3   OH245394   4.884   1.326   0.342  0.0040  0.3318  0.1944
 7968TIP3    H145395   4.826   1.365   0.407 -1.7577  0.3904 -1.3194
 7968TIP3    H245396   4.835   1.251   0.307  0.6962  0.5240 -1.2988
 7969TIP3   OH245397   1.650   1.530   1.052  0.0515  0.4450 -0.2425
 7969TIP3    H145398   1.728   1.476   1.043  0.7778  1.0653  1.8387
 7969TIP3    H245399   1.622   1.548   0.962  0.5039 -2.2974 -1.0075
 7970TIP3   OH245400   3.916   2.509  14.571 -0.1479 -0.9641  0.4424
 7970TIP3    H145401   3.990   2.476  14.520 -2.0510 -2.4267 -1.5508
 7970TIP3    H245402   3.901   2.597  14.537  1.1284 -0.3326  1.4346
 7971TIP3   OH245403   4.290   1.268   3.210 -0.1642  0.0810  0.1779
 7971TIP3    H145404   4.230   1.342   3.221 -0.8720 -0.4431 -0.0462
 7971TIP3    H245405   4.323   1.251   3.298 -0.1518  0.5368  0.2643
 7972TIP3   OH245406   0.007   1.734   5.107  0.5519  0.3529 -0.3488
 7972TIP3    H145407   0.083   1.792   5.107 -0.1931  1.3814  0.1481
 7972TIP3    H245408  -0.023   1.733   5.016  1.6822 -0.8151 -0.7360
 7973TIP3   OH245409   1.357   5.404   1.286  0.0388  0.5983 -0.0332
 7973TIP3    H145410   1.278   5.414   1.338  0.9376  0.7216  1.3531
 7973TIP3    H245411   1.365   5.309   1.272 -0.7192  0.6361 -0.8007
 7974TIP3   OH245412   3.159   1.621   2.152  0.0849  0.0024  0.0747
 7974TIP3    H145413   3.155   1.627   2.247  1.0749 -0.0742  0.1379
 7974TIP3    H245414   3.068   1.611   2.124 -0.1305 -1.1349  1.0988
 7975TIP3   OH245415   3.188   1.969   0.866  0.4769  0.3308 -0.9395
 7975TIP3    H145416   3.259   1.978   0.929  0.7601  0.4444 -1.2733
 7975TIP3    H245417   3.221   1.907   0.801  0.3848  0.6104 -1.2571
 7976TIP3   OH245418   4.051   1.637   2.998 -0.2231 -0.2716  0.2692
 7976TIP3    H145419   4.103   1.573   2.950  1.9610 -0.6684  2.9067
 7976TIP3    H245420   4.108   1.713   3.006 -0.9391  0.1840  1.2663
 7977TIP3   OH245421   1.017   3.759  11.841 -0.3507 -0.0993  0.3745
 7977TIP3    H145422   0.964   3.790  11.914  0.2955 -1.2957  1.3849
 7977TIP3    H245423   1.003   3.664  11.839  1.6291 -0.4383  0.5911
 7978TIP3   OH245424   3.851   1.561  12.278  0.2693  0.0054  0.0214
 7978TIP3    H145425   3.839   1.483  12.334 -0.8050  1.4565  1.9327
 7978TIP3    H245426   3.945   1.578  12.281  0.6177 -1.5606 -0.9548
 7979TIP3   OH245427   6.161   3.020   5.761 -0.3848 -0.3903  0.2390
 7979TIP3    H145428   6.123   2.938   5.729 -1.8397  0.3810 -0.0933
 7979TIP3    H245429   6.118   3.034   5.846  1.5568 -1.1206  1.3934
 7980TIP3   OH245430   1.485   2.279  13.054 -0.7607  0.6720  0.4679
 7980TIP3    H145431   1.537   2.306  13.129  0.9309  1.0741 -0.7927
 7980TIP3    H245432   1.422   2.350  13.042 -1.2051  0.4904  1.6221
 7981TIP3   OH245433   1.959   2.753  16.360 -0.2494  0.0004  0.4326
 7981TIP3    H145434   1.990   2.832  16.405 -0.4602  0.5111 -0.2938
 7981TIP3    H245435   2.003   2.681  16.405  0.3681  0.5664  0.7615
 7982TIP3   OH245436   2.477   3.780  10.168  0.1996 -0.8632 -0.1157
 7982TIP3    H145437   2.506   3.701  10.213  0.6991  0.5321  2.1844
 7982TIP3    H245438   2.556   3.834  10.160 -0.3373 -0.1201 -0.6228
 7983TIP3   OH245439   4.553   5.161   0.707 -0.1421 -0.6689  0.8440
 7983TIP3    H145440   4.578   5.247   0.673 -0.7054 -0.9332 -0.3128
 7983TIP3    H245441   4.561   5.102   0.632 -0.1783 -1.5472  1.5109
 7984TIP3   OH245442   1.150   5.336  11.948  0.0962  0.2533 -0.2355
 7984TIP3    H145443   1.081   5.391  11.984 -3.4270 -2.4736 -2.1130
 7984TIP3    H245444   1.122   5.247  11.970  3.4894 -1.0185 -0.5336
 7985TIP3   OH245445   5.161   2.224   3.905 -0.1789 -0.0755 -0.2648
 7985TIP3    H145446   5.228   2.243   3.971  0.5233 -1.1023 -0.6505
 7985TIP3    H245447   5.078   2.225   3.953  0.3741 -1.4033  0.7765
 7986TIP3   OH245448   6.488   5.088   3.668 -0.6627  0.1906 -0.6312
 7986TIP3    H145449   6.394   5.102   3.664 -0.8705  0.0444  1.9074
 7986TIP3    H245450   6.522   5.166   3.712  0.2063 -0.3845 -0.2437
 7987TIP3   OH245451   3.659   5.374   0.671 -0.4790 -0.7157 -0.5303
 7987TIP3    H145452   3.678   5.463   0.700 -1.5205 -0.2452 -1.2124
 7987TIP3    H245453   3.655   5.322   0.751 -2.1046  0.3052  0.0983
 7988TIP3   OH245454   3.599   0.345   1.998  0.0486  0.2342  0.5692
 7988TIP3    H145455   3.570   0.433   2.025 -1.0912  0.5762 -1.5812
 7988TIP3    H245456   3.526   0.288   2.021 -0.0359  0.1760  0.1541
 7989TIP3   OH245457   2.908   0.652   4.709 -0.0440  0.1507 -0.2195
 7989TIP3    H145458   2.828   0.608   4.739 -0.7789  1.7072  0.2233
 7989TIP3    H245459   2.876   0.729   4.662  1.1967  0.0135 -1.3321
 7990TIP3   OH245460   1.523   3.803  16.792  0.3974 -0.0860 -0.1242
 7990TIP3    H145461   1.454   3.869  16.789  0.3515 -0.1734 -1.5710
 7990TIP3    H245462   1.574   3.825  16.870  0.1175  1.3738 -0.3373
 7991TIP3   OH245463   0.432   6.614  16.688  0.1199  0.3708 -0.4363
 7991TIP3    H145464   0.363   6.678  16.707 -1.3784 -1.3161  0.0796
 7991TIP3    H245465   0.501   6.666  16.645 -1.7019  2.0487 -1.5529
 7992TIP3   OH245466   3.443   4.512  17.007 -0.3195  0.5392  0.1097
 7992TIP3    H145467   3.535   4.521  16.982 -0.0993 -0.0151  0.6763
 7992TIP3    H245468   3.398   4.491  16.925  0.1434  0.2844 -0.0875
 7993TIP3   OH245469   6.271   0.548   5.567 -0.0280  0.2184  0.1595
 7993TIP3    H145470   6.345   0.566   5.510 -0.6603  1.7573 -0.2238
 7993TIP3    H245471   6.251   0.456   5.551 -0.6110  0.7424 -2.6732
 7994TIP3   OH245472   4.116   2.399  14.378  0.4417  0.8960 -0.6592
 7994TIP3    H145473   4.197   2.437  14.344  0.6983  0.2717 -0.7547
 7994TIP3    H245474   4.145   2.337  14.445 -0.0531  2.0750  0.7120
 7995TIP3   OH245475   0.442   2.388  13.986 -0.4784  0.2775 -0.4342
 7995TIP3    H145476   0.446   2.466  14.042  1.0328 -0.4078  0.4693
 7995TIP3    H245477   0.354   2.391  13.947 -0.1357  2.9055 -1.1653
 7996TIP3   OH245478   1.113   2.628  14.684 -0.2786 -0.0417  0.1514
 7996TIP3    H145479   1.061   2.548  14.690 -2.3894  1.3026  1.0236
 7996TIP3    H245480   1.177   2.610  14.616 -1.3240 -2.1325 -0.3600
 7997TIP3   OH245481   1.278   6.034  11.147  0.3419 -0.2597  0.0151
 7997TIP3    H145482   1.324   5.989  11.076  1.1454  2.9305 -1.6620
 7997TIP3    H245483   1.341   6.098  11.179 -2.2948  3.4422 -1.5164
 7998TIP3   OH245484   2.551   4.486   5.208  0.1302  0.5151  0.2689
 7998TIP3    H145485   2.484   4.543   5.173  0.5020 -0.2275 -1.7516
 7998TIP3    H245486   2.571   4.522   5.295 -3.1549  0.4817  1.1612
 7999TIP3   OH245487   4.161   1.465   3.324  0.1039 -0.1970 -0.6047
 7999TIP3    H145488   4.166   1.461   3.419 -0.5968  0.2434 -0.5456
 7999TIP3    H245489   4.168   1.558   3.303 -2.5506  0.0582 -0.7777
 8000TIP3   OH245490   3.413   3.439  12.302 -0.3816  0.3908 -0.2982
 8000TIP3    H145491   3.456   3.398  12.377  0.3064 -0.1275 -0.9656
 8000TIP3    H245492   3.353   3.372  12.270 -0.7466  0.6474 -0.1547
 8001TIP3   OH245493   0.580   4.842   1.764  0.3278  0.3234 -0.2430
 8001TIP3    H145494   0.616   4.754   1.780 -0.2770 -0.2029 -1.6434
 8001TIP3    H245495   0.657   4.896   1.747  0.6825 -0.0323  0.1941
 8002TIP3   OH245496   1.566   4.517  15.771 -0.1615 -0.2732  0.2581
 8002TIP3    H145497   1.565   4.480  15.683 -0.5565 -1.3920  0.7094
 8002TIP3    H245498   1.479   4.555  15.782 -0.8420 -1.8979  0.8472
 8003TIP3   OH245499   6.512   5.869  11.070 -0.2180  0.3267 -0.8861
 8003TIP3    H145500   6.573   5.862  11.143 -0.3305 -1.6699 -0.9264
 8003TIP3    H245501   6.557   5.826  10.997 -1.0758  0.1064 -1.3033
 8004TIP3   OH245502   0.715   4.095  16.803 -0.5061  1.4969 -0.6475
 8004TIP3    H145503   0.704   4.029  16.735  2.2761  0.9622 -0.7053
 8004TIP3    H245504   0.743   4.174  16.755 -0.0602  1.5763 -0.2625
 8005TIP3   OH245505   5.895   1.037  16.791 -0.2275 -0.3096  0.0488
 8005TIP3    H145506   5.985   1.007  16.776 -1.1103 -3.0639 -0.3663
 8005TIP3    H245507   5.903   1.101  16.862  1.9767 -1.0639  0.5741
 8006TIP3   OH245508   3.287   0.503  11.465  0.8622  0.2101  0.0509
 8006TIP3    H145509   3.216   0.443  11.444  0.8417 -0.1796  1.2095
 8006TIP3    H245510   3.366   0.450  11.462  0.8984  0.2309  0.6024
 8007TIP3   OH245511   0.171   6.484   0.327 -0.0042 -0.0050 -0.4294
 8007TIP3    H145512   0.084   6.522   0.335 -0.0922 -0.2814 -0.0480
 8007TIP3    H245513   0.229   6.558   0.312  0.1049  0.5148  2.1582
 8008TIP3   OH245514   6.282   3.458   4.653  0.0793  0.1179 -0.3304
 8008TIP3    H145515   6.215   3.481   4.588  0.6817  1.4976 -0.4973
 8008TIP3    H245516   6.261   3.368   4.678 -1.6439  0.3956 -0.6220
 8009TIP3   OH245517   3.263   3.203  10.953  0.9241 -0.1184  0.1255
 8009TIP3    H145518   3.253   3.251  11.034 -0.3117  0.3982 -0.3178
 8009TIP3    H245519   3.221   3.118  10.969 -0.1382  0.3227 -0.2484
 8010TIP3   OH245520   0.407   4.993  17.028 -0.3948 -0.1087 -0.4907
 8010TIP3    H145521   0.434   4.974  17.118 -0.3261  2.1056  0.0209
 8010TIP3    H245522   0.468   4.944  16.973  0.1519 -0.7590  0.6775
 8011TIP3   OH245523   4.064   1.302  10.906  0.9042  0.9958 -0.1517
 8011TIP3    H145524   4.137   1.249  10.875 -0.9569 -0.6470 -2.0715
 8011TIP3    H245525   4.024   1.251  10.976  1.0243  1.4109  0.2203
 8012TIP3   OH245526   2.937   5.950   3.421 -0.2238 -0.4191  0.0935
 8012TIP3    H145527   2.948   5.856   3.434 -1.5305 -0.7867 -1.2374
 8012TIP3    H245528   2.843   5.963   3.415 -0.0450  0.9063 -0.2036
 8013TIP3   OH245529   5.792   1.070   2.527  0.3882  0.1908 -0.0481
 8013TIP3    H145530   5.797   1.153   2.480  0.7895  0.8244  1.0519
 8013TIP3    H245531   5.711   1.029   2.497 -2.0216  2.8467  2.2867
 8014TIP3   OH245532   1.666   0.093   3.940  0.0962 -0.0375  0.2241
 8014TIP3    H145533   1.738   0.140   3.982  0.5875  0.0788 -0.7189
 8014TIP3    H245534   1.603   0.077   4.010  0.3157  1.2682  0.7487
 8015TIP3   OH245535   6.086   0.342  13.528 -0.0376  0.2418 -0.8447
 8015TIP3    H145536   6.065   0.277  13.462  0.2086 -0.5396 -0.1700
 8015TIP3    H245537   6.004   0.392  13.539 -0.7471 -1.0004 -0.2258
 8016TIP3   OH245538   3.792   4.857  10.181  0.1966 -0.0644  0.2558
 8016TIP3    H145539   3.794   4.847  10.276 -0.3413  0.3705  0.3179
 8016TIP3    H245540   3.884   4.849  10.154  0.3458 -0.2275  0.8059
 8017TIP3   OH245541   4.217   3.465   4.964  0.0117 -0.0497  0.3758
 8017TIP3    H145542   4.146   3.472   4.900  2.1611  1.8464 -2.0164
 8017TIP3    H245543   4.181   3.500   5.045 -1.7887  0.8385 -0.7640
 8018TIP3   OH245544   5.805   2.549   3.476 -0.0735  0.1899 -0.1187
 8018TIP3    H145545   5.899   2.546   3.458  0.1172 -0.4798  0.9315
 8018TIP3    H245546   5.764   2.546   3.390  0.8597  0.4755 -0.5869
 8019TIP3   OH245547   1.230   5.656  16.652 -0.1267  0.1112  0.1906
 8019TIP3    H145548   1.172   5.718  16.608 -1.2467  0.0924  1.5853
 8019TIP3    H245549   1.316   5.675  16.616 -0.8700  0.6342 -1.4021
 8020TIP3   OH245550   4.009   0.651   4.977 -0.6449 -0.0372 -0.1493
 8020TIP3    H145551   3.970   0.637   4.891 -0.3522  1.4533 -0.5488
 8020TIP3    H245552   4.010   0.746   4.988  2.8930  0.0407 -0.1893
 8021TIP3   OH245553   6.478   5.834  15.343 -0.2186 -0.0329  0.0548
 8021TIP3    H145554   6.528   5.866  15.418  0.9208 -1.5120 -0.0327
 8021TIP3    H245555   6.396   5.883  15.346  2.0005  4.1604 -1.0845
 8022TIP3   OH245556   0.746   6.179  13.702  0.9842  0.6675  0.0649
 8022TIP3    H145557   0.652   6.158  13.701  1.1479 -0.0658 -0.3807
 8022TIP3    H245558   0.756   6.246  13.634  0.9626 -0.1038 -0.7185
 8023TIP3   OH245559   4.827   4.696   5.706  0.9050  0.2638  0.4975
 8023TIP3    H145560   4.802   4.661   5.621  2.4836  0.8573 -0.2383
 8023TIP3    H245561   4.881   4.627   5.745 -0.7994 -0.5391  1.6050
 8024TIP3   OH245562   0.027   2.630   4.090  0.4405 -0.1365  0.3128
 8024TIP3    H145563   0.050   2.583   4.010  0.1717 -0.4463  0.4149
 8024TIP3    H245564   0.043   2.722   4.069  0.5955 -0.2373 -0.0185
 8025TIP3   OH245565   1.507   2.062   3.943  0.5688  0.0662 -0.4725
 8025TIP3    H145566   1.512   2.104   3.857  2.2154 -1.7871 -1.3714
 8025TIP3    H245567   1.598   2.063   3.975  0.8618 -3.1787 -0.8430
 8026TIP3   OH245568   6.717   1.000  12.633  0.7085  0.2020 -0.2353
 8026TIP3    H145569   6.696   0.924  12.578  0.1219 -0.4874  0.9192
 8026TIP3    H245570   6.670   0.985  12.715  2.1913  0.8003  0.7763
 8027TIP3   OH245571   3.408   1.149  14.690 -0.4054 -0.7072 -0.5709
 8027TIP3    H145572   3.378   1.181  14.605 -0.3252 -0.0761 -0.3675
 8027TIP3    H245573   3.348   1.187  14.753 -0.0922 -0.6745 -0.2910
 8028TIP3   OH245574   4.892   3.506  17.067 -0.0865  0.5934  0.2441
 8028TIP3    H145575   4.814   3.458  17.095 -0.2903  0.2849 -0.8078
 8028TIP3    H245576   4.924   3.548  17.146 -0.4055 -0.5717  1.0230
 8029TIP3   OH245577   4.654   3.153   0.215 -0.0381  0.0844 -0.7120
 8029TIP3    H145578   4.705   3.102   0.277 -0.4525  0.6048  0.0806
 8029TIP3    H245579   4.581   3.187   0.266 -0.5745  0.2634 -1.5635
 8030TIP3   OH245580   4.685   4.118   0.287  0.3052 -0.0136  0.0653
 8030TIP3    H145581   4.674   4.210   0.311 -1.4968 -0.3320  0.6570
 8030TIP3    H245582   4.659   4.069   0.365 -0.4174 -1.0233 -0.7704
 8031TIP3   OH245583   2.596   5.332   0.637  0.8828 -0.0889  0.0310
 8031TIP3    H145584   2.613   5.333   0.543  2.0142  0.1777  0.2241
 8031TIP3    H245585   2.507   5.298   0.645  0.6079  0.3124 -1.1578
 8032TIP3   OH245586   5.051   1.058  12.561  0.0418 -0.5659  0.3884
 8032TIP3    H145587   5.025   1.005  12.637 -0.2603  0.5931  1.1279
 8032TIP3    H245588   5.141   1.085  12.580 -0.1529  0.0107  0.5045
 8033TIP3   OH245589   1.103   3.485  14.658  0.1115 -0.6783 -0.2887
 8033TIP3    H145590   1.146   3.511  14.576  0.1716  0.0737 -0.0196
 8033TIP3    H245591   1.155   3.525  14.727  0.2655 -1.5964  0.1490
 8034TIP3   OH245592   4.735   1.781  15.270  0.3257  0.9215 -0.7402
 8034TIP3    H145593   4.755   1.874  15.255  0.4292  1.2990  1.4466
 8034TIP3    H245594   4.813   1.747  15.315 -0.9269  0.5966  1.3205
 8035TIP3   OH245595   3.423   3.173  12.666  0.4089  0.0687 -0.4930
 8035TIP3    H145596   3.481   3.228  12.615  1.5558  0.9518  1.6339
 8035TIP3    H245597   3.470   3.157  12.748 -2.1002  0.4520  1.1615
 8036TIP3   OH245598   5.464   5.215   1.908 -0.0513 -0.3342  0.4609
 8036TIP3    H145599   5.488   5.278   1.840  1.6973 -2.0539 -0.6054
 8036TIP3    H245600   5.542   5.205   1.961  0.3141 -2.7406 -0.3787
 8037TIP3   OH245601   5.783   4.897   1.002  0.3780 -0.1345  0.5962
 8037TIP3    H145602   5.777   4.812   0.960 -0.4419 -2.0412  4.1663
 8037TIP3    H245603   5.875   4.906   1.028  0.7513  0.7588 -0.9067
 8038TIP3   OH245604   5.620   0.559   1.776 -0.1104  0.3935  0.0869
 8038TIP3    H145605   5.686   0.489   1.782 -0.8947 -0.3576  0.0549
 8038TIP3    H245606   5.560   0.541   1.848 -0.5605  0.7879 -0.1883
 8039TIP3   OH245607   0.938   1.675   5.899 -0.1506 -0.4985 -0.6128
 8039TIP3    H145608   0.862   1.733   5.901 -2.1123 -2.8055 -2.7629
 8039TIP3    H245609   0.926   1.616   5.973  0.9490  0.6343  0.5344
 8040TIP3   OH245610   1.192   5.178  13.142  0.1280  0.2913 -0.8795
 8040TIP3    H145611   1.165   5.103  13.196 -0.3481 -0.2307 -1.7983
 8040TIP3    H245612   1.110   5.224  13.124  0.1886  0.1116 -1.6465
 8041TIP3   OH245613   4.451   1.452   1.225 -0.7389 -0.5106 -0.0103
 8041TIP3    H145614   4.476   1.510   1.153 -3.0668  0.4384 -0.1693
 8041TIP3    H245615   4.524   1.392   1.234  0.5445  0.6710 -1.7628
 8042TIP3   OH245616   4.279   2.808   4.622  0.1367  0.0967  0.3549
 8042TIP3    H145617   4.370   2.819   4.651  0.8153 -1.4361 -1.0255
 8042TIP3    H245618   4.286   2.794   4.528 -1.5954  0.4305  0.1513
 8043TIP3   OH245619   2.833   4.770   0.837 -0.2103 -0.3223 -0.0307
 8043TIP3    H145620   2.766   4.716   0.796 -1.6434  1.4526 -0.1157
 8043TIP3    H245621   2.789   4.812   0.911  0.8045  0.8704 -0.0674
 8044TIP3   OH245622   1.072   1.629   3.892 -0.3956  0.4027  0.0162
 8044TIP3    H145623   1.070   1.534   3.881 -2.3117  0.2876  0.9456
 8044TIP3    H245624   0.983   1.658   3.872 -0.5536  1.6788  2.2152
 8045TIP3   OH245625   4.030   3.167   2.549  0.0530  0.2843  0.6827
 8045TIP3    H145626   4.089   3.236   2.580  1.1802 -0.2966 -0.0810
 8045TIP3    H245627   4.030   3.177   2.454 -0.0106 -0.5676  0.5895
 8046TIP3   OH245628   3.861   1.071   0.181 -0.4340 -0.7285 -0.0902
 8046TIP3    H145629   3.855   1.129   0.257  0.4851  0.0450 -0.5930
 8046TIP3    H245630   3.771   1.043   0.165 -0.6742 -0.6996  1.1163
 8047TIP3   OH245631   6.235   5.260   4.081  0.3065  0.6792  0.4006
 8047TIP3    H145632   6.278   5.284   4.163  2.2243  3.9147 -1.3063
 8047TIP3    H245633   6.277   5.178   4.055  2.2033  1.3763  1.0548
 8048TIP3   OH245634   1.515   6.496   5.680 -0.1806  0.4494  0.2907
 8048TIP3    H145635   1.455   6.434   5.721 -1.3021  1.9512  0.9982
 8048TIP3    H245636   1.594   6.493   5.733 -0.0330 -0.7117  0.0261
 8049TIP3   OH245637   2.116   3.494   1.090 -0.4826  0.2380  0.4517
 8049TIP3    H145638   2.193   3.466   1.141 -1.3020 -0.0231  1.5881
 8049TIP3    H245639   2.092   3.418   1.039 -0.2836  0.1624  0.4688
 8050TIP3   OH245640   6.303   3.433  14.695  1.1962  0.2187 -0.5748
 8050TIP3    H145641   6.281   3.494  14.624 -3.5436 -1.1361 -0.5839
 8050TIP3    H245642   6.275   3.478  14.775  0.7712 -0.5939 -0.2517
 8051TIP3   OH245643   6.030   3.730  14.671  0.0583 -0.1572  0.1111
 8051TIP3    H145644   6.045   3.722  14.577 -1.2723  0.6449 -0.2006
 8051TIP3    H245645   6.047   3.822  14.691 -0.1392 -0.2140  0.5650
 8052TIP3   OH245646   1.181   0.432  16.670  0.0063 -0.1054 -0.2015
 8052TIP3    H145647   1.155   0.494  16.738  1.0630  0.4661 -0.2847
 8052TIP3    H245648   1.229   0.485  16.606  2.2606 -1.1889  0.4602
 8053TIP3   OH245649   0.681   1.918   0.208 -0.1788  1.1161 -0.5632
 8053TIP3    H145650   0.651   1.954   0.292 -1.5038 -0.8751 -0.1094
 8053TIP3    H245651   0.737   1.986   0.172  1.3965  1.5949  2.4617
 8054TIP3   OH245652   1.973   1.883   4.559  0.3599 -0.3100 -0.3548
 8054TIP3    H145653   1.888   1.914   4.590  1.5248  1.8834  0.9131
 8054TIP3    H245654   1.994   1.810   4.617 -0.3372 -0.4415 -0.2508
 8055TIP3   OH245655   2.564   5.410  15.384 -0.5416  0.0348 -0.4992
 8055TIP3    H145656   2.562   5.335  15.325  1.9661 -0.2739 -0.3015
 8055TIP3    H245657   2.657   5.427  15.399 -1.0226  2.7031  0.0935
 8056TIP3   OH245658   4.398   0.930  11.729  0.4721  0.0728  0.1054
 8056TIP3    H145659   4.305   0.947  11.742  0.3801  0.3352 -0.8314
 8056TIP3    H245660   4.401   0.843  11.689  0.5986  0.2271 -0.2247
 8057TIP3   OH245661   0.746   5.513  12.896  0.1188  0.3033 -0.1835
 8057TIP3    H145662   0.666   5.481  12.854 -0.5214  2.4749 -0.7946
 8057TIP3    H245663   0.817   5.476  12.845 -0.5433 -0.3664 -0.6378
 8058TIP3   OH245664   1.708   2.010   4.520 -1.2197 -0.7785  0.3591
 8058TIP3    H145665   1.752   2.092   4.541 -1.4065 -0.5161 -0.2536
 8058TIP3    H245666   1.683   1.973   4.605 -2.3141  0.4506  0.6026
 8059TIP3   OH245667   0.811   3.658   3.491 -0.6041  0.3404  0.3579
 8059TIP3    H145668   0.843   3.745   3.516  0.6062  0.3235 -1.0287
 8059TIP3    H245669   0.750   3.675   3.418 -1.4101  0.1163  0.9637
 8060TIP3   OH245670   3.525   1.730   1.794 -0.1565 -0.5337 -0.2226
 8060TIP3    H145671   3.467   1.681   1.853  1.0764 -2.2996 -0.3846
 8060TIP3    H245672   3.612   1.699   1.816  0.5152  0.3170 -1.5843
 8061TIP3   OH245673   2.353   1.086  11.653  0.2923  0.4963 -0.1510
 8061TIP3    H145674   2.424   1.026  11.677 -0.6082  0.6744  3.4966
 8061TIP3    H245675   2.397   1.161  11.613  1.8260 -0.6705 -0.7584
 8062TIP3   OH245676   3.992   6.716  15.820 -0.3228 -0.2338  0.4125
 8062TIP3    H145677   3.976   6.641  15.763 -1.8510  0.9577 -0.7959
 8062TIP3    H245678   4.066   6.762  15.780 -0.4027 -0.2353  0.2650
 8063TIP3   OH245679   0.247   5.867  15.502  0.0297 -0.1289 -0.0590
 8063TIP3    H145680   0.234   5.775  15.525 -3.3251 -0.0434 -1.0527
 8063TIP3    H245681   0.288   5.864  15.416 -0.7668 -0.7425 -0.4328
 8064TIP3   OH245682   0.899   4.224   3.623  0.0273 -0.2173  0.1279
 8064TIP3    H145683   0.888   4.137   3.661 -0.1501 -0.2763 -0.0571
 8064TIP3    H245684   0.832   4.229   3.554  0.7320 -0.3327 -0.5710
 8065TIP3   OH245685   3.900   0.167  15.545 -0.1266 -0.0932 -0.0292
 8065TIP3    H145686   3.906   0.261  15.528 -2.2065 -0.0812 -0.9390
 8065TIP3    H245687   3.983   0.132  15.513  0.8106  1.4361  0.5934
 8066TIP3   OH245688   3.195   5.447   3.909  0.7792 -0.2048  0.3922
 8066TIP3    H145689   3.214   5.353   3.904 -1.4134 -0.6883  0.0991
 8066TIP3    H245690   3.141   5.456   3.987 -0.3592  0.5253 -0.4528
 8067TIP3   OH245691   3.432   1.394  15.020 -0.5004  0.7471 -0.0634
 8067TIP3    H145692   3.514   1.349  15.037 -0.9109 -0.1220 -0.3120
 8067TIP3    H245693   3.454   1.487  15.025 -0.1024  0.5985  2.8014
 8068TIP3   OH245694   1.585   5.406   4.780 -0.0155 -0.4962  0.3414
 8068TIP3    H145695   1.565   5.427   4.689 -0.1273 -3.9940 -0.6046
 8068TIP3    H245696   1.669   5.449   4.796 -0.0081  0.2494 -1.4271
 8069TIP3   OH245697   6.202   5.076   3.627  0.1335  0.1274 -0.2312
 8069TIP3    H145698   6.120   5.114   3.659  0.4475  0.7092 -0.1099
 8069TIP3    H245699   6.191   4.982   3.641 -0.4157  0.2205  0.0068
 8070TIP3   OH245700   5.569   6.808  12.967 -0.4776  0.2524 -0.1520
 8070TIP3    H145701   5.607   6.797  12.880 -0.9074  3.3139 -0.8261
 8070TIP3    H245702   5.633   6.769  13.026  0.9235  0.1375 -1.6824
 8071TIP3   OH245703   1.117   0.600  13.665 -0.5157  0.1247  0.2697
 8071TIP3    H145704   1.055   0.580  13.736  0.9965  0.0276  1.6226
 8071TIP3    H245705   1.065   0.648  13.601 -2.0726 -0.2596  1.1797
 8072TIP3   OH245706   2.951   3.612   6.972 -0.0903 -0.1305 -0.2310
 8072TIP3    H145707   2.941   3.609   7.067 -1.6241  0.6475 -0.3300
 8072TIP3    H245708   2.886   3.549   6.939 -1.7423  1.7702 -0.8168
 8073TIP3   OH245709   5.973   4.133  14.473 -0.3621 -0.1359  0.2875
 8073TIP3    H145710   6.063   4.165  14.469 -0.1490 -0.6444  0.9882
 8073TIP3    H245711   5.973   4.055  14.418 -0.5861  0.3314 -0.3966
 8074TIP3   OH245712   6.429   3.387   0.592  0.5871  0.3552  0.0127
 8074TIP3    H145713   6.448   3.435   0.672  3.1019  1.9113 -1.3703
 8074TIP3    H245714   6.494   3.316   0.591  0.6954  0.4554 -0.7076
 8075TIP3   OH245715   5.438   5.489  15.102  0.1143  0.4971  0.3543
 8075TIP3    H145716   5.456   5.553  15.172 -1.5152  0.3323  0.9581
 8075TIP3    H245717   5.377   5.534  15.044  0.7064  0.2735 -0.4616
 8076TIP3   OH245718   4.544   2.987   4.301  0.0673  0.2857 -0.1070
 8076TIP3    H145719   4.482   3.037   4.354 -0.2314 -0.7662  0.5800
 8076TIP3    H245720   4.614   2.964   4.362  1.0414  1.2869 -0.8277
 8077TIP3   OH245721   4.955   5.556   5.258 -0.0562 -0.5099  0.1698
 8077TIP3    H145722   4.966   5.500   5.181  1.4051  0.7862 -0.6230
 8077TIP3    H245723   5.029   5.616   5.255  1.0172 -1.4405  3.5222
 8078TIP3   OH245724   4.297   3.696  10.854 -0.7480  0.6600 -0.3337
 8078TIP3    H145725   4.351   3.775  10.847  0.5241  0.0014  1.3507
 8078TIP3    H245726   4.359   3.624  10.860 -1.8114 -0.2299  0.5554
 8079TIP3   OH245727   1.274   1.186  13.513 -0.2663  0.1120  0.0671
 8079TIP3    H145728   1.225   1.266  13.493 -0.5991 -0.2133 -0.4477
 8079TIP3    H245729   1.318   1.164  13.432  0.7612  0.4066  0.5323
 8080TIP3   OH245730   5.062   2.220  17.291  0.3190 -0.1484 -0.1772
 8080TIP3    H145731   5.153   2.248  17.298  0.2430  0.1990 -0.5237
 8080TIP3    H245732   5.013   2.281  17.346  0.2519 -0.0937 -0.2953
 8081TIP3   OH245733   5.903   0.304  12.350  0.0056  0.1053  0.3796
 8081TIP3    H145734   5.982   0.252  12.335 -0.9790 -1.0462 -1.0773
 8081TIP3    H245735   5.877   0.282  12.439  0.6092 -0.5186  0.4132
 8082TIP3   OH245736   1.519   2.362   0.314  0.4813 -0.3529  0.2291
 8082TIP3    H145737   1.469   2.295   0.267 -1.8298  1.7279 -0.4479
 8082TIP3    H245738   1.548   2.422   0.246  0.2111  0.7669  1.0730
 8083TIP3   OH245739   1.121   5.436   1.434 -0.4691  0.1425 -0.2252
 8083TIP3    H145740   1.071   5.465   1.358 -1.2627  1.2688  0.6882
 8083TIP3    H245741   1.074   5.474   1.509  1.4665  0.8356  0.6988
 8084TIP3   OH245742   0.062   4.121   0.241 -0.1838  0.1723  0.1894
 8084TIP3    H145743   0.154   4.098   0.234 -0.4883 -0.8450 -0.7451
 8084TIP3    H245744   0.049   4.138   0.335  0.5845 -1.3825  0.6203
 8085TIP3   OH245745   6.030   1.198  11.798 -0.5093 -0.4725 -0.0341
 8085TIP3    H145746   5.959   1.260  11.783 -0.1417  0.1215  0.5880
 8085TIP3    H245747   5.989   1.112  11.792 -1.4242 -0.1292  0.9418
 8086TIP3   OH245748   4.482   5.764  14.778  0.5676  0.1539 -0.2448
 8086TIP3    H145749   4.407   5.742  14.722  1.2342  0.9313 -1.4981
 8086TIP3    H245750   4.444   5.777  14.865 -0.4590 -1.4102 -0.4264
 8087TIP3   OH245751   2.812   3.931  15.871  0.2034 -0.2011  0.5528
 8087TIP3    H145752   2.907   3.944  15.864  0.3082  0.1486  2.1347
 8087TIP3    H245753   2.786   3.990  15.942 -1.4631  0.8856 -0.8759
 8088TIP3   OH245754   0.944   3.942   5.844  0.7145  0.0003  0.3364
 8088TIP3    H145755   0.921   4.034   5.837  0.6418  0.0778  1.4245
 8088TIP3    H245756   1.040   3.941   5.843  0.7460  0.2150  1.5099
 8089TIP3   OH245757   2.212   6.227   5.004 -0.4253  0.2746 -0.0687
 8089TIP3    H145758   2.199   6.147   4.953  2.4529 -1.1917  1.2373
 8089TIP3    H245759   2.161   6.215   5.083  0.3843 -0.5611  0.3457
 8090TIP3   OH245760   4.977   6.819  15.398 -0.1384 -0.5425 -0.1225
 8090TIP3    H145761   4.965   6.826  15.493  0.0094  0.2025 -0.1500
 8090TIP3    H245762   4.893   6.847  15.361  0.3174  0.7248 -0.2348
 8091TIP3   OH245763   0.302   3.087   2.008  0.5635  0.4721  0.3355
 8091TIP3    H145764   0.383   3.059   1.965 -0.6555 -0.1503 -1.7184
 8091TIP3    H245765   0.330   3.149   2.075  2.7448  0.0866 -0.1506
 8092TIP3   OH245766   3.731   0.429  13.827 -0.3792  0.3668 -0.3292
 8092TIP3    H145767   3.803   0.457  13.883 -1.0392  2.3791 -0.4160
 8092TIP3    H245768   3.666   0.393  13.887 -0.2993  0.7651 -0.0026
 8093TIP3   OH245769   4.628   3.649  11.040 -0.3582 -0.2451 -0.1995
 8093TIP3    H145770   4.583   3.595  10.975 -3.0715  0.5824  0.8693
 8093TIP3    H245771   4.662   3.723  10.990  0.1394 -1.0490 -1.0863
 8094TIP3   OH245772   4.829   1.217  10.797  0.0656 -0.5849 -0.3313
 8094TIP3    H145773   4.776   1.288  10.832  0.4137 -0.5523  0.1344
 8094TIP3    H245774   4.782   1.188  10.719  0.2351  0.5693 -0.8918
 8095TIP3   OH245775   2.693   3.124  17.004 -0.2320  0.5334 -0.3572
 8095TIP3    H145776   2.783   3.100  16.983  0.3153  1.5253  0.6937
 8095TIP3    H245777   2.641   3.049  16.977  0.9639 -0.2578 -0.5501
 8096TIP3   OH245778   5.428   4.322  15.755 -0.7245 -0.2589  0.2419
 8096TIP3    H145779   5.501   4.273  15.794 -0.3001 -1.6201 -2.0857
 8096TIP3    H245780   5.351   4.268  15.770 -0.9161  0.1714  0.8631
 8097TIP3   OH245781   6.410   4.425  16.140  0.2964 -0.3665  0.0362
 8097TIP3    H145782   6.375   4.448  16.225  0.0214  0.2187 -0.2323
 8097TIP3    H245783   6.467   4.498  16.116  0.0434 -0.3323 -0.4680
 8098TIP3   OH245784   4.248   4.282  13.806 -0.1350 -0.2773  0.1000
 8098TIP3    H145785   4.328   4.334  13.816  0.5266 -1.4649  1.3415
 8098TIP3    H245786   4.262   4.233  13.725  0.9845 -1.3714  0.9011
 8099TIP3   OH245787   0.773   0.101  11.608 -0.2069 -0.6754  0.0614
 8099TIP3    H145788   0.721   0.154  11.548 -0.6222 -0.8130  0.2976
 8099TIP3    H245789   0.838   0.058  11.553 -0.9836 -1.3009 -0.3813
 8100TIP3   OH245790   6.234   4.284  13.950  0.0861  0.2245 -0.7824
 8100TIP3    H145791   6.206   4.318  14.035  1.0384  1.1664 -0.8193
 8100TIP3    H245792   6.269   4.197  13.970  0.5411  0.5398 -0.1519
 8101TIP3   OH245793   1.571   2.009  12.728  0.0570  0.0850  0.3666
 8101TIP3    H145794   1.644   1.955  12.697  0.1961  0.7641 -0.5298
 8101TIP3    H245795   1.565   2.080  12.665 -3.4784 -1.6509 -1.5247
 8102TIP3   OH245796   3.052   2.664   0.005 -0.2210 -0.3723 -0.7420
 8102TIP3    H145797   3.113   2.605   0.049  0.3965 -0.2252 -1.3766
 8102TIP3    H245798   2.980   2.608  -0.024 -0.2279 -0.6051 -0.2740
 8103TIP3   OH245799   4.036   5.473  16.135  0.0002 -0.4840  0.0075
 8103TIP3    H145800   4.102   5.485  16.203 -0.6818 -1.5487  0.9017
 8103TIP3    H245801   3.956   5.451  16.183 -0.8551  0.1142 -1.0763
 8104TIP3   OH245802   1.211   6.142  15.212 -0.0444  0.6715 -0.3633
 8104TIP3    H145803   1.150   6.186  15.152 -0.8165  0.8710  0.5422
 8104TIP3    H245804   1.154   6.098  15.275  0.7398  1.3265  0.8432
 8105TIP3   OH245805   1.269   1.859  13.463 -0.8487 -0.1681 -0.1494
 8105TIP3    H145806   1.340   1.804  13.496 -1.1921 -0.0557  0.7784
 8105TIP3    H245807   1.261   1.930  13.527 -0.9070  0.5680 -0.9455
 8106TIP3   OH245808   1.620   2.195  15.341 -0.0465  0.2957 -0.0622
 8106TIP3    H145809   1.652   2.282  15.317  0.1498  0.0412 -0.7534
 8106TIP3    H245810   1.690   2.158  15.394  0.5361 -0.0087 -1.0238
 8107TIP3   OH245811   1.720   2.808  15.041 -0.0254  0.1833  0.0484
 8107TIP3    H145812   1.630   2.833  15.020  0.0762 -0.5243 -1.3554
 8107TIP3    H245813   1.738   2.734  14.984  1.8279  1.0114 -0.5205
 8108TIP3   OH245814   5.297   0.864   5.180  1.0358  0.7675 -0.4590
 8108TIP3    H145815   5.243   0.851   5.102 -1.3013 -0.4135  1.2533
 8108TIP3    H245816   5.383   0.829   5.155  0.1521 -0.2458 -2.2707
 8109TIP3   OH245817   4.753   2.008  10.414 -0.0817 -0.6647 -0.0831
 8109TIP3    H145818   4.828   2.067  10.404  1.2951 -2.3471 -0.0109
 8109TIP3    H245819   4.680   2.067  10.435  1.2293  1.0075  0.0348
 8110TIP3   OH245820   4.691   4.716  12.471 -0.2147  0.5948 -0.1643
 8110TIP3    H145821   4.645   4.632  12.468  2.2816 -0.8821 -0.5452
 8110TIP3    H245822   4.683   4.745  12.562 -1.4811  0.2020 -0.1284
 8111TIP3   OH245823   2.809   1.023   2.701  0.1596 -0.2518 -0.1138
 8111TIP3    H145824   2.822   0.993   2.791  3.1916 -1.5319 -0.8497
 8111TIP3    H245825   2.780   0.945   2.654  2.3894 -0.6729 -0.9177
 8112TIP3   OH245826   5.912   5.265  12.602  0.0934  0.1558 -0.0569
 8112TIP3    H145827   5.991   5.217  12.578  1.0010  1.1871  0.7429
 8112TIP3    H245828   5.892   5.318  12.524  0.9910  0.8909  0.1951
 8113TIP3   OH245829   3.465   5.025  10.264  0.6377 -0.3294  0.6981
 8113TIP3    H145830   3.373   5.051  10.264  1.0735  1.6695 -1.9950
 8113TIP3    H245831   3.463   4.931  10.279 -1.9021 -0.4076  0.3355
 8114TIP3   OH245832   1.723   4.861   2.177 -0.2201  0.1011  0.0959
 8114TIP3    H145833   1.721   4.880   2.271  1.4089  2.0774 -0.1854
 8114TIP3    H245834   1.639   4.820   2.158 -0.4061 -0.7675  2.4790
 8115TIP3   OH245835   0.188   2.925  14.707  0.2508 -0.6907 -0.1435
 8115TIP3    H145836   0.142   2.855  14.753  2.4675 -2.3865 -0.3632
 8115TIP3    H245837   0.177   2.903  14.614  0.4919 -0.4152 -0.2382
 8116TIP3   OH245838   1.620   4.050  10.298  0.1585 -0.3136 -0.8958
 8116TIP3    H145839   1.526   4.038  10.285 -0.0650  0.1748  0.1760
 8116TIP3    H245840   1.655   3.961  10.299 -0.7302 -0.7216  1.6183
 8117TIP3   OH245841   6.253   5.862   4.318 -0.4006 -0.4765 -0.0802
 8117TIP3    H145842   6.310   5.825   4.385 -1.7493 -1.2345  0.6880
 8117TIP3    H245843   6.237   5.952   4.348  0.6864 -0.1076 -0.5284
 8118TIP3   OH245844   1.419   0.628   5.296 -1.4743 -0.8946  0.0568
 8118TIP3    H145845   1.456   0.657   5.213 -0.7630 -0.9242  0.3581
 8118TIP3    H245846   1.361   0.700   5.323 -1.3685 -0.6956 -0.2434
 8119TIP3   OH245847   4.906   3.234   5.687  0.5687 -0.1865  0.0566
 8119TIP3    H145848   4.957   3.278   5.755  0.2572 -0.8118  0.7039
 8119TIP3    H245849   4.859   3.164   5.733  0.3528 -0.6199 -0.7973
 8120TIP3   OH245850   1.546   5.554  12.768 -0.2803 -0.1870 -0.5659
 8120TIP3    H145851   1.585   5.506  12.694  0.2718 -0.7005  0.0477
 8120TIP3    H245852   1.505   5.630  12.727  2.6929  1.2711 -1.1449
 8121TIP3   OH245853   3.652   5.378   6.084  0.4777 -0.0921  0.3028
 8121TIP3    H145854   3.736   5.422   6.073  0.4893  0.2628  1.6313
 8121TIP3    H245855   3.639   5.374   6.179 -0.7717 -0.5868  0.1350
 8122TIP3   OH245856   3.598   1.581  12.170  0.3076  0.3564  0.4650
 8122TIP3    H145857   3.549   1.653  12.209  0.5316 -0.0504  1.5291
 8122TIP3    H245858   3.690   1.607  12.177  0.3133  0.6088 -0.4780
 8123TIP3   OH245859   1.789   4.263   4.657 -0.0526  0.1491  0.0055
 8123TIP3    H145860   1.720   4.287   4.595 -0.1502 -0.4800 -0.1403
 8123TIP3    H245861   1.864   4.242   4.601  0.5982  1.8477  0.2053
 8124TIP3   OH245862   5.177   1.623   2.782 -0.3035  0.5189  0.1850
 8124TIP3    H145863   5.233   1.645   2.707 -0.3602 -1.7296 -0.6008
 8124TIP3    H245864   5.089   1.645   2.754 -0.1367  1.3990  0.3237
 8125TIP3   OH245865   4.718   3.117   1.077 -0.1628  0.4211  0.2388
 8125TIP3    H145866   4.780   3.190   1.077  1.0662 -0.5854  0.3314
 8125TIP3    H245867   4.717   3.086   1.168  0.7464 -0.8233 -0.1600
 8126TIP3   OH245868   0.018   4.388   0.497  0.3106  0.2360 -0.0367
 8126TIP3    H145869   0.087   4.441   0.458  1.1554  1.2622  2.6412
 8126TIP3    H245870  -0.061   4.440   0.485 -0.3028 -1.2336 -3.7059
 8127TIP3   OH245871   1.178   1.781   0.581  0.3213 -0.5410 -1.1786
 8127TIP3    H145872   1.161   1.814   0.670  0.5909  0.1641 -1.3796
 8127TIP3    H245873   1.112   1.714   0.567 -0.1421 -0.1945 -0.6887
 8128TIP3   OH245874   0.963   3.988   1.012 -0.2323  0.3979 -0.0513
 8128TIP3    H145875   1.042   4.043   1.009 -0.7631  1.1448 -1.3640
 8128TIP3    H245876   0.891   4.050   1.007 -0.9513 -0.2411  1.7129
 8129TIP3   OH245877   1.254   4.647  16.670  0.0909  0.3180  0.6644
 8129TIP3    H145878   1.311   4.723  16.684 -0.3088  0.6454  0.5396
 8129TIP3    H245879   1.192   4.676  16.602 -0.4946  0.1198  1.1084
 8130TIP3   OH245880   3.862   5.055  11.673 -0.1815 -0.1738 -0.0122
 8130TIP3    H145881   3.825   4.966  11.673  1.1990 -0.7840  0.3447
 8130TIP3    H245882   3.805   5.105  11.730 -1.1727 -0.7534 -0.4731
 8131TIP3   OH245883   5.677   5.303  12.755  0.1819 -0.2869  0.3159
 8131TIP3    H145884   5.746   5.308  12.689  0.0176  0.3259  0.1831
 8131TIP3    H245885   5.596   5.312  12.705 -0.0750 -2.1816  0.3219
 8132TIP3   OH245886   4.017   6.252  16.416 -0.1084  0.0629 -0.4401
 8132TIP3    H145887   3.945   6.293  16.463  1.3088  2.8945 -0.5135
 8132TIP3    H245888   4.005   6.158  16.430 -3.0538  0.5032  0.5661
 8133TIP3   OH245889   1.171   3.967  13.114  0.8955  0.1098  0.3198
 8133TIP3    H145890   1.204   3.918  13.189  0.5308 -0.3043  0.2128
 8133TIP3    H245891   1.249   4.002  13.071  1.1628 -0.4431  0.3532
 8134TIP3   OH245892   1.428   2.427  16.462  0.8900 -0.0003  0.1234
 8134TIP3    H145893   1.463   2.515  16.472 -1.4928  1.2442 -1.5940
 8134TIP3    H245894   1.460   2.398  16.376  1.7259 -0.8860  0.7134
 8135TIP3   OH245895   1.923   2.472   1.786  0.0143 -0.3644 -0.1182
 8135TIP3    H145896   1.877   2.391   1.764 -0.2731 -0.8626  2.0563
 8135TIP3    H245897   2.013   2.458   1.755  0.0989 -1.7635  0.6737
 8136TIP3   OH245898   2.285   4.038  11.739  0.0985 -0.8284 -0.0416
 8136TIP3    H145899   2.211   4.028  11.799  0.8991  0.2548  1.2021
 8136TIP3    H245900   2.266   4.119  11.692  0.5277 -0.4855  0.3644
 8137TIP3   OH245901   2.534   3.892  16.545  0.0661 -0.0813  0.0598
 8137TIP3    H145902   2.561   3.863  16.458  0.5864  0.9863 -0.1516
 8137TIP3    H245903   2.553   3.817  16.602 -0.8167 -0.9990 -0.8170
 8138TIP3   OH245904   3.914   0.568  16.995  0.6457 -0.1092  0.1727
 8138TIP3    H145905   3.951   0.631  16.933  1.8021  0.3575  1.2849
 8138TIP3    H245906   3.849   0.618  17.044  1.3927  0.1860  0.8927
 8139TIP3   OH245907   1.895   0.805  11.348  0.7261 -0.4991 -0.4986
 8139TIP3    H145908   1.902   0.727  11.293  1.5217 -1.0256  0.3284
 8139TIP3    H245909   1.977   0.808  11.396  0.2528  0.2432  0.2830
 8140TIP3   OH245910   4.606   1.923   0.605 -0.9617 -0.6214 -0.7419
 8140TIP3    H145911   4.638   1.929   0.696  0.6751 -0.1914 -1.3008
 8140TIP3    H245912   4.577   2.012   0.585  0.7683 -0.1466 -1.3181
 8141TIP3   OH245913   6.460   5.102   0.616  0.2174  0.1407 -0.0661
 8141TIP3    H145914   6.502   5.116   0.532  1.1629  0.6956  0.4849
 8141TIP3    H245915   6.525   5.056   0.669 -0.0305  0.5911  0.6447
 8142TIP3   OH245916   4.080   4.447  11.638  0.4049 -0.1884 -0.0824
 8142TIP3    H145917   4.052   4.364  11.677 -1.1446  0.2643 -0.1488
 8142TIP3    H245918   4.035   4.514  11.690  0.2235  0.5231 -1.1223
 8143TIP3   OH245919   0.327   0.756  11.707  0.4406  0.0298 -0.1672
 8143TIP3    H145920   0.338   0.678  11.652  1.1941 -0.3773  0.5283
 8143TIP3    H245921   0.416   0.776  11.736 -0.0667 -0.5005  1.8946
 8144TIP3   OH245922   1.799   0.404  12.252 -0.0578  0.0115  0.1405
 8144TIP3    H145923   1.823   0.391  12.160 -0.6320 -0.8301  0.0887
 8144TIP3    H245924   1.882   0.413  12.298  0.2038  1.6376 -0.6137
 8145TIP3   OH245925   1.416   5.256  12.991 -0.1432 -0.8317 -0.3793
 8145TIP3    H145926   1.341   5.239  13.048 -0.4735  1.3931 -0.0677
 8145TIP3    H245927   1.489   5.272  13.052 -0.1186 -0.0728 -0.5998
 8146TIP3   OH245928   1.054   3.853  11.169  0.2117 -0.1178  0.6076
 8146TIP3    H145929   1.113   3.878  11.240  3.1309  0.6727 -1.8793
 8146TIP3    H245930   0.979   3.912  11.178  1.0049  0.6974  2.3509
 8147TIP3   OH245931   4.127   2.324   2.385 -0.3028 -0.0646  0.5760
 8147TIP3    H145932   4.146   2.363   2.471 -2.2461  1.0130  0.5775
 8147TIP3    H245933   4.044   2.279   2.397 -0.4142 -0.2184 -0.6516
 8148TIP3   OH245934   3.687   0.734   2.722 -0.1804  0.1029 -0.0916
 8148TIP3    H145935   3.673   0.779   2.639 -1.3450  0.3545  0.2171
 8148TIP3    H245936   3.773   0.694   2.714  0.6852  1.9846 -0.5430
 8149TIP3   OH245937   5.626   2.975   1.105  0.4767  0.0434 -0.1805
 8149TIP3    H145938   5.707   2.933   1.075  1.4293 -0.3134  2.5918
 8149TIP3    H245939   5.605   2.931   1.187 -1.5747  1.3475  0.0586
 8150TIP3   OH245940   2.232   3.636   2.759  0.3097  0.7978  0.3274
 8150TIP3    H145941   2.216   3.556   2.810 -0.3279  1.3048  0.9398
 8150TIP3    H245942   2.150   3.685   2.766  0.8971  1.7766  0.4417
 8151TIP3   OH245943   4.795   1.441   1.809 -0.1778 -0.2130 -0.1453
 8151TIP3    H145944   4.732   1.472   1.874  0.9144  0.6456  0.5481
 8151TIP3    H245945   4.821   1.520   1.762 -0.0694 -0.6564 -0.8355
 8152TIP3   OH245946   5.425   4.615  16.965  0.5373  0.4097  0.3652
 8152TIP3    H145947   5.371   4.590  16.890  0.7246  1.2158 -0.0392
 8152TIP3    H245948   5.512   4.633  16.928  0.2158  2.4541  0.4989
 8153TIP3   OH245949   2.830   3.405   2.349  0.0248  0.0961 -0.6009
 8153TIP3    H145950   2.887   3.460   2.404  0.6059  1.9668 -2.8858
 8153TIP3    H245951   2.742   3.440   2.364  0.2690  1.0632 -1.3268
 8154TIP3   OH245952   2.390   4.665   3.415 -0.3165  0.3675 -0.1088
 8154TIP3    H145953   2.362   4.613   3.491  1.6167 -1.9016 -0.8025
 8154TIP3    H245954   2.316   4.662   3.355 -0.3874 -1.4587  0.0051
 8155TIP3   OH245955   2.285   4.221   6.222  0.0722  0.0781  0.0861
 8155TIP3    H145956   2.329   4.163   6.284 -0.1968  0.8191  0.9897
 8155TIP3    H245957   2.317   4.309   6.243  1.3513  0.1804 -2.0080
 8156TIP3   OH245958   5.710   5.191   3.850 -0.1522 -0.0732  0.1326
 8156TIP3    H145959   5.787   5.180   3.905 -0.6190 -2.8800  0.3626
 8156TIP3    H245960   5.636   5.189   3.910 -0.5070  1.1442 -0.2294
 8157TIP3   OH245961   0.725   2.473  13.461  0.6816  0.5015  0.2905
 8157TIP3    H145962   0.639   2.454  13.499  1.5405 -2.2675  1.0786
 8157TIP3    H245963   0.706   2.524  13.382 -1.7486 -0.8167 -0.0681
 8158TIP3   OH245964   0.045   5.509  16.525  0.2362 -0.4508  0.6775
 8158TIP3    H145965   0.009   5.597  16.519 -1.5397 -1.1915 -0.1922
 8158TIP3    H245966   0.023   5.468  16.442  0.8080 -1.8147  1.1665
 8159TIP3   OH245967   3.725   3.359  12.806  0.2208 -0.2312  0.7574
 8159TIP3    H145968   3.644   3.367  12.856 -0.4556  0.6783 -0.4324
 8159TIP3    H245969   3.769   3.283  12.844 -1.6888 -1.4075  0.7385
 8160TIP3   OH245970   2.071   3.746  11.746 -0.2935 -0.0349 -0.1646
 8160TIP3    H145971   2.083   3.737  11.840 -0.6109 -1.2214 -0.2234
 8160TIP3    H245972   2.131   3.683  11.707 -1.0869 -0.4865 -0.6974
 8161TIP3   OH245973   4.628   4.600   3.180 -0.2884  0.3896  0.1116
 8161TIP3    H145974   4.617   4.645   3.264  0.2193 -2.1243  1.6488
 8161TIP3    H245975   4.548   4.548   3.171  0.8675 -1.6005  0.6028
 8162TIP3   OH245976   1.055   6.818   3.519  0.5606  0.1574 -0.2813
 8162TIP3    H145977   1.119   6.802   3.449 -0.0081 -0.1827 -0.7302
 8162TIP3    H245978   1.101   6.876   3.580  2.4123 -2.3651  0.9363
 8163TIP3   OH245979   1.055   0.941  11.139 -0.2323 -0.0753  0.2389
 8163TIP3    H145980   1.039   1.020  11.088  0.6967 -0.2666 -0.3631
 8163TIP3    H245981   1.072   0.873  11.074  0.4703 -0.4320  0.7804
 8164TIP3   OH245982   3.831   3.614   0.189  0.1493  0.2925  0.2447
 8164TIP3    H145983   3.814   3.636   0.281  0.1072  1.1252  0.0474
 8164TIP3    H245984   3.816   3.520   0.184 -0.3835  0.3267  0.9709
 8165TIP3   OH245985   3.871   4.476   0.460  0.0142 -0.3180 -0.8288
 8165TIP3    H145986   3.852   4.419   0.386 -0.7541 -0.3604 -0.6151
 8165TIP3    H245987   3.947   4.437   0.503 -0.2595 -0.9541 -0.9172
 8166TIP3   OH245988   6.669   2.343  14.568  0.4814 -0.4134 -0.0316
 8166TIP3    H145989   6.761   2.368  14.579  0.2470  0.3475  0.2836
 8166TIP3    H245990   6.663   2.309  14.479  0.9186  0.2264 -0.3099
 8167TIP3   OH245991   3.277   1.459  12.171 -0.2496 -0.3227  0.0424
 8167TIP3    H145992   3.261   1.496  12.085 -1.0045  0.8863  0.6734
 8167TIP3    H245993   3.364   1.491  12.196 -0.4660  0.1907  0.1512
 8168TIP3   OH245994   0.173   1.339   1.461 -0.0975 -0.4659  0.0804
 8168TIP3    H145995   0.199   1.354   1.552  0.5131  0.9286 -0.2834
 8168TIP3    H245996   0.078   1.342   1.462 -0.0927 -0.4027  0.6633
 8169TIP3   OH245997   2.973   3.270  13.734 -0.4210  0.0847  0.0513
 8169TIP3    H145998   3.067   3.285  13.720 -0.4442 -0.5622 -0.9639
 8169TIP3    H245999   2.940   3.354  13.765  0.4455  0.4118  0.1385
 8170TIP3   OH246000   0.420   4.558  15.505 -0.1287 -0.2330 -0.0461
 8170TIP3    H146001   0.512   4.544  15.525 -0.2456 -0.3062  0.4602
 8170TIP3    H246002   0.418   4.639  15.454  0.2233 -0.2830 -0.1394
 8171TIP3   OH246003   2.310   1.035  16.617  0.4843 -0.4263  0.4778
 8171TIP3    H146004   2.291   1.107  16.556  0.2881  0.7870  1.8917
 8171TIP3    H246005   2.387   1.065  16.665  0.1120 -0.9327  1.4166
 8172TIP3   OH246006   4.057   5.979  11.070  0.5009 -0.3510  0.9377
 8172TIP3    H146007   4.028   5.983  11.161  0.7407  0.0362  1.0011
 8172TIP3    H246008   4.129   6.043  11.065  1.0193 -0.9500  0.6664
 8173TIP3   OH246009   4.953   3.861   1.303 -0.6455 -0.3469  0.2594
 8173TIP3    H146010   4.989   3.914   1.374 -2.3771  0.8579  0.2787
 8173TIP3    H246011   5.023   3.797   1.284  1.0610  1.2031  0.9795
 8174TIP3   OH246012   0.660   6.478  14.610 -0.1594 -0.0598 -0.0688
 8174TIP3    H146013   0.723   6.529  14.558  0.1254 -0.2937  0.0472
 8174TIP3    H246014   0.617   6.543  14.666  0.4987 -0.0026  0.3768
 8175TIP3   OH246015   0.203   5.512  16.975  0.0015  0.3463  0.2888
 8175TIP3    H146016   0.193   5.484  16.885 -0.0370 -0.0036  0.4044
 8175TIP3    H246017   0.208   5.431  17.026 -0.2909  0.5435  0.6374
 8176TIP3   OH246018   1.888   0.444  11.958  0.5145 -0.1403 -0.2642
 8176TIP3    H146019   1.891   0.538  11.938  1.3659 -0.1822 -0.3444
 8176TIP3    H246020   1.980   0.417  11.963  0.2888 -1.4120 -2.2576
 8177TIP3   OH246021   0.901   5.991  13.961 -0.6082  0.0711  0.2417
 8177TIP3    H146022   0.818   5.966  13.919 -0.6458  0.2491  0.2113
 8177TIP3    H246023   0.909   5.930  14.034 -0.0144 -0.9532 -0.6391
 8178TIP3   OH246024   0.339   6.691   2.423 -0.8388  0.1257 -0.3124
 8178TIP3    H146025   0.321   6.601   2.449  0.1634  0.2100  0.7440
 8178TIP3    H246026   0.254   6.735   2.426 -0.9383 -0.0970  1.9992
 8179TIP3   OH246027   5.757   1.173   0.957 -0.2856  0.0387 -0.1968
 8179TIP3    H146028   5.722   1.243   0.901  0.4515 -0.4405 -1.2760
 8179TIP3    H246029   5.850   1.170   0.937 -0.2598 -1.0838  0.0363
 8180TIP3   OH246030   2.761   3.675  14.625  0.1150 -0.1410  0.5763
 8180TIP3    H146031   2.690   3.672  14.561 -0.7458  0.4750  1.4766
 8180TIP3    H246032   2.771   3.585  14.654  1.7301 -0.7690 -1.6764
 8181TIP3   OH246033   4.268   4.489   1.141  0.2323  0.2082 -0.4332
 8181TIP3    H146034   4.260   4.420   1.074  1.3472  0.5319 -0.9238
 8181TIP3    H246035   4.233   4.567   1.099  2.1560  0.7274 -1.1728
 8182TIP3   OH246036   4.636   5.392  15.747  0.1156  0.0720  0.3318
 8182TIP3    H146037   4.691   5.339  15.805  0.9678 -0.1018 -0.6143
 8182TIP3    H246038   4.691   5.465  15.722  0.5928 -1.0186 -2.0496
 8183TIP3   OH246039   2.682   5.954   3.365 -0.5530  0.0739  0.2701
 8183TIP3    H146040   2.655   6.011   3.293 -0.0196  0.4050  0.3254
 8183TIP3    H246041   2.608   5.955   3.426 -1.8600 -1.8115 -1.1927
 8184TIP3   OH246042   3.041   1.737   5.290 -0.1305  0.0335  0.0282
 8184TIP3    H146043   3.097   1.804   5.331  1.2545 -0.2757 -1.2827
 8184TIP3    H246044   3.057   1.658   5.341 -0.7101  0.3571  0.7240
 8185TIP3   OH246045   3.411   2.377  16.115 -0.1100 -0.2802  0.2166
 8185TIP3    H146046   3.355   2.382  16.193  0.9087 -0.6851  1.0003
 8185TIP3    H246047   3.373   2.440  16.054 -0.9392  0.0409  1.0337
 8186TIP3   OH246048   5.349   6.578  16.441  0.5573 -0.0045 -0.0782
 8186TIP3    H146049   5.419   6.540  16.389  0.1302  0.7267 -1.2154
 8186TIP3    H246050   5.275   6.519  16.429  0.2060  0.5995 -1.0117
 8187TIP3   OH246051   3.393   5.913  15.526  0.3510  0.6829 -0.3942
 8187TIP3    H146052   3.456   5.842  15.537  0.0900  0.3849 -0.8264
 8187TIP3    H246053   3.311   5.869  15.506  0.0810  1.0870 -0.1806
 8188TIP3   OH246054   5.669   3.816   0.184  0.2512 -0.7580 -0.0912
 8188TIP3    H146055   5.654   3.909   0.173 -1.7993 -1.1368 -1.0328
 8188TIP3    H246056   5.677   3.782   0.094 -0.1991 -1.6309  0.1826
 8189TIP3   OH246057   6.592   0.634   5.537  0.7342 -0.1038  0.3797
 8189TIP3    H146058   6.575   0.559   5.480 -1.1366  0.8203 -0.3727
 8189TIP3    H246059   6.683   0.656   5.521  1.3401 -2.1843  0.6244
 8190TIP3   OH246060   5.619   2.197  16.768 -0.4796 -0.4262  0.6036
 8190TIP3    H146061   5.624   2.120  16.826 -0.0366 -0.7889  0.0875
 8190TIP3    H246062   5.532   2.191  16.728  0.5208 -2.1664 -1.4739
 8191TIP3   OH246063   3.044   2.038  13.264 -0.3488 -0.0029  0.1281
 8191TIP3    H146064   2.989   2.070  13.336 -0.0811 -1.7098  1.1414
 8191TIP3    H246065   2.981   2.011  13.197 -0.6048  1.5185 -0.2753
 8192TIP3   OH246066   3.841   3.886   3.755  0.4493  0.2409 -0.5784
 8192TIP3    H146067   3.817   3.957   3.814 -0.3254  0.1858 -0.8148
 8192TIP3    H246068   3.795   3.809   3.789 -0.7133  0.3933 -1.7234
 8193TIP3   OH246069   0.428   0.942  12.179  0.2056 -0.2071 -0.0975
 8193TIP3    H146070   0.420   0.850  12.151 -2.8493 -0.0091 -0.1813
 8193TIP3    H246071   0.381   0.946  12.262  3.7692  0.5531  2.0869
 8194TIP3   OH246072   1.128   4.215   0.104 -0.1706 -0.1446  0.3147
 8194TIP3    H146073   1.139   4.121   0.099 -0.0221 -0.1051 -0.1083
 8194TIP3    H246074   1.136   4.235   0.197  2.3651 -0.2468  0.2014
 8195TIP3   OH246075   6.152   2.922   5.399  0.2328 -0.0515  0.1865
 8195TIP3    H146076   6.112   2.866   5.465  0.1045  0.6725  0.7425
 8195TIP3    H246077   6.088   2.992   5.384  0.4462  0.0308 -0.3883
 8196TIP3   OH246078   0.040   4.171  15.300 -0.2203 -0.1777 -0.6001
 8196TIP3    H146079   0.028   4.264  15.281 -0.0748 -0.2536 -1.0698
 8196TIP3    H246080  -0.038   4.129  15.263 -0.2804 -0.2452 -0.3988
 8197TIP3   OH246081   3.195   3.532  11.941  0.7832 -0.7327  0.0620
 8197TIP3    H146082   3.112   3.578  11.956 -0.0515 -1.9221 -0.6763
 8197TIP3    H246083   3.260   3.584  11.988 -0.2850  0.5422  0.2137
 8198TIP3   OH246084   1.217   0.875  14.610 -0.2056 -0.8752  0.5223
 8198TIP3    H146085   1.311   0.889  14.592 -0.2460 -1.9387 -0.6189
 8198TIP3    H246086   1.215   0.837  14.698  0.3041  0.5426  1.1888
 8199TIP3   OH246087   0.714   3.157  16.565 -0.0518 -0.1401  0.3544
 8199TIP3    H146088   0.736   3.182  16.655  0.9850  0.8414 -0.1488
 8199TIP3    H246089   0.785   3.099  16.538  1.0347  1.5940 -0.6671
 8200TIP3   OH246090   2.109   1.764   6.321  0.4057 -0.0860  0.0786
 8200TIP3    H146091   2.130   1.700   6.252 -0.3269 -0.1680 -0.0747
 8200TIP3    H246092   2.044   1.720   6.375 -1.0840  0.9717 -0.7612
 8201TIP3   OH246093   0.791   0.162   3.615 -0.1170  0.2956 -0.2183
 8201TIP3    H146094   0.738   0.107   3.557  0.8709 -0.6495 -0.2605
 8201TIP3    H246095   0.831   0.100   3.676 -0.5784  1.1947  1.0456
 8202TIP3   OH246096   6.629   0.235   4.081 -0.2461 -0.4935  0.3945
 8202TIP3    H146097   6.546   0.274   4.054 -0.0064 -0.2641 -0.0173
 8202TIP3    H246098   6.687   0.310   4.094  0.3183 -0.7129 -0.7188
 8203TIP3   OH246099   4.004   4.191  11.395  0.1692 -0.2680 -0.2266
 8203TIP3    H146100   4.008   4.096  11.404  1.8552 -0.3991 -1.7696
 8203TIP3    H246101   3.914   4.214  11.418 -0.2084 -2.2046  0.3553
 8204TIP3   OH246102   4.569   4.477  10.669 -0.2049  0.2502 -0.1923
 8204TIP3    H146103   4.634   4.470  10.598 -0.7381 -0.6868 -0.5984
 8204TIP3    H246104   4.500   4.416  10.644 -1.0820  0.9748  0.4228
 8205TIP3   OH246105   5.351   3.517   3.372 -0.0267 -0.3505 -0.5909
 8205TIP3    H146106   5.383   3.490   3.286 -0.9919 -0.1936 -1.0086
 8205TIP3    H246107   5.314   3.437   3.409 -1.9911  0.1151 -1.4224
 8206TIP3   OH246108   5.077   2.839  17.228 -0.0917  0.2978 -0.2019
 8206TIP3    H146109   5.006   2.887  17.186 -1.2119 -1.4646 -0.4250
 8206TIP3    H246110   5.153   2.896  17.219 -0.6084  0.6873 -3.2524
 8207TIP3   OH246111   3.463   6.720  12.906 -0.0710  0.9049  0.9092
 8207TIP3    H146112   3.437   6.751  12.819  2.3431 -0.4499 -0.3877
 8207TIP3    H246113   3.387   6.671  12.937 -0.2803 -0.3304 -1.3485
 8208TIP3   OH246114   6.539   3.740  14.163  0.1588 -0.6468  0.9901
 8208TIP3    H146115   6.617   3.769  14.114 -0.3123 -1.1059 -0.0542
 8208TIP3    H246116   6.504   3.668  14.111 -0.5857 -0.8848  1.8160
 8209TIP3   OH246117   1.023   4.140  14.053  0.1801  0.0478  0.0463
 8209TIP3    H146118   1.077   4.165  14.128  0.7781 -0.4388 -0.2145
 8209TIP3    H246119   1.083   4.142  13.979 -0.4439  0.6740 -0.4552
 8210TIP3   OH246120   1.672   6.037  17.049  0.5546 -0.1646  0.6432
 8210TIP3    H146121   1.727   5.976  16.999  0.0321 -0.1850  0.0813
 8210TIP3    H246122   1.615   5.980  17.101  0.1042 -0.1670  0.1590
 8211TIP3   OH246123   3.187   5.073  14.440  0.0752 -0.0035  0.4214
 8211TIP3    H146124   3.255   5.090  14.375  0.1098  0.1293  0.4901
 8211TIP3    H246125   3.107   5.109  14.402  0.2007  0.5679  0.6835
 8212TIP3   OH246126   5.621   4.340  17.013 -0.0540 -0.1807  0.2246
 8212TIP3    H146127   5.620   4.423  16.964  0.6595 -1.0826 -1.3721
 8212TIP3    H246128   5.674   4.359  17.091 -1.7083  1.4513  1.0534
 8213TIP3   OH246129   6.136   4.950   1.916  0.0279 -0.0684 -0.2325
 8213TIP3    H146130   6.044   4.974   1.926 -0.3073 -1.1600 -0.5253
 8213TIP3    H246131   6.134   4.868   1.866  1.1720  0.0354 -0.4839
 8214TIP3   OH246132   5.190   2.872   4.640 -0.6189  0.0381 -0.1148
 8214TIP3    H146133   5.119   2.855   4.703 -1.3382 -1.0729 -1.1851
 8214TIP3    H246134   5.214   2.786   4.607  0.8360  0.4661 -0.2301
 8215TIP3   OH246135   4.775   0.341   5.547 -1.0594 -0.0353  0.1551
 8215TIP3    H146136   4.867   0.329   5.573 -1.1217  1.0717  0.9307
 8215TIP3    H246137   4.765   0.435   5.536 -2.1241 -0.1453  0.1251
 8216TIP3   OH246138   1.780   5.506   5.237  0.1934  0.2287  0.2259
 8216TIP3    H146139   1.812   5.595   5.227 -0.0695  0.3391  0.3726
 8216TIP3    H246140   1.846   5.463   5.292  0.4131  0.2819  0.0029
 8217TIP3   OH246141   1.607   3.122   5.876 -0.5792 -0.5395  0.2209
 8217TIP3    H146142   1.618   3.091   5.966  0.4969 -0.5100  0.1052
 8217TIP3    H246143   1.688   3.097   5.832 -0.9415 -0.2085 -0.6404
 8218TIP3   OH246144   2.076   1.639   1.467  0.0712 -0.0284  0.1065
 8218TIP3    H146145   2.030   1.587   1.534  0.0481  0.4353  0.4539
 8218TIP3    H246146   2.072   1.584   1.389  0.1172 -0.5922  0.4884
 8219TIP3   OH246147   0.019   2.160  15.792 -0.2695 -0.1364 -0.0261
 8219TIP3    H146148   0.065   2.116  15.721 -0.6372 -0.8867  0.1864
 8219TIP3    H246149   0.074   2.235  15.814 -1.7103  2.0716 -3.2746
 8220TIP3   OH246150   1.910   1.771  13.874  0.2464  0.6398 -0.5270
 8220TIP3    H146151   1.995   1.732  13.854  0.6401  0.7979  0.7469
 8220TIP3    H246152   1.928   1.865  13.880  0.1025  0.6218  0.2767
 8221TIP3   OH246153   1.335   5.323  12.151 -0.2050  0.4669 -0.4527
 8221TIP3    H146154   1.334   5.244  12.204  1.8671  1.1426  0.6723
 8221TIP3    H246155   1.278   5.302  12.076 -0.0924 -1.8792  0.0500
 8222TIP3   OH246156   6.221   5.417  11.862  0.2403  0.0689 -0.0250
 8222TIP3    H146157   6.280   5.356  11.905  2.1484  1.8174  0.0030
 8222TIP3    H246158   6.140   5.412  11.914  0.3496 -2.2698  0.0216
 8223TIP3   OH246159   2.196   6.610  13.748  0.2466 -0.7733 -0.0671
 8223TIP3    H146160   2.148   6.693  13.748  0.7846 -0.4426 -1.1788
 8223TIP3    H246161   2.136   6.548  13.790 -0.0129  0.2409  1.1167
 8224TIP3   OH246162   0.782   0.183   5.843  0.5901 -0.0139  0.6600
 8224TIP3    H146163   0.847   0.254   5.847 -0.5476  1.3160 -1.9762
 8224TIP3    H246164   0.734   0.190   5.925  1.1134  1.7102  0.8705
 8225TIP3   OH246165   5.757   4.731  16.557  0.1225 -0.4944 -0.0223
 8225TIP3    H146166   5.663   4.749  16.563  0.0556 -0.8891  0.1036
 8225TIP3    H246167   5.795   4.776  16.632  0.3548  1.7237 -1.3514
 8226TIP3   OH246168   5.622   4.834   1.987  0.1890 -0.4908 -0.1939
 8226TIP3    H146169   5.609   4.763   2.051  0.7814 -0.3125  0.1351
 8226TIP3    H246170   5.717   4.834   1.971  0.1121 -0.1706 -0.6562
 8227TIP3   OH246171   5.432   3.910  13.882  0.5619 -0.3310 -0.3659
 8227TIP3    H146172   5.396   3.992  13.917  3.7353  0.7256  0.7345
 8227TIP3    H246173   5.508   3.936  13.831 -0.0969 -2.4430 -2.6725
 8228TIP3   OH246174   0.571   4.102   0.689  0.9871  0.1964  1.1908
 8228TIP3    H146175   0.539   4.141   0.770 -1.4293 -0.2787  0.5298
 8228TIP3    H246176   0.549   4.009   0.696  1.8907 -0.0900  0.5125
 8229TIP3   OH246177   2.740   0.755  16.107 -0.0089  0.1394 -0.1351
 8229TIP3    H146178   2.785   0.748  16.022 -1.5875 -1.9383 -0.8859
 8229TIP3    H246179   2.651   0.781  16.084 -0.5764 -0.8773  0.8284
 8230TIP3   OH246180   1.057   1.977  16.889  0.0941 -0.0802  0.6811
 8230TIP3    H146181   1.029   1.907  16.949  0.7613 -0.2480  0.7998
 8230TIP3    H246182   1.143   2.004  16.922 -1.4941  3.1987  2.8181
 8231TIP3   OH246183   0.189   3.411   3.895  0.4593 -0.4385 -0.4418
 8231TIP3    H146184   0.128   3.338   3.894  0.2966 -0.3027 -0.4923
 8231TIP3    H246185   0.181   3.451   3.808 -0.3095  0.3480 -0.0267
 8232TIP3   OH246186   3.406   3.956   4.702 -0.8762  0.0072  0.1098
 8232TIP3    H146187   3.376   4.044   4.679  2.4140  1.7809  1.8800
 8232TIP3    H246188   3.375   3.942   4.791  1.0689  0.7250  0.9448
 8233TIP3   OH246189   2.485   0.955  13.401 -0.2767  0.6659  0.5041
 8233TIP3    H146190   2.441   0.988  13.322  1.4774 -2.1536 -1.8577
 8233TIP3    H246191   2.439   0.873  13.421  0.4347  0.4594  1.3563
 8234TIP3   OH246192   3.144   1.037  11.552  1.0577 -0.2486 -0.1297
 8234TIP3    H146193   3.141   1.099  11.625  1.3706 -2.2721  1.7138
 8234TIP3    H246194   3.213   1.071  11.495  0.6294  1.5446  0.3468
 8235TIP3   OH246195   4.552   5.408   5.984  0.0736  0.7444 -0.1436
 8235TIP3    H146196   4.599   5.484   6.018  1.2338  0.3396 -0.7677
 8235TIP3    H246197   4.527   5.359   6.063  0.0164  1.3622  0.2309
 8236TIP3   OH246198   1.965   0.453  13.000 -0.1578  0.3840  0.8548
 8236TIP3    H146199   2.006   0.438  13.085 -0.5097 -0.6564  0.8514
 8236TIP3    H246200   1.892   0.391  12.997  0.8572 -0.8008 -0.8837
 8237TIP3   OH246201   1.251   2.382   1.309 -0.2834  0.1480  0.4278
 8237TIP3    H146202   1.192   2.385   1.233 -1.3601 -1.0325  1.1750
 8237TIP3    H246203   1.244   2.469   1.348  0.9412  1.0525 -1.2839
 8238TIP3   OH246204   1.835   6.725   5.957 -0.4812 -0.1671  0.0472
 8238TIP3    H146205   1.768   6.725   6.025 -1.7475 -1.3802 -1.1215
 8238TIP3    H246206   1.823   6.809   5.912 -0.3879  0.1547  0.6232
 8239TIP3   OH246207   3.878   6.693  13.823  0.9811  0.1361 -0.0721
 8239TIP3    H146208   3.971   6.717  13.827  0.8815  0.5083  0.0548
 8239TIP3    H246209   3.834   6.757  13.879  0.5538  0.4365 -0.7374
 8240TIP3   OH246210   2.662   2.461  13.612 -0.7266 -0.5927 -0.2975
 8240TIP3    H146211   2.587   2.447  13.555 -1.0386 -1.3474  0.2759
 8240TIP3    H246212   2.667   2.556  13.623  0.9358 -0.1607 -3.6609
 8241TIP3   OH246213   3.330   2.992  17.215  0.1833  0.0672 -0.1690
 8241TIP3    H146214   3.317   2.935  17.139 -0.5737 -1.6851  1.2295
 8241TIP3    H246215   3.343   2.933  17.288  2.8675  1.6960  0.8237
 8242TIP3   OH246216   0.754   5.195   0.196 -0.1594 -0.3725  0.3036
 8242TIP3    H146217   0.805   5.271   0.222 -0.3243  1.4771 -4.0129
 8242TIP3    H246218   0.817   5.138   0.152 -1.0348  0.2192 -1.8244
 8243TIP3   OH246219   6.139   1.552  13.582  0.5607  0.2491 -0.0812
 8243TIP3    H146220   6.191   1.632  13.569  0.7975 -0.0227 -0.8568
 8243TIP3    H246221   6.200   1.491  13.625  0.4817  0.3694  0.2034
 8244TIP3   OH246222   4.738   6.606   1.658 -0.2729 -0.0405 -0.2723
 8244TIP3    H146223   4.811   6.545   1.666 -1.8214 -1.7943  1.6789
 8244TIP3    H246224   4.728   6.645   1.745 -1.2840  0.6001 -0.6486
 8245TIP3   OH246225   1.024   0.640  15.970  1.0261 -0.0658  0.2616
 8245TIP3    H146226   1.033   0.624  15.876  0.5240 -2.4404  0.5589
 8245TIP3    H246227   1.112   0.627  16.005  0.9411 -0.6083  0.2853
 8246TIP3   OH246228   3.343   5.670  11.186 -0.0275  0.6957 -0.3214
 8246TIP3    H146229   3.342   5.577  11.160 -1.2561  0.8554 -0.9423
 8246TIP3    H246230   3.358   5.717  11.104  1.5598  1.0406  0.1353
 8247TIP3   OH246231   5.022   6.439   1.034 -0.6286 -0.2175 -0.1963
 8247TIP3    H146232   5.016   6.478   1.122 -1.8964 -2.9162  1.0455
 8247TIP3    H246233   4.968   6.496   0.979  0.6161  1.8290  0.6056
 8248TIP3   OH246234   3.086   3.169   5.843 -0.3974 -0.7461 -0.3950
 8248TIP3    H146235   3.140   3.104   5.797 -0.3067 -0.7811 -0.2386
 8248TIP3    H246236   3.134   3.251   5.834  1.0729 -1.2333  2.0130
 8249TIP3   OH246237   2.029   4.411   3.974 -0.4399 -0.3360  0.0021
 8249TIP3    H146238   1.935   4.425   3.967 -0.3689 -0.0612 -0.4168
 8249TIP3    H246239   2.040   4.316   3.973 -0.8994 -0.4846  2.3888
 8250TIP3   OH246240   0.452   2.367  12.622 -0.0371 -0.1585  0.4248
 8250TIP3    H146241   0.479   2.327  12.540 -1.0920 -0.1379  0.0491
 8250TIP3    H246242   0.429   2.293  12.678 -0.6514 -0.1392  0.2097
 8251TIP3   OH246243   6.329   0.806  13.004  0.9362 -0.1149 -0.1725
 8251TIP3    H146244   6.347   0.787  12.912 -1.1221  0.0140 -0.6518
 8251TIP3    H246245   6.306   0.721  13.042 -0.1029  0.1152 -0.2669
 8252TIP3   OH246246   2.887   5.265   5.130  0.4224 -0.2610 -0.2584
 8252TIP3    H146247   2.982   5.258   5.121  0.3589 -0.2676 -0.9397
 8252TIP3    H246248   2.852   5.227   5.050 -0.1671 -0.5517  0.1349
 8253TIP3   OH246249   5.062   2.434  14.007 -0.6228 -0.3794  0.2486
 8253TIP3    H146250   4.968   2.416  14.002 -0.6810 -0.2760  0.8568
 8253TIP3    H246251   5.103   2.361  13.961 -1.0577  0.4209 -1.4908
 8254TIP3   OH246252   1.809   5.629   3.258 -0.5515  0.3960  0.5443
 8254TIP3    H146253   1.870   5.703   3.267 -0.5331  0.5154 -0.4354
 8254TIP3    H246254   1.740   5.647   3.322  0.1074  0.5974  1.2098
 8255TIP3   OH246255   5.786   1.301  16.508  0.2232 -0.0248  0.3738
 8255TIP3    H146256   5.759   1.344  16.427 -1.3269 -0.3919  0.6558
 8255TIP3    H246257   5.873   1.266  16.489  0.0362  0.2045 -1.0080
 8256TIP3   OH246258   2.600   5.523   5.648  0.5423 -0.4638  0.2145
 8256TIP3    H146259   2.538   5.570   5.703 -0.5426 -0.6480 -0.8026
 8256TIP3    H246260   2.588   5.430   5.671 -1.0143 -0.6968 -1.3331
 8257TIP3   OH246261   4.520   3.915  11.304  0.0746  0.0398  0.1871
 8257TIP3    H146262   4.598   3.942  11.256 -1.2046  1.2190 -1.3142
 8257TIP3    H246263   4.526   3.961  11.388  1.4839 -0.7123  0.5262
 8258TIP3   OH246264   4.057   3.916   5.305  0.2448 -0.3793  0.2733
 8258TIP3    H146265   4.146   3.949   5.321  0.2546 -0.0149 -0.4920
 8258TIP3    H246266   3.999   3.986   5.336  0.2676  1.2266 -2.8715
 8259TIP3   OH246267   5.209   0.992  12.236  0.4463 -0.4134  0.3678
 8259TIP3    H146268   5.221   0.934  12.312  0.7241  1.6097  1.9424
 8259TIP3    H246269   5.297   1.019  12.213  0.2596  0.0365  0.1818
 8260TIP3   OH246270   2.571   6.390  12.793  0.3554 -0.1726  0.0737
 8260TIP3    H146271   2.655   6.393  12.746 -0.2079 -0.5578 -0.9959
 8260TIP3    H246272   2.563   6.300  12.823 -0.5123 -0.6350 -1.4511
 8261TIP3   OH246273   1.413   3.156  12.326  0.2858 -0.1708 -0.6642
 8261TIP3    H146274   1.454   3.242  12.316  0.1618 -0.2287 -1.8071
 8261TIP3    H246275   1.471   3.109  12.386  1.5237  0.0036 -1.6799
 8262TIP3   OH246276   2.592   2.583  14.499  0.4568 -0.4163  0.2586
 8262TIP3    H146277   2.674   2.625  14.470 -0.7201  0.8802 -1.3984
 8262TIP3    H246278   2.611   2.490  14.497  1.5297 -0.2103 -1.4146
 8263TIP3   OH246279   1.104   0.481   4.331 -0.6224 -0.0749  0.2238
 8263TIP3    H146280   1.191   0.519   4.315 -0.8414 -0.5228 -2.4773
 8263TIP3    H246281   1.045   0.531   4.275 -1.6639 -1.4660  0.0421
 8264TIP3   OH246282   6.070   2.870  12.420  0.5923  0.1769 -0.1017
 8264TIP3    H146283   6.083   2.775  12.425 -1.7534 -0.1394  1.5396
 8264TIP3    H246284   6.105   2.904  12.502 -0.9701  0.3731  0.4995
 8265TIP3   OH246285   4.185   0.105  15.643  0.4387 -0.6853 -0.3781
 8265TIP3    H146286   4.151   0.190  15.668  0.9434 -1.0301  1.7253
 8265TIP3    H246287   4.174   0.101  15.548  0.8424  1.8860 -0.5958
 8266TIP3   OH246288   4.948   0.930   4.050 -0.0641  0.2386  0.3481
 8266TIP3    H146289   4.995   0.847   4.042  0.2193  0.2484  1.7045
 8266TIP3    H246290   4.876   0.910   4.111 -0.7365  0.6865 -0.2840
 8267TIP3   OH246291   3.900   0.896   1.038 -0.1961 -0.5062  0.1526
 8267TIP3    H146292   3.855   0.980   1.046 -0.5724 -0.5957 -0.8183
 8267TIP3    H246293   3.967   0.912   0.971  0.6187 -0.6250  0.9246
 8268TIP3   OH246294   1.627   1.161   3.514 -0.0787 -0.1374  0.1110
 8268TIP3    H146295   1.665   1.165   3.426  0.4993  2.6876  0.3647
 8268TIP3    H246296   1.533   1.153   3.500  0.0759 -0.5115 -0.7386
 8269TIP3   OH246297   3.352   2.318  15.775 -0.3496  0.6309 -0.6063
 8269TIP3    H146298   3.320   2.332  15.686 -2.7361 -0.9074 -0.0984
 8269TIP3    H246299   3.375   2.225  15.777 -1.2112  0.4215  0.5878
 8270TIP3   OH246300   3.584   2.458   1.292 -0.9324  0.5739  1.0501
 8270TIP3    H146301   3.557   2.391   1.356 -0.3996 -0.1388  0.5489
 8270TIP3    H246302   3.680   2.458   1.297 -0.8946  0.6376  0.3820
 8271TIP3   OH246303   4.695   2.069   5.226  0.1946 -0.2569  0.0210
 8271TIP3    H146304   4.718   2.116   5.306 -1.3313 -1.7320  1.3995
 8271TIP3    H246305   4.617   2.019   5.249  0.1815 -1.3632 -2.1689
 8272TIP3   OH246306   0.674   4.946   0.234 -0.3225 -0.4937 -0.3047
 8272TIP3    H146307   0.681   5.041   0.233 -0.3642 -0.4983 -1.1837
 8272TIP3    H246308   0.752   4.915   0.189  1.3638 -1.0105  2.6820
 8273TIP3   OH246309   6.722   0.543  14.615  0.5858  0.1876  0.1031
 8273TIP3    H146310   6.651   0.510  14.670  0.7827 -0.0257  0.2282
 8273TIP3    H246311   6.677   0.588  14.543  0.3217 -0.0568  0.1121
 8274TIP3   OH246312   4.438   0.363   4.429 -0.0996  0.5617  0.0180
 8274TIP3    H146313   4.393   0.382   4.347 -0.3289  2.6226  0.5553
 8274TIP3    H246314   4.453   0.449   4.469  1.6918 -0.2594  1.2564
 8275TIP3   OH246315   5.407   2.328  11.887  0.2451  0.1055 -0.1589
 8275TIP3    H146316   5.482   2.275  11.914  2.1129  2.6022 -0.1353
 8275TIP3    H246317   5.433   2.418  11.905 -1.7533  1.2668 -2.5079
 8276TIP3   OH246318   6.502   3.904   2.114  0.4682 -0.3099 -0.1090
 8276TIP3    H146319   6.445   3.849   2.168  0.0368 -0.2032 -0.4493
 8276TIP3    H246320   6.441   3.957   2.062  0.8727 -0.5616 -0.8484
 8277TIP3   OH246321   2.410   3.708  12.163 -0.6533 -0.0515  0.0167
 8277TIP3    H146322   2.376   3.789  12.126 -1.7643  0.5502  2.1688
 8277TIP3    H246323   2.379   3.639  12.105 -0.9903  0.9398 -0.9939
 8278TIP3   OH246324   2.999   6.600   0.887  0.5288  0.0422 -0.0915
 8278TIP3    H146325   3.047   6.551   0.820  1.9001  0.6019  0.4429
 8278TIP3    H246326   3.058   6.600   0.962 -0.5146  0.3891  0.7423
 8279TIP3   OH246327   0.697   6.762   4.644 -0.5945 -0.0663 -0.7790
 8279TIP3    H146328   0.670   6.811   4.566 -0.9333 -0.2621 -0.7874
 8279TIP3    H246329   0.786   6.791   4.661 -0.6940  0.3432 -0.9515
 8280TIP3   OH246330   4.889   2.220   0.257 -0.0206  0.7153 -0.5519
 8280TIP3    H146331   4.904   2.205   0.351 -0.4254  2.2141 -0.2296
 8280TIP3    H246332   4.940   2.298   0.236 -0.4489  0.7781 -1.4287
 8281TIP3   OH246333   4.733   4.965  14.482 -0.4839 -0.3907 -0.3832
 8281TIP3    H146334   4.649   4.976  14.439 -1.0958  0.5884  1.0023
 8281TIP3    H246335   4.773   5.052  14.480 -0.3466 -0.4166  0.6339
 8282TIP3   OH246336   6.290   2.532  13.548 -0.1312  0.5236 -0.0736
 8282TIP3    H146337   6.342   2.552  13.470  0.0475  2.2614  0.4332
 8282TIP3    H246338   6.338   2.462  13.592  0.1743  0.0602 -1.1165
 8283TIP3   OH246339   5.055   1.129  13.041 -0.0274 -0.0531  0.9563
 8283TIP3    H146340   5.145   1.097  13.035  0.6602  1.9173  0.3299
 8283TIP3    H246341   5.038   1.133  13.136  0.3583 -0.8532  1.0739
 8284TIP3   OH246342   1.327   4.582  14.667 -0.2044  1.0250  0.6039
 8284TIP3    H146343   1.415   4.545  14.678 -0.1338  0.9403 -0.2146
 8284TIP3    H246344   1.275   4.541  14.737 -0.1100 -0.5551 -0.1995
 8285TIP3   OH246345   5.043   5.282  16.883  0.5003  0.0475  0.2484
 8285TIP3    H146346   5.121   5.289  16.829 -0.9389  0.3547 -1.9205
 8285TIP3    H246347   4.984   5.226  16.833 -0.3927 -0.8713  2.2196
 8286TIP3   OH246348   0.473   1.441  12.819  0.5834 -0.2378 -0.9896
 8286TIP3    H146349   0.565   1.467  12.824  0.3946  0.5403 -1.3397
 8286TIP3    H246350   0.437   1.466  12.904  0.0015  2.3810 -1.9001
 8287TIP3   OH246351   5.330   6.259  12.227 -0.0377 -0.2183  0.2545
 8287TIP3    H146352   5.384   6.180  12.219  0.7212  0.2796  0.3856
 8287TIP3    H246353   5.271   6.240  12.300  0.7106 -0.3518  0.8429
 8288TIP3   OH246354   1.811   5.667   5.007  0.1520  0.6464  0.4800
 8288TIP3    H146355   1.718   5.685   4.990  0.0568  0.3482  0.6801
 8288TIP3    H246356   1.829   5.587   4.959 -0.5679 -1.1988  3.0642
 8289TIP3   OH246357   6.003   5.899  15.799  0.0376  0.1368 -0.5834
 8289TIP3    H146358   5.959   5.936  15.875  0.9653  0.7748 -0.3311
 8289TIP3    H246359   5.961   5.814  15.786  1.2912 -1.0023  2.0148
 8290TIP3   OH246360   0.066   3.257   1.941  0.0669  0.0890  0.1074
 8290TIP3    H146361   0.042   3.295   2.026 -0.4428 -1.0806  0.5078
 8290TIP3    H246362   0.142   3.203   1.960  0.8134  0.9159 -0.4678
 8291TIP3   OH246363   3.678   2.265  16.017 -0.1494  0.0967  0.5935
 8291TIP3    H146364   3.691   2.312  15.935 -0.8177 -0.3110  0.2435
 8291TIP3    H246365   3.600   2.305  16.056 -2.2819 -2.2731 -0.9150
 8292TIP3   OH246366   0.515   4.207  11.227 -0.2093  0.5990  0.3410
 8292TIP3    H146367   0.461   4.245  11.296 -2.3743  1.4610 -1.6658
 8292TIP3    H246368   0.498   4.113  11.232  2.1429  0.1945  2.8710
 8293TIP3   OH246369   5.069   6.389  10.991 -0.1148 -0.1142  0.9020
 8293TIP3    H146370   5.144   6.416  11.043 -0.3311 -0.4371  1.3975
 8293TIP3    H246371   5.083   6.296  10.975  0.4756  0.2020 -0.5315
 8294TIP3   OH246372   0.379   3.876   5.451  0.4037 -0.8203  0.0198
 8294TIP3    H146373   0.315   3.807   5.462 -1.4058  0.8376  0.5489
 8294TIP3    H246374   0.365   3.934   5.527  1.4717  0.4086 -0.6662
 8295TIP3   OH246375   1.902   6.168  14.050 -0.3315  0.3733 -0.2366
 8295TIP3    H146376   1.942   6.155  14.136  2.3053 -1.1078 -1.5411
 8295TIP3    H246377   1.890   6.262  14.043 -0.9321  0.5029  1.8499
 8296TIP3   OH246378   0.111   5.531  11.498  0.0383 -0.6588 -0.5311
 8296TIP3    H146379   0.106   5.619  11.460  1.5144 -0.0902  0.4797
 8296TIP3    H246380   0.033   5.525  11.553  0.5001  0.5365  0.3260
 8297TIP3   OH246381   0.018   5.688  14.427 -0.2852 -0.1057 -0.4498
 8297TIP3    H146382   0.015   5.717  14.335  0.9177  0.5219 -0.3174
 8297TIP3    H246383  -0.060   5.727  14.466  0.7981  2.3015 -0.5013
 8298TIP3   OH246384   2.161   0.894  15.676  0.3681 -0.3333 -0.3214
 8298TIP3    H146385   2.227   0.904  15.607  1.3544  0.5269  0.7059
 8298TIP3    H246386   2.196   0.825  15.732 -0.5186 -1.1556 -0.7601
 8299TIP3   OH246387   6.075   6.525  14.205  0.1055 -0.0349  0.5030
 8299TIP3    H146388   5.982   6.505  14.193  0.4875 -1.5625 -0.0800
 8299TIP3    H246389   6.087   6.609  14.159 -0.4248 -1.2137 -1.9662
 8300TIP3   OH246390   5.231   6.530  13.363 -0.3629 -0.0171  0.1874
 8300TIP3    H146391   5.207   6.437  13.367 -1.0099 -0.0201 -2.4603
 8300TIP3    H246392   5.325   6.531  13.381 -0.2418 -1.2467 -0.2947
 8301TIP3   OH246393   0.662   2.961   5.797 -0.0009 -0.5288  0.2522
 8301TIP3    H146394   0.674   3.038   5.851 -0.7727 -0.3335  0.1538
 8301TIP3    H246395   0.731   2.966   5.731  1.2227 -0.9949  1.4522
 8302TIP3   OH246396   3.888   3.177  15.882 -0.0122  0.2738  0.0721
 8302TIP3    H146397   3.849   3.191  15.795  1.1873  2.2265 -0.2129
 8302TIP3    H246398   3.980   3.201  15.871  0.5582 -1.1315  1.5027
 8303TIP3   OH246399   0.904   0.398  13.434 -0.0851  0.1397 -0.3776
 8303TIP3    H146400   0.885   0.309  13.405  0.0887 -0.2918  0.7754
 8303TIP3    H246401   0.999   0.404  13.430 -0.1542  0.6426 -1.4691
 8304TIP3   OH246402   0.570   4.964   3.686  0.0537  0.1747  0.4823
 8304TIP3    H146403   0.619   5.021   3.744  0.8148 -0.3855  0.4131
 8304TIP3    H246404   0.622   4.883   3.683  0.0320  0.1930 -0.9644
 8305TIP3   OH246405   0.809   0.193  12.168 -0.1461  0.0519  0.3246
 8305TIP3    H146406   0.857   0.254  12.112 -1.5909 -1.9314 -3.4920
 8305TIP3    H246407   0.737   0.244  12.204  0.9165  1.4563  0.5460
 8306TIP3   OH246408   1.121   4.674  14.504  0.3417 -0.2380  0.5986
 8306TIP3    H146409   1.062   4.652  14.576  0.7995 -3.1178  0.2091
 8306TIP3    H246410   1.208   4.678  14.545  0.2999  0.7091  0.6131
 8307TIP3   OH246411   2.296   0.863   4.511  0.0509  0.1798 -0.1923
 8307TIP3    H146412   2.275   0.948   4.472 -0.5465 -0.6677 -1.8162
 8307TIP3    H246413   2.212   0.817   4.514  0.3631 -0.3535  0.6894
 8308TIP3   OH246414   5.793   1.337  11.783  0.1023  0.1769  0.0221
 8308TIP3    H146415   5.766   1.260  11.833  2.2427  0.3465  1.5766
 8308TIP3    H246416   5.730   1.405  11.808 -1.3502 -0.8098 -0.7830
 8309TIP3   OH246417   5.033   4.199  11.538  0.1996 -0.3492  0.0607
 8309TIP3    H146418   5.025   4.181  11.631  1.2035  0.4809  0.3308
 8309TIP3    H246419   5.095   4.134  11.505 -0.3176 -0.7781 -0.0846
 8310TIP3   OH246420   6.789   3.652  13.822  0.2310 -0.2256  0.5609
 8310TIP3    H146421   6.855   3.685  13.760  0.3314  0.8737  1.2306
 8310TIP3    H246422   6.813   3.692  13.906 -0.6223 -0.7227  1.0507
 8311TIP3   OH246423   5.036   6.135   5.306 -0.0086 -0.0143  0.4531
 8311TIP3    H146424   4.980   6.073   5.260 -0.0990 -1.1220  1.9663
 8311TIP3    H246425   4.999   6.140   5.394  1.5533  0.1499  1.1380
 8312TIP3   OH246426   5.815   0.032  17.107 -0.1886 -0.2799 -0.3115
 8312TIP3    H146427   5.897  -0.012  17.132  0.4506  0.8335 -0.4243
 8312TIP3    H246428   5.789   0.079  17.186  0.2577  0.8352 -0.8079
 8313TIP3   OH246429   1.704   6.190   3.809 -0.5354 -1.1034  0.5215
 8313TIP3    H146430   1.747   6.160   3.889 -0.4014 -1.3831  0.3465
 8313TIP3    H246431   1.774   6.232   3.759 -0.9837  0.7265  1.3505
 8314TIP3   OH246432   3.555   0.797   3.471  0.1180 -0.2400 -0.6660
 8314TIP3    H146433   3.639   0.753   3.456  0.4534  0.6483 -1.4378
 8314TIP3    H246434   3.534   0.839   3.388 -0.2410  0.9799  0.0167
 8315TIP3   OH246435   6.677   0.610   3.076  0.1598 -0.1515  0.5559
 8315TIP3    H146436   6.768   0.604   3.049  0.5363 -3.3417  2.0559
 8315TIP3    H246437   6.630   0.554   3.014 -0.8485  1.3328 -0.1048
 8316TIP3   OH246438   5.725   5.819  14.012  0.6598 -0.8353 -0.2272
 8316TIP3    H146439   5.768   5.771  13.941 -0.3264  0.0558 -1.4810
 8316TIP3    H246440   5.748   5.911  13.997  0.5829 -0.6508  0.7143
 8317TIP3   OH246441   3.965   3.837  15.689 -0.1001 -0.3488  0.3890
 8317TIP3    H146442   3.962   3.881  15.774  2.1778 -0.5799  0.6582
 8317TIP3    H246443   4.058   3.838  15.665 -0.5833 -0.9969 -1.7344
 8318TIP3   OH246444   3.005   5.364   6.549 -0.4843 -0.2076  0.2156
 8318TIP3    H146445   2.963   5.286   6.512 -1.9676  1.2643 -1.3952
 8318TIP3    H246446   3.078   5.382   6.491  0.2870 -0.7671  0.9942
 8319TIP3   OH246447   4.773   5.339  16.922  0.1704  0.4455  0.5390
 8319TIP3    H146448   4.683   5.324  16.892  0.8722 -0.6296 -1.1973
 8319TIP3    H246449   4.801   5.254  16.956  1.9604 -0.6401 -3.1542
 8320TIP3   OH246450   5.512   2.407   3.590  0.9171  0.1669  0.3035
 8320TIP3    H146451   5.428   2.392   3.633 -0.0186 -1.7642 -1.9655
 8320TIP3    H246452   5.500   2.488   3.541  1.0682  0.9050  1.4497
 8321TIP3   OH246453   2.066   3.040  11.118 -0.1621 -0.4570 -0.1284
 8321TIP3    H146454   1.977   3.011  11.095 -0.2764  1.2932 -2.2072
 8321TIP3    H246455   2.053   3.123  11.164  0.3688 -0.7060  0.4739
 8322TIP3   OH246456   5.448   4.390   2.861 -0.3201 -0.0055 -0.2765
 8322TIP3    H146457   5.430   4.483   2.847 -1.7627 -0.2705 -0.3636
 8322TIP3    H246458   5.502   4.387   2.940 -0.2117  0.9017 -0.3084
 8323TIP3   OH246459   3.347   4.707   3.206 -0.7815  0.0948  0.0902
 8323TIP3    H146460   3.346   4.644   3.278  0.5354  1.9549  1.8216
 8323TIP3    H246461   3.402   4.779   3.237 -0.8703  1.3730 -2.4538
 8324TIP3   OH246462   0.143   1.437  14.448 -0.2813 -0.2485  0.7669
 8324TIP3    H146463   0.193   1.509  14.487  3.1121  0.1780 -3.6221
 8324TIP3    H246464   0.083   1.479  14.387  3.1196 -0.7291 -3.3647
 8325TIP3   OH246465   4.376   1.777   0.054  0.1482 -0.1842  0.9300
 8325TIP3    H146466   4.289   1.784   0.014  0.0824 -0.9779  0.9213
 8325TIP3    H246467   4.434   1.751  -0.017  0.7508  2.0470  0.5395
 8326TIP3   OH246468   3.557   6.137  13.285  0.1548 -0.2132  0.3549
 8326TIP3    H146469   3.622   6.070  13.264 -0.6107 -0.6827 -0.6694
 8326TIP3    H246470   3.474   6.089  13.288 -0.4327  0.6947 -0.5513
 8327TIP3   OH246471   4.282   5.261   1.422  0.1281 -0.2786  0.1138
 8327TIP3    H146472   4.352   5.280   1.360 -1.2826  0.9366 -1.1838
 8327TIP3    H246473   4.297   5.322   1.494  0.6561 -0.3374  0.0574
 8328TIP3   OH246474   6.505   0.652  16.466 -0.0920  0.0805  0.3051
 8328TIP3    H146475   6.502   0.704  16.385 -1.0971 -0.4374 -0.0125
 8328TIP3    H246476   6.593   0.616  16.469 -0.5401 -1.3276 -1.5036
 8329TIP3   OH246477   2.525   5.764   6.482  0.2448 -0.5268 -0.3911
 8329TIP3    H146478   2.518   5.684   6.534  1.2720 -0.7112 -0.5042
 8329TIP3    H246479   2.453   5.759   6.420  0.5867 -1.6265 -0.7169
 8330TIP3   OH246480   4.612   0.034  16.813  0.0720 -0.3511  0.6555
 8330TIP3    H146481   4.569  -0.052  16.807  1.0702 -0.8397  0.3396
 8330TIP3    H246482   4.704   0.016  16.796  0.1578  0.9277 -0.3339
 8331TIP3   OH246483   3.492   3.343   2.295  0.2060  0.0172  0.2573
 8331TIP3    H146484   3.418   3.316   2.348  0.8182  0.1726  1.2212
 8331TIP3    H246485   3.507   3.435   2.319 -0.5044  0.5968 -1.3808
 8332TIP3   OH246486   4.889   2.204  12.904 -0.7311  0.5529 -0.0889
 8332TIP3    H146487   4.942   2.283  12.915 -0.6299  0.5187 -0.3173
 8332TIP3    H246488   4.834   2.223  12.828 -0.6830  0.3917 -0.1650
 8333TIP3   OH246489   3.529   3.279  11.256  0.0572 -0.0355 -0.0356
 8333TIP3    H146490   3.438   3.306  11.251  0.1188  0.0650 -0.6460
 8333TIP3    H246491   3.548   3.243  11.170  0.1084 -1.5995  0.5893
 8334TIP3   OH246492   4.506   3.047  12.074  0.2904  0.3349 -0.5382
 8334TIP3    H146493   4.495   3.016  12.164  1.3549 -0.0265 -0.5227
 8334TIP3    H246494   4.420   3.082  12.050 -0.6818 -1.6449 -0.1862
 8335TIP3   OH246495   0.875   0.705   3.368  0.4419 -0.3318  0.5835
 8335TIP3    H146496   0.927   0.763   3.313 -1.8249  1.3668  0.0739
 8335TIP3    H246497   0.800   0.682   3.313  0.4564 -2.4405  1.3795
 8336TIP3   OH246498   3.487   1.245  15.479 -0.5050 -0.4501  0.0490
 8336TIP3    H146499   3.503   1.159  15.440  0.7526 -0.3252  0.2726
 8336TIP3    H246500   3.507   1.235  15.572  1.8325  0.6037 -0.2771
 8337TIP3   OH246501   1.341   3.672   3.410 -0.1096  0.3795 -0.1021
 8337TIP3    H146502   1.276   3.720   3.360 -1.3606 -1.6695 -0.5729
 8337TIP3    H246503   1.358   3.594   3.358 -0.3827 -1.1446  1.9544
 8338TIP3   OH246504   0.779   4.871  13.905 -0.2227  0.0653 -0.4711
 8338TIP3    H146505   0.742   4.783  13.915 -0.1118 -0.2397 -2.3962
 8338TIP3    H246506   0.751   4.917  13.984 -2.4546 -0.9523 -0.5747
 8339TIP3   OH246507   6.024   1.480  16.635 -0.5023  0.4488 -0.7703
 8339TIP3    H146508   5.995   1.409  16.578 -0.2904  1.5333 -2.2842
 8339TIP3    H246509   6.116   1.459  16.653 -0.1596  0.8025 -1.9978
 8340TIP3   OH246510   4.686   6.404  16.370  0.2702  0.7551 -0.6126
 8340TIP3    H146511   4.707   6.462  16.442  0.8958 -0.3906  0.1581
 8340TIP3    H246512   4.721   6.447  16.292 -0.0841  1.8236 -0.1907
 8341TIP3   OH246513   3.090   2.633  15.398 -0.2206 -0.4412  0.1582
 8341TIP3    H146514   3.162   2.577  15.427 -1.0715 -1.1079  1.0521
 8341TIP3    H246515   3.129   2.720  15.388  0.7464 -0.8319  0.4144
 8342TIP3   OH246516   3.134   1.777  16.877  0.4255  0.0512 -0.1613
 8342TIP3    H146517   3.142   1.806  16.968  0.4976 -0.9854  0.1719
 8342TIP3    H246518   3.188   1.840  16.827 -1.1001  1.7603  0.2391
 8343TIP3   OH246519   4.596   6.174  15.545 -0.0477 -1.1192 -0.3077
 8343TIP3    H146520   4.529   6.124  15.498  0.4079 -1.2737 -0.8036
 8343TIP3    H246521   4.608   6.127  15.627 -1.0863 -0.6652  0.1268
 8344TIP3   OH246522   2.982   1.355  15.012  0.1351  0.3007 -0.3627
 8344TIP3    H146523   2.887   1.354  15.004  0.1639 -1.2032 -0.8791
 8344TIP3    H246524   2.998   1.334  15.104 -0.0543 -2.3464 -0.8587
 8345TIP3   OH246525   4.066   1.556  13.331 -0.5216 -0.4719 -0.1392
 8345TIP3    H146526   4.093   1.533  13.420  2.8207  0.1725 -0.8515
 8345TIP3    H246527   4.097   1.484  13.276  0.7142  0.7220 -1.1219
 8346TIP3   OH246528   5.191   0.401  15.817  0.0340 -0.2063 -0.4712
 8346TIP3    H146529   5.149   0.473  15.864  1.3898 -0.0733  0.6074
 8346TIP3    H246530   5.256   0.445  15.762  0.8740 -0.5781  0.1995
 8347TIP3   OH246531   2.674   3.334   3.875  0.0191 -0.2625 -0.3067
 8347TIP3    H146532   2.691   3.375   3.961 -0.8640  0.9627 -0.6837
 8347TIP3    H246533   2.761   3.327   3.835  0.2788  0.5827  0.0741
 8348TIP3   OH246534   1.059   5.028  13.466 -0.2605 -0.1631  0.0711
 8348TIP3    H146535   0.987   5.013  13.528 -0.7796 -0.6278 -0.6280
 8348TIP3    H246536   1.138   5.012  13.517 -0.6512  0.0962  0.7875
 8349TIP3   OH246537   3.315   0.539  12.995  0.4421 -0.2761  0.4489
 8349TIP3    H146538   3.288   0.631  12.997  0.3650 -0.2541 -0.6976
 8349TIP3    H246539   3.384   0.536  12.928 -1.2766 -1.4657 -1.3768
 8350TIP3   OH246540   3.492   0.698   4.396 -0.1862 -0.2392  0.1225
 8350TIP3    H146541   3.471   0.685   4.303  1.7038  0.4134 -0.4491
 8350TIP3    H246542   3.413   0.670   4.442 -0.5883 -2.2069 -1.5780
 8351TIP3   OH246543   0.681   6.178   3.333  0.5128 -0.2526  0.2426
 8351TIP3    H146544   0.695   6.162   3.240 -2.6990 -0.5293 -0.3056
 8351TIP3    H246545   0.659   6.092   3.369 -2.8836  0.4737  0.1947
 8352TIP3   OH246546   3.937   3.826   1.485  0.1446 -0.4396 -0.1355
 8352TIP3    H146547   3.851   3.866   1.473  0.7825  0.4936 -2.1784
 8352TIP3    H246548   3.951   3.825   1.579 -1.5691  0.5576  0.1636
 8353TIP3   OH246549   5.689   6.377   4.515 -0.3076 -0.7031 -0.3298
 8353TIP3    H146550   5.670   6.438   4.443  2.5320 -0.7015 -1.2012
 8353TIP3    H246551   5.772   6.336   4.490 -0.3048 -2.2728  1.9815
 8354TIP3   OH246552   4.114   6.502  11.548  0.3501 -0.3290  0.4223
 8354TIP3    H146553   4.058   6.531  11.620  0.1669  0.2469  0.0497
 8354TIP3    H246554   4.169   6.577  11.527  2.1709 -1.2600  1.6023
 8355TIP3   OH246555   5.124   3.211  10.666  0.2642 -0.2312 -0.1844
 8355TIP3    H146556   5.132   3.156  10.744  0.4420 -1.7065 -1.1976
 8355TIP3    H246557   5.206   3.259  10.662 -0.0830  0.5096  0.9767
 8356TIP3   OH246558   1.526   3.355   2.378 -0.8753  0.1212  0.1916
 8356TIP3    H146559   1.515   3.373   2.472 -2.0938 -2.7101  0.6869
 8356TIP3    H246560   1.593   3.287   2.374 -0.9892  0.0566 -0.9956
 8357TIP3   OH246561   0.625   2.357  15.426 -0.1939 -0.3141 -0.0150
 8357TIP3    H146562   0.617   2.418  15.353  1.1046 -1.0856 -0.8373
 8357TIP3    H246563   0.597   2.272  15.391  0.5439 -0.7153  0.3301
 8358TIP3   OH246564   1.067   3.622   2.100 -0.2344 -0.4771 -0.2227
 8358TIP3    H146565   1.099   3.534   2.080 -1.4080 -0.9648  0.0032
 8358TIP3    H246566   0.976   3.622   2.071  0.4907  1.5945 -3.0164
 8359TIP3   OH246567   5.100   6.522   2.940  0.1806 -0.6791  0.4562
 8359TIP3    H146568   5.191   6.493   2.926 -0.4311 -2.0200 -1.0871
 8359TIP3    H246569   5.106   6.585   3.012  2.4706  0.0213 -0.2535
 8360TIP3   OH246570   0.263   5.017  13.829  0.0306 -0.3152 -0.0390
 8360TIP3    H146571   0.213   5.097  13.813  0.4930  0.1663  0.7985
 8360TIP3    H246572   0.201   4.946  13.814 -1.0246  0.2681  1.3103
 8361TIP3   OH246573   1.642   0.298   6.463 -0.3947  0.4266  0.1584
 8361TIP3    H146574   1.683   0.363   6.520 -0.7626  1.5305 -0.7857
 8361TIP3    H246575   1.552   0.330   6.452  0.3559  1.7786 -3.1555
 8362TIP3   OH246576   2.355   1.667   4.162  0.2595 -0.1547 -0.7287
 8362TIP3    H146577   2.320   1.754   4.147  0.5403 -0.0202 -0.6111
 8362TIP3    H246578   2.414   1.677   4.236  1.5878 -0.0922 -1.7487
 8363TIP3   OH246579   4.037   5.752  14.347  0.1766  0.0528 -0.1159
 8363TIP3    H146580   4.032   5.800  14.264 -0.3999  0.6972  0.2813
 8363TIP3    H246581   4.127   5.767  14.377 -0.4077  2.1932  0.7445
 8364TIP3   OH246582   4.062   2.917   0.217  0.2630 -1.0103 -0.1922
 8364TIP3    H146583   4.065   2.950   0.127  0.9991  1.5440  0.6735
 8364TIP3    H246584   3.974   2.881   0.227 -0.9552  1.5293 -1.0500
 8365TIP3   OH246585   2.323   0.321   5.389 -0.0821 -0.5937  0.1023
 8365TIP3    H146586   2.370   0.277   5.459  0.5752  0.1190  0.1236
 8365TIP3    H246587   2.312   0.411   5.420  0.2866 -0.2492 -0.7301
 8366TIP3   OH246588   5.590   0.403   3.554 -0.4521  0.2459 -0.5312
 8366TIP3    H146589   5.504   0.368   3.577  0.3841 -2.5825 -1.2109
 8366TIP3    H246590   5.648   0.369   3.621  0.3983  0.6666 -1.0334
 8367TIP3   OH246591   3.658   1.994  12.099 -0.2077  0.0665  0.1512
 8367TIP3    H146592   3.662   1.961  12.009  0.6864  1.8684 -0.5348
 8367TIP3    H246593   3.600   2.070  12.093 -1.3231 -0.6548  1.4326
 8368TIP3   OH246594   1.291   0.219   6.704  0.0702 -0.6658  0.3163
 8368TIP3    H146595   1.215   0.265   6.668 -0.4846 -1.0978  0.9243
 8368TIP3    H246596   1.254   0.154   6.764  0.9358 -0.5858  0.9536
 8369TIP3   OH246597   0.589   3.838   1.971  0.1872  0.2599  0.4918
 8369TIP3    H146598   0.568   3.904   2.037 -1.8585 -0.5825  0.7720
 8369TIP3    H246599   0.508   3.827   1.922  1.6719  0.9907 -2.3669
 8370TIP3   OH246600   5.134   6.764   4.901 -0.4069  0.3969 -0.0970
 8370TIP3    H146601   5.116   6.833   4.837 -2.6820  0.5354  0.5962
 8370TIP3    H246602   5.049   6.725   4.918  0.7567 -2.3491 -0.1465
 8371TIP3   OH246603   5.192   6.175   2.134  0.3565 -0.2687  0.1758
 8371TIP3    H146604   5.129   6.141   2.198  0.1655 -0.2830 -0.0218
 8371TIP3    H246605   5.274   6.128   2.155  0.3534 -0.1138  0.5503
 8372TIP3   OH246606   0.779   3.236  11.452  0.1264 -0.1068  0.1831
 8372TIP3    H146607   0.812   3.322  11.428  0.1793  0.4645  2.0757
 8372TIP3    H246608   0.815   3.176  11.387  0.9512  1.1653 -0.5573
 8373TIP3   OH246609   1.044   3.115   3.016  0.3490 -0.2346 -0.3033
 8373TIP3    H146610   1.068   3.204   2.988 -0.6144  0.2197  0.2547
 8373TIP3    H246611   1.107   3.058   2.971  3.0314  0.8934  1.7408
 8374TIP3   OH246612   6.596   3.869   3.405  0.3670  0.1900 -0.2050
 8374TIP3    H146613   6.614   3.789   3.455  0.4011  1.2648  1.5811
 8374TIP3    H246614   6.570   3.838   3.318  0.3857 -1.7564  0.4447
 8375TIP3   OH246615   1.602   5.106   0.850 -0.1175 -0.2805 -0.2608
 8375TIP3    H146616   1.589   5.146   0.936  0.8187 -0.5640  0.0210
 8375TIP3    H246617   1.516   5.111   0.808 -1.0814 -1.8041  1.3855
 8376TIP3   OH246618   4.079   4.037  12.146 -0.8094 -0.4677  0.4335
 8376TIP3    H146619   4.129   4.084  12.079 -2.0153 -1.8311 -1.5361
 8376TIP3    H246620   4.143   3.983  12.191  0.3464  1.8811  1.7516
 8377TIP3   OH246621   6.116   3.377   1.689  0.1432 -0.0827 -0.0185
 8377TIP3    H146622   6.116   3.343   1.779  0.6944  0.0783  0.0417
 8377TIP3    H246623   6.027   3.360   1.658  0.6451 -2.5616 -0.3609
 8378TIP3   OH246624   3.489   6.534   1.190 -0.0968  0.6101  0.0284
 8378TIP3    H146625   3.578   6.567   1.202  0.2380 -0.5988  0.9899
 8378TIP3    H246626   3.496   6.469   1.120  0.0896 -0.5814  1.1177
 8379TIP3   OH246627   5.374   4.850  11.440  0.5812 -0.1400 -0.3360
 8379TIP3    H146628   5.314   4.816  11.507  1.0813  0.5085  0.4569
 8379TIP3    H246629   5.322   4.916  11.393 -0.0036 -1.1058 -1.0909
 8380TIP3   OH246630   1.789   0.310  16.470 -0.5756  0.3786  0.1883
 8380TIP3    H146631   1.773   0.369  16.396 -1.4181  0.3038  0.3086
 8380TIP3    H246632   1.865   0.258  16.443 -0.1598  1.1370 -0.1470
 8381TIP3   OH246633   0.136   2.021  12.878 -0.1625  0.0704  0.3782
 8381TIP3    H146634   0.155   2.084  12.947 -0.2049 -0.6174  1.0256
 8381TIP3    H246635   0.040   2.013  12.878 -0.0621 -1.4628  1.6468
 8382TIP3   OH246636   6.192   4.202   5.123  0.7854 -0.2256 -0.0865
 8382TIP3    H146637   6.242   4.234   5.048  0.2401  0.7085 -0.0686
 8382TIP3    H246638   6.248   4.222   5.199 -0.2311  2.3496  0.1044
 8383TIP3   OH246639   5.713   5.886  13.580  0.0574  0.4380 -0.1345
 8383TIP3    H146640   5.766   5.874  13.500 -1.6744 -1.2143 -1.1221
 8383TIP3    H246641   5.758   5.834  13.646 -0.6195 -1.5233 -1.1430
 8384TIP3   OH246642   1.727   6.478   2.170 -0.0029 -0.5186 -0.5604
 8384TIP3    H146643   1.688   6.564   2.186  2.2428  0.3424  0.7202
 8384TIP3    H246644   1.723   6.434   2.255  1.8136 -0.3639 -0.3629
 8385TIP3   OH246645   1.336   4.885  13.619 -0.2671 -0.1260  0.2921
 8385TIP3    H146646   1.354   4.967  13.666 -1.2517  0.1532  0.2054
 8385TIP3    H246647   1.284   4.833  13.680 -0.4464 -0.2921  0.0024
 8386TIP3   OH246648   0.859   3.505  11.444  0.2532 -0.1355  0.0644
 8386TIP3    H146649   0.805   3.580  11.419  0.1558 -0.2073  0.0561
 8386TIP3    H246650   0.949   3.537  11.443  0.1762  0.1066  0.5223
 8387TIP3   OH246651   3.957   1.177   4.707  0.0123  1.0560 -0.0960
 8387TIP3    H146652   3.976   1.084   4.717  0.5929  0.9447 -1.8903
 8387TIP3    H246653   3.862   1.182   4.699 -0.2819  0.9227  2.3780
 8388TIP3   OH246654   4.837   2.779   2.402 -0.2292  0.3053  0.2545
 8388TIP3    H146655   4.884   2.733   2.473 -1.2006 -0.5338  0.3857
 8388TIP3    H246656   4.773   2.833   2.448 -0.0455  0.6967  0.0490
 8389TIP3   OH246657   6.127   5.411   4.710  0.3978 -0.0458 -0.2306
 8389TIP3    H146658   6.073   5.337   4.738  0.1457  0.2508  0.0806
 8389TIP3    H246659   6.089   5.440   4.628  0.8967 -0.6707 -0.6913
 8390TIP3   OH246660   0.337   3.305   4.665 -0.2236  0.2673 -0.2674
 8390TIP3    H146661   0.371   3.385   4.704  0.5271 -0.5901  0.9018
 8390TIP3    H246662   0.247   3.299   4.696 -0.3176  0.7114 -0.4511
 8391TIP3   OH246663   1.101   4.340   5.656  0.0989  0.4237  0.2811
 8391TIP3    H146664   1.126   4.247   5.657  0.3869  0.4930  1.7163
 8391TIP3    H246665   1.130   4.371   5.571 -0.2005 -0.8550 -0.3160
 8392TIP3   OH246666   2.268   0.300   1.778 -0.3304  0.2398  0.5242
 8392TIP3    H146667   2.323   0.335   1.708 -1.1057  0.0755 -0.1806
 8392TIP3    H246668   2.247   0.376   1.832 -0.5454  0.5548  0.0060
 8393TIP3   OH246669   2.859   2.237   1.036  0.5601  0.0317  0.4677
 8393TIP3    H146670   2.810   2.179   1.094 -1.2078 -0.0599 -1.0055
 8393TIP3    H246671   2.917   2.179   0.988 -1.7836 -0.8037 -1.5983
 8394TIP3   OH246672   6.659   3.680  16.313  0.2436 -0.3866  0.1508
 8394TIP3    H146673   6.627   3.611  16.371  0.5052 -0.5027  0.1561
 8394TIP3    H246674   6.581   3.732  16.293  0.0184 -0.7650  0.0292
 8395TIP3   OH246675   0.502   2.306  13.565 -0.4848  0.0003  0.1441
 8395TIP3    H146676   0.497   2.232  13.625  0.8642 -0.5481 -0.3845
 8395TIP3    H246677   0.431   2.292  13.502  0.8543 -1.8565 -1.0365
 8396TIP3   OH246678   4.839   4.991   5.598  0.3844 -0.3397  0.6354
 8396TIP3    H146679   4.901   5.007   5.527  1.7038 -0.1037  1.7962
 8396TIP3    H246680   4.835   4.896   5.606 -0.1574 -0.3803 -0.0737
 8397TIP3   OH246681   6.012   0.204   5.343 -0.0639 -0.0675 -0.0446
 8397TIP3    H146682   5.986   0.296   5.351  0.3826  0.0077  0.6793
 8397TIP3    H246683   5.932   0.155   5.362 -0.7353  0.1460 -2.0627
 8398TIP3   OH246684   4.171   6.077  12.382  0.0644  0.1614  0.5311
 8398TIP3    H146685   4.183   6.045  12.293  0.4506  0.1964  0.5691
 8398TIP3    H246686   4.115   6.154  12.374 -0.6996 -0.3909  0.4144
 8399TIP3   OH246687   5.441   4.493   5.861  0.1220  0.0231  0.1230
 8399TIP3    H146688   5.372   4.556   5.842 -0.0710 -0.1282  0.3185
 8399TIP3    H246689   5.410   4.411   5.821  0.8467  0.2903 -1.0447
 8400TIP3   OH246690   3.196   1.170   5.367 -0.0781 -1.3736 -0.5150
 8400TIP3    H146691   3.172   1.199   5.455 -0.0027 -0.7709 -0.6863
 8400TIP3    H246692   3.278   1.216   5.349 -0.9824 -0.1099 -1.5755
 8401TIP3   OH246693   4.679   5.499   5.765  0.1739  0.0434 -0.7110
 8401TIP3    H146694   4.600   5.552   5.748  0.5589  0.3700 -1.5325
 8401TIP3    H246695   4.648   5.426   5.818 -0.6243  0.3542 -0.7360
 8402TIP3   OH246696   2.223   0.774  14.678  0.5459  0.0116 -0.0076
 8402TIP3    H146697   2.269   0.724  14.611  1.8108  1.1493 -0.0384
 8402TIP3    H246698   2.249   0.733  14.760 -0.5405 -1.0167 -0.1544
 8403TIP3   OH246699   3.323   2.134   0.277 -0.3474 -0.0301 -0.2566
 8403TIP3    H146700   3.291   2.045   0.287  3.0362 -1.3897  0.0333
 8403TIP3    H246701   3.320   2.171   0.365 -0.0734 -0.5274 -0.0380
 8404TIP3   OH246702   2.946   0.469  11.820 -0.8111  0.4411 -0.5657
 8404TIP3    H146703   2.948   0.543  11.881 -2.2875 -0.1393  0.2455
 8404TIP3    H246704   2.976   0.395  11.872  3.6426  0.8411 -2.1460
 8405TIP3   OH246705   4.606   0.400   5.844 -0.0737 -0.3732  0.4139
 8405TIP3    H146706   4.605   0.470   5.780  1.2388 -2.2794 -1.8673
 8405TIP3    H246707   4.699   0.380   5.856 -0.4355 -2.3432  0.2247
 8406TIP3   OH246708   2.084   1.474   2.784 -0.0884 -0.8157 -0.9518
 8406TIP3    H146709   2.020   1.440   2.846 -0.4350 -0.0393 -0.8705
 8406TIP3    H246710   2.165   1.428   2.804 -0.2257 -0.6477  0.0035
 8407TIP3   OH246711   1.735   4.143  11.854  0.0886  0.6693 -0.1244
 8407TIP3    H146712   1.649   4.106  11.873 -0.1525 -0.2190 -2.5196
 8407TIP3    H246713   1.722   4.238  11.858 -0.6839  0.5406  0.7167
 8408TIP3   OH246714   2.680   2.099   1.167 -0.0730  0.4965 -0.3819
 8408TIP3    H146715   2.698   2.036   1.237  1.8132  1.8478  0.4516
 8408TIP3    H246716   2.584   2.103   1.161 -0.2336 -1.1522  0.7068
 8409TIP3   OH246717   3.049   0.329  15.669 -0.4452  0.1922 -0.0110
 8409TIP3    H146718   3.031   0.297  15.580 -2.1155  1.6634 -0.2563
 8409TIP3    H246719   3.126   0.385  15.659 -0.8243  0.6161 -0.6137
 8410TIP3   OH246720   5.444   5.827  16.516 -0.2238 -0.1313 -0.5768
 8410TIP3    H146721   5.491   5.853  16.437  0.5902 -0.5792 -0.2524
 8410TIP3    H246722   5.506   5.772  16.564 -0.4613  0.6425  0.6726
 8411TIP3   OH246723   3.982   2.326  14.791 -0.0486  0.3125 -0.6424
 8411TIP3    H146724   3.937   2.366  14.717  0.3755  0.0630 -1.0379
 8411TIP3    H246725   4.040   2.395  14.825 -0.3822  0.4876 -0.4162
 8412TIP3   OH246726   3.137   6.139  14.431 -0.5086  1.2034  0.0215
 8412TIP3    H146727   3.208   6.162  14.371 -1.1407 -0.9596 -1.6612
 8412TIP3    H246728   3.080   6.083  14.380 -1.7326  0.2349  2.3270
 8413TIP3   OH246729   6.628   1.514  11.733  0.0516  0.3346  0.3323
 8413TIP3    H146730   6.606   1.420  11.736 -2.4688  0.8675  2.3521
 8413TIP3    H246731   6.577   1.548  11.660 -0.1439  0.3432  0.4709
 8414TIP3   OH246732   2.687   0.527   4.483  0.1476  0.3320 -0.7829
 8414TIP3    H146733   2.723   0.447   4.520 -0.7122  0.4220  0.2921
 8414TIP3    H246734   2.617   0.552   4.543 -0.3477  1.2683 -1.7182
 8415TIP3   OH246735   5.470   0.581  16.867  0.1932  0.5483  0.2815
 8415TIP3    H146736   5.439   0.661  16.909 -1.9011  0.8331 -1.6179
 8415TIP3    H246737   5.478   0.604  16.775  0.7349 -1.1291 -0.1219
 8416TIP3   OH246738   3.101   0.039  12.511 -0.0077  0.2699 -0.0717
 8416TIP3    H146739   3.144   0.117  12.477  2.0659 -0.3505  0.9388
 8416TIP3    H246740   3.086  -0.016  12.434 -1.7053  1.6872 -0.8298
 8417TIP3   OH246741   1.427   6.705   5.275  0.4842  0.2892 -0.0430
 8417TIP3    H146742   1.449   6.633   5.216 -1.1903 -1.9390  1.8950
 8417TIP3    H246743   1.359   6.754   5.229  1.3749  0.4684 -1.2230
 8418TIP3   OH246744   3.387   0.098  11.872 -0.0387 -0.4666 -0.3344
 8418TIP3    H146745   3.356   0.168  11.813  0.6429 -0.3205 -0.5320
 8418TIP3    H246746   3.348   0.018  11.836  1.6865 -0.6293 -2.0293
 8419TIP3   OH246747   2.248   5.718   0.452  0.1881  0.2064  0.0380
 8419TIP3    H146748   2.155   5.738   0.446 -0.5118 -2.4260  0.8415
 8419TIP3    H246749   2.265   5.708   0.546  0.5673 -1.9923 -0.2032
 8420TIP3   OH246750   1.646   4.755  12.240 -0.9260  0.4200 -0.3964
 8420TIP3    H146751   1.632   4.671  12.195  2.3320 -1.8588  2.2967
 8420TIP3    H246752   1.706   4.803  12.183 -1.2260  0.0453 -1.0326
 8421TIP3   OH246753   4.887   0.128  12.687 -0.4005 -0.4143  0.1137
 8421TIP3    H146754   4.852   0.081  12.762 -1.0181 -2.2450 -1.2512
 8421TIP3    H246755   4.811   0.151  12.634  0.0166  0.8909  0.0250
 8422TIP3   OH246756   0.281   2.031   1.201  0.7941 -0.0151  0.7363
 8422TIP3    H146757   0.363   2.034   1.250  0.5170  1.8429  1.1501
 8422TIP3    H246758   0.231   2.106   1.232 -1.0081 -0.9909  0.3565
 8423TIP3   OH246759   0.050   3.390   4.699 -0.1086 -0.0286  0.4056
 8423TIP3    H146760  -0.020   3.403   4.762  0.8693 -2.4229  2.1011
 8423TIP3    H246761   0.111   3.463   4.715 -0.9723  0.6648  0.6082
 8424TIP3   OH246762   5.786   3.750  14.141  0.6962 -0.3646  0.0956
 8424TIP3    H146763   5.777   3.781  14.051 -1.0024  0.6966  0.5869
 8424TIP3    H246764   5.816   3.827  14.190 -0.3271 -0.3491  0.7455
 8425TIP3   OH246765   4.331   2.627  11.808 -0.4678 -0.5281 -0.4684
 8425TIP3    H146766   4.273   2.680  11.754 -1.1228 -0.7934 -0.0354
 8425TIP3    H246767   4.273   2.576  11.863  0.1796 -0.6801  0.0932
 8426TIP3   OH246768   2.787   0.703   1.026 -0.2206  0.2702  0.2856
 8426TIP3    H146769   2.692   0.706   1.039 -0.5754  0.6471 -1.9214
 8426TIP3    H246770   2.824   0.721   1.112 -2.1543  0.6248  1.0923
 8427TIP3   OH246771   4.058   1.242   0.915 -0.4300  0.2844 -0.2261
 8427TIP3    H146772   4.084   1.190   0.991 -1.6298  2.9084  2.1920
 8427TIP3    H246773   3.992   1.189   0.871  1.5887 -2.0859 -0.6118
 8428TIP3   OH246774   1.340   0.150  15.232 -0.4464  0.3339 -0.6512
 8428TIP3    H146775   1.388   0.078  15.273 -0.9253  0.3374 -0.0782
 8428TIP3    H246776   1.393   0.173  15.156  0.7780  0.7434  0.2899
 8429TIP3   OH246777   2.449   4.290   4.083  0.1079  0.0486  0.0418
 8429TIP3    H146778   2.408   4.376   4.076  0.6326  0.4769  1.7960
 8429TIP3    H246779   2.525   4.294   4.025  0.0881  0.7544  0.0608
 8430TIP3   OH246780   4.448   4.013  13.891  0.4025 -0.3374  0.5568
 8430TIP3    H146781   4.456   4.013  13.795 -0.7477  0.5851  0.4389
 8430TIP3    H246782   4.472   4.103  13.916 -0.4931 -0.2160  1.0041
 8431TIP3   OH246783   0.507   5.725  12.520 -0.2437 -0.7024 -0.1919
 8431TIP3    H146784   0.512   5.630  12.535 -0.3536 -1.2033 -2.8977
 8431TIP3    H246785   0.593   5.749  12.486 -0.5997 -0.0444 -0.6350
 8432TIP3   OH246786   4.346   5.459  13.940 -0.0178 -0.0797 -0.5452
 8432TIP3    H146787   4.280   5.456  13.871 -1.9954  0.5074  1.1920
 8432TIP3    H246788   4.388   5.374  13.937  1.4290  0.6122 -3.7317
 8433TIP3   OH246789   6.207   3.479   1.409  0.2913 -0.9385  0.2149
 8433TIP3    H146790   6.156   3.511   1.335  1.5734 -0.5480 -0.5297
 8433TIP3    H246791   6.200   3.384   1.403  0.5793 -0.9211 -0.5777
 8434TIP3   OH246792   2.831   6.089   3.044 -0.4512  0.1794  0.6035
 8434TIP3    H146793   2.750   6.045   3.068 -1.5355 -0.4830 -3.5058
 8434TIP3    H246794   2.899   6.023   3.058 -1.3235 -0.9880 -0.4334
 8435TIP3   OH246795   6.258   1.718   0.785  0.3714  0.2534  0.1678
 8435TIP3    H146796   6.277   1.780   0.855  0.2357  1.2805 -0.6895
 8435TIP3    H246797   6.256   1.771   0.706 -1.6287 -0.5150 -0.3582
 8436TIP3   OH246798   1.380   3.867  13.854 -0.5101 -0.7149  0.3205
 8436TIP3    H146799   1.390   3.815  13.773 -2.0003 -2.3601  1.1302
 8436TIP3    H246800   1.304   3.923  13.837 -1.6716 -2.0146  0.9889
 8437TIP3   OH246801   2.764   3.668  15.103  0.4283 -0.2374  0.1918
 8437TIP3    H146802   2.748   3.732  15.034  1.6038  0.0968  0.2068
 8437TIP3    H246803   2.680   3.623  15.114  0.2256 -0.3453 -1.5079
 8438TIP3   OH246804   2.435   0.481  14.243  0.2559 -0.5765 -0.0818
 8438TIP3    H146805   2.345   0.482  14.277  0.7050  0.5287  1.1871
 8438TIP3    H246806   2.425   0.486  14.148 -1.0263 -0.3809  0.0424
 8439TIP3   OH246807   4.352   0.372   0.644  0.5292 -0.5197  0.2257
 8439TIP3    H146808   4.351   0.400   0.736  1.0798 -1.7218  0.6256
 8439TIP3    H246809   4.385   0.448   0.597  0.8595 -0.0853  1.1185
 8440TIP3   OH246810   2.330   2.585  15.603  0.2757  0.1937 -0.8693
 8440TIP3    H146811   2.414   2.562  15.565 -0.7558  1.2927 -4.1881
 8440TIP3    H246812   2.337   2.679  15.621 -0.1961  0.2780 -1.1089
 8441TIP3   OH246813   2.029   0.782   1.245 -0.4286  0.2086  1.3211
 8441TIP3    H146814   1.982   0.703   1.272 -0.1471 -0.7558 -0.8225
 8441TIP3    H246815   2.105   0.786   1.303  0.3754 -1.9668  0.4862
 8442TIP3   OH246816   3.768   5.131   4.334  0.2430 -0.0119  0.0487
 8442TIP3    H146817   3.719   5.197   4.383 -0.9361 -0.9102  0.1250
 8442TIP3    H246818   3.857   5.167   4.327 -0.6416  2.1735 -1.0221
 8443TIP3   OH246819   5.122   6.661  12.252 -0.0066 -0.2124 -0.2071
 8443TIP3    H146820   5.147   6.632  12.339  0.2933 -0.6369 -0.4321
 8443TIP3    H246821   5.117   6.756  12.259 -0.8962 -0.2946  0.5074
 8444TIP3   OH246822   5.411   0.668  12.809 -0.0743  0.2371 -0.1686
 8444TIP3    H146823   5.385   0.599  12.870 -1.5726  0.3058 -0.6788
 8444TIP3    H246824   5.422   0.622  12.725 -0.4841  0.5277 -0.3814
 8445TIP3   OH246825   6.784   5.393   5.322  0.0846 -0.5258  0.3514
 8445TIP3    H146826   6.746   5.430   5.401  1.0254 -0.3731  0.7423
 8445TIP3    H246827   6.848   5.329   5.353  2.6602  1.6399 -0.1666
 8446TIP3   OH246828   3.449   3.175   6.853  0.4153 -0.3385 -0.4333
 8446TIP3    H146829   3.544   3.160   6.860  0.3694 -0.0144  1.2537
 8446TIP3    H246830   3.412   3.088   6.840  0.7978 -0.7320  0.9469
 8447TIP3   OH246831   3.839   1.970  13.529  0.0685  0.1215 -0.2244
 8447TIP3    H146832   3.857   2.057  13.491  0.1534  0.0610 -0.3229
 8447TIP3    H246833   3.924   1.941  13.563  0.1730 -0.1827 -0.7284
 8448TIP3   OH246834   3.770   6.788  12.114 -0.1149 -0.1154 -0.0947
 8448TIP3    H146835   3.820   6.795  12.195  0.4771 -0.6317 -0.4076
 8448TIP3    H246836   3.797   6.705  12.076 -1.1888 -0.3929 -0.2935
 8449TIP3   OH246837   2.349   2.341   5.859 -0.0990  0.1633  0.4242
 8449TIP3    H146838   2.283   2.327   5.791 -0.3807  3.6897 -0.2200
 8449TIP3    H246839   2.420   2.387   5.815 -0.5078  3.0271  2.4252
 8450TIP3   OH246840   1.148   2.933  13.857  0.9523 -0.1283 -0.6066
 8450TIP3    H146841   1.121   2.875  13.929  1.3279  0.2108 -0.1860
 8450TIP3    H246842   1.085   2.916  13.787 -1.6963  2.1748  1.0498
 8451TIP3   OH246843   1.016   3.619   4.283  0.7196 -0.7335  0.2840
 8451TIP3    H146844   1.038   3.711   4.295  1.5712 -1.1703  2.5269
 8451TIP3    H246845   0.963   3.596   4.360  3.0761 -2.8162  1.4252
 8452TIP3   OH246846   5.869   4.299   6.159  0.1066 -0.1715 -0.1761
 8452TIP3    H146847   5.895   4.391   6.146  0.9565 -0.2096  1.0902
 8452TIP3    H246848   5.804   4.302   6.229 -0.7082 -0.4533 -0.8949
 8453TIP3   OH246849   2.743   0.234   4.531 -0.3786 -0.4300 -0.1551
 8453TIP3    H146850   2.830   0.224   4.572 -1.0696 -0.3148  1.4288
 8453TIP3    H246851   2.689   0.168   4.574 -1.3189  0.1889 -0.3660
 8454TIP3   OH246852   5.398   4.525   3.394  0.3310 -0.0021  0.1823
 8454TIP3    H146853   5.399   4.621   3.388 -1.1458  0.0129 -0.3438
 8454TIP3    H246854   5.378   4.496   3.305  1.6283 -0.8537  0.1449
 8455TIP3   OH246855   5.224   2.854   2.358  0.5996 -0.6368 -0.0116
 8455TIP3    H146856   5.213   2.880   2.266  0.1957  0.3995  0.3086
 8455TIP3    H246857   5.189   2.928   2.408  2.2581 -0.4788  0.9952
 8456TIP3   OH246858   3.161   2.235   0.881 -0.4408  0.4912  0.1808
 8456TIP3    H146859   3.125   2.168   0.823  1.3108  0.9792 -1.5682
 8456TIP3    H246860   3.237   2.193   0.922 -0.6130  0.7376  0.7749
 8457TIP3   OH246861   6.442   0.211  14.482  0.0177 -0.4187 -0.0096
 8457TIP3    H146862   6.363   0.206  14.428  1.2691  0.6823 -2.0495
 8457TIP3    H246863   6.441   0.299  14.518 -0.2440 -0.7948  0.9518
 8458TIP3   OH246864   5.390   6.669   0.382 -0.1027  0.7848  0.2961
 8458TIP3    H146865   5.327   6.721   0.431 -2.1959  0.9411 -2.3424
 8458TIP3    H246866   5.350   6.658   0.295  1.9907 -1.9947 -0.4596
 8459TIP3   OH246867   5.911   1.141   3.787  0.4790 -0.1520 -0.4421
 8459TIP3    H146868   5.855   1.089   3.843  0.3550  0.3942 -0.0545
 8459TIP3    H246869   5.978   1.080   3.756  0.9271 -0.3238  0.8042
 8460TIP3   OH246870   6.767   5.307  12.514 -0.4441 -0.6324 -0.2653
 8460TIP3    H146871   6.858   5.309  12.543  0.0153  2.1139 -1.5649
 8460TIP3    H246872   6.766   5.243  12.442  0.7698  0.1678 -1.0268
 8461TIP3   OH246873   1.792   3.189  12.801  0.1277  0.1066 -0.2645
 8461TIP3    H146874   1.788   3.281  12.774  0.3262  0.2982  0.3395
 8461TIP3    H246875   1.873   3.156  12.763  0.2125  0.2679 -0.2220
 8462TIP3   OH246876   5.225   2.315   0.325  0.7328  0.1399  0.2886
 8462TIP3    H146877   5.211   2.270   0.241  0.7367  1.8851 -0.6932
 8462TIP3    H246878   5.137   2.326   0.361  0.5437  1.0665 -0.4245
 8463TIP3   OH246879   1.420   5.297   6.093  0.7694  0.1069 -0.3375
 8463TIP3    H146880   1.383   5.341   6.016 -2.0062  0.4093  1.0460
 8463TIP3    H246881   1.394   5.352   6.167  0.7943 -1.7091  1.0897
 8464TIP3   OH246882   6.539   4.743   1.143 -0.2507 -0.1765 -0.7320
 8464TIP3    H146883   6.611   4.682   1.156  0.4008  0.8779  0.8336
 8464TIP3    H246884   6.520   4.778   1.230 -1.9257  0.4015 -1.2822
 8465TIP3   OH246885   6.672   3.381   3.519 -0.3506 -0.3343 -0.2563
 8465TIP3    H146886   6.657   3.319   3.448  2.8010 -0.0827 -1.3328
 8465TIP3    H246887   6.696   3.327   3.593 -1.7587 -0.5142  0.0960
 8466TIP3   OH246888   4.816   0.936   1.332  0.7011 -0.2603  0.0416
 8466TIP3    H146889   4.883   0.981   1.383  0.2761  0.6185 -0.1445
 8466TIP3    H246890   4.736   0.986   1.349  0.5279 -0.0215 -1.3726
 8467TIP3   OH246891   3.154   1.455  16.896  0.7511 -0.1859  0.6649
 8467TIP3    H146892   3.221   1.430  16.959 -0.6588 -2.7595  1.3007
 8467TIP3    H246893   3.075   1.465  16.949 -0.0434 -0.4728 -0.4393
 8468TIP3   OH246894   3.273   0.268   5.883 -0.1175 -0.2326  0.4099
 8468TIP3    H146895   3.340   0.335   5.894  0.6420 -0.7687 -0.8201
 8468TIP3    H246896   3.204   0.310   5.833  0.6506 -0.5321 -0.9335
 8469TIP3   OH246897   4.312   5.497   2.645  0.2233 -0.0527 -0.6493
 8469TIP3    H146898   4.326   5.555   2.720  1.6011 -0.1583 -0.7951
 8469TIP3    H246899   4.222   5.466   2.655 -0.3813  1.7224 -0.3122
 8470TIP3   OH246900   0.426   0.054  13.178  0.7345 -0.2125 -0.1558
 8470TIP3    H146901   0.503   0.026  13.127  1.1349  0.4447  0.0703
 8470TIP3    H246902   0.354   0.004  13.141  1.4737 -1.8169  0.4740
 8471TIP3   OH246903   3.440   2.018   1.308  0.6021  0.6506 -0.2203
 8471TIP3    H146904   3.387   2.079   1.359  0.7299  0.6249 -0.0557
 8471TIP3    H246905   3.427   2.044   1.217  0.4342  0.7453 -0.1680
 8472TIP3   OH246906   3.120   3.716  15.321 -0.0701 -0.6121  0.8386
 8472TIP3    H146907   3.065   3.637  15.322  0.3856 -0.9624 -0.0298
 8472TIP3    H246908   3.175   3.705  15.243  1.1152 -0.1949  1.5907
 8473TIP3   OH246909   2.848   5.414   3.599 -0.4942 -0.1931 -0.1473
 8473TIP3    H146910   2.911   5.351   3.634  0.1002  0.3870 -0.1448
 8473TIP3    H246911   2.763   5.378   3.621 -0.1525 -0.3174  1.0833
 8474TIP3   OH246912   1.374   2.131  13.261 -0.1821 -0.2518 -0.1889
 8474TIP3    H146913   1.430   2.141  13.184  0.7491  0.9169  0.6201
 8474TIP3    H246914   1.412   2.057  13.309 -1.1978 -1.4638 -1.1808
 8475TIP3   OH246915   1.557   2.088  14.623 -0.3904 -0.4919  0.4358
 8475TIP3    H146916   1.579   2.084  14.716  0.3425 -0.1843  0.2821
 8475TIP3    H246917   1.603   2.166  14.591  0.6261 -1.4318 -0.5054
 8476TIP3   OH246918   1.187   5.498  16.383 -0.4155 -0.2332  0.2013
 8476TIP3    H146919   1.270   5.543  16.368 -0.5473 -0.5555 -1.7499
 8476TIP3    H246920   1.179   5.495  16.478  2.0771 -0.6967  0.4758
 8477TIP3   OH246921   5.985   4.432   0.398 -0.1702 -0.1948 -0.1116
 8477TIP3    H146922   5.930   4.353   0.404  0.0414 -0.2556  3.9343
 8477TIP3    H246923   6.062   4.404   0.348 -1.5293 -1.5513 -1.5584
 8478TIP3   OH246924   5.569   0.401  17.050 -0.0303  0.0701  0.0761
 8478TIP3    H146925   5.589   0.440  16.965  0.9358  0.3238  0.4005
 8478TIP3    H246926   5.547   0.475  17.106 -0.2872 -0.0565  0.1419
 8479TIP3   OH246927   3.652   5.663   4.498 -0.3142  0.1433  0.4575
 8479TIP3    H146928   3.734   5.624   4.526  0.6020  1.9027  0.3868
 8479TIP3    H246929   3.676   5.717   4.423 -1.3808  1.2923  0.9085
 8480TIP3   OH246930   0.192   2.782  12.418 -0.2200  0.0930  0.3219
 8480TIP3    H146931   0.128   2.852  12.408 -0.2166  0.1388  0.6125
 8480TIP3    H246932   0.259   2.818  12.477 -1.7896 -1.1989  3.0827
 8481TIP3   OH246933   3.847   1.858   2.843  0.2848 -0.0185  0.0998
 8481TIP3    H146934   3.790   1.865   2.765 -1.0538  1.8390  1.1727
 8481TIP3    H246935   3.823   1.774   2.882 -0.1993 -0.2198 -0.6049
 8482TIP3   OH246936   2.173   4.815   3.821 -0.1584  0.6516  0.4593
 8482TIP3    H146937   2.198   4.738   3.874  0.7206  0.9745  0.5349
 8482TIP3    H246938   2.154   4.779   3.735 -1.0525  0.1884  0.8359
 8483TIP3   OH246939   5.938   5.126   2.497 -0.1952  0.4065 -0.2186
 8483TIP3    H146940   5.987   5.168   2.568 -0.0857 -0.3276  0.1447
 8483TIP3    H246941   5.847   5.150   2.514 -0.0861  0.8694 -0.2718
 8484TIP3   OH246942   6.563   3.722  11.587  0.2755 -0.0478  0.4136
 8484TIP3    H146943   6.589   3.807  11.622 -0.1882 -0.4020  1.6424
 8484TIP3    H246944   6.631   3.701  11.523 -0.4865  1.9964 -1.1685
 8485TIP3   OH246945   6.287   2.728   2.812  0.1721 -0.3155 -0.2874
 8485TIP3    H146946   6.360   2.742   2.752 -1.1434 -0.8447 -2.1238
 8485TIP3    H246947   6.271   2.633   2.808 -2.3442  0.0832 -2.1991
 8486TIP3   OH246948   0.393   5.573  14.868 -0.2103  0.3796 -0.1469
 8486TIP3    H146949   0.385   5.487  14.827 -1.0100  0.9511 -1.2391
 8486TIP3    H246950   0.472   5.611  14.829  0.6444 -0.1825  0.9885
 8487TIP3   OH246951   2.385   0.544  16.133  0.0169 -0.0100 -0.2207
 8487TIP3    H146952   2.302   0.564  16.177  1.5732 -0.1835  3.0649
 8487TIP3    H246953   2.384   0.448  16.122 -0.8402  0.1329 -1.7364
 8488TIP3   OH246954   2.215   5.227   4.517  0.2330 -1.2099  0.5465
 8488TIP3    H146955   2.243   5.176   4.441  1.9691  0.9832 -0.3819
 8488TIP3    H246956   2.295   5.237   4.569 -0.2709 -0.2026  1.1512
 8489TIP3   OH246957   5.203   3.942   2.868 -0.2387 -0.4461  0.5816
 8489TIP3    H146958   5.131   3.879   2.865 -1.7273  1.2045 -1.0066
 8489TIP3    H246959   5.164   4.021   2.905  1.2367 -0.0213  1.3037
 8490TIP3   OH246960   4.515   5.258  10.399 -0.2836 -0.3300  0.2838
 8490TIP3    H146961   4.588   5.207  10.364  1.9979  0.9827  2.7571
 8490TIP3    H246962   4.505   5.331  10.338 -0.1583 -1.0001 -0.5549
 8491TIP3   OH246963   2.037   5.390  17.203  0.0901 -0.1566 -0.2052
 8491TIP3    H146964   2.107   5.431  17.151  0.7891 -0.8199  0.2018
 8491TIP3    H246965   2.065   5.300  17.214 -0.6466 -0.3289  0.3120
 8492TIP3   OH246966   3.584   2.805  17.100 -0.0421  0.3938  0.0979
 8492TIP3    H146967   3.637   2.766  17.030 -0.8150  0.9167 -0.8026
 8492TIP3    H246968   3.582   2.738  17.169 -0.0663 -0.5302 -0.7711
 8493TIP3   OH246969   3.419   3.578  15.263  0.0687  0.0672 -0.1956
 8493TIP3    H146970   3.456   3.661  15.292 -0.5904  0.6752 -1.0467
 8493TIP3    H246971   3.347   3.602  15.205 -2.9652 -1.0249  2.7999
 8494TIP3   OH246972   3.029   5.496   4.129 -0.2192 -0.1770  0.6140
 8494TIP3    H146973   3.013   5.578   4.083  0.7740 -1.2688 -1.8796
 8494TIP3    H246974   2.946   5.449   4.126 -0.4193  0.1617  0.8289
 8495TIP3   OH246975   6.330   2.689   4.244  0.0388  0.0305  0.0503
 8495TIP3    H146976   6.411   2.661   4.201 -1.3886 -0.6848 -2.3589
 8495TIP3    H246977   6.280   2.732   4.175 -1.6056  0.5647  1.5047
 8496TIP3   OH246978   0.490   4.301   0.026 -0.0241 -0.0794  0.2390
 8496TIP3    H146979   0.484   4.243   0.102  2.6897 -0.3475  0.3406
 8496TIP3    H246980   0.451   4.251  -0.046 -1.3859 -0.3640  1.1460
 8497TIP3   OH246981   1.869   5.176  12.234  0.2516 -0.6661 -0.5930
 8497TIP3    H146982   1.816   5.212  12.162  0.2291 -0.0336 -0.2675
 8497TIP3    H246983   1.834   5.218  12.313  0.5284 -1.0669 -0.2551
 8498TIP3   OH246984   4.791   5.646  13.849 -0.7661  0.2304 -0.4007
 8498TIP3    H146985   4.696   5.631  13.855 -1.0025  1.8301  0.8430
 8498TIP3    H246986   4.825   5.568  13.806 -2.5705 -0.6852 -0.2919
 8499TIP3   OH246987   3.928   6.436  13.911 -0.7690  0.5359  0.1189
 8499TIP3    H146988   3.912   6.517  13.863  0.5591 -0.0659 -1.4306
 8499TIP3    H246989   3.844   6.389  13.907 -1.2239  1.3262  0.0589
 8500TIP3   OH246990   6.698   5.791  15.574 -0.3275  0.2501  0.0136
 8500TIP3    H146991   6.756   5.716  15.558 -0.1921 -0.2612  2.5066
 8500TIP3    H246992   6.757   5.866  15.578 -0.0443  0.0054  0.6462
 8501TIP3   OH246993   6.345   1.772   4.801 -0.3921  0.5331 -0.3190
 8501TIP3    H146994   6.262   1.731   4.775 -1.0814  1.9955 -0.5445
 8501TIP3    H246995   6.325   1.865   4.806  0.7159  0.7106  1.7381
 8502TIP3   OH246996   1.458   4.159   2.975 -0.5118  0.5341  0.5898
 8502TIP3    H146997   1.372   4.129   3.002 -1.2152  1.1002 -0.9411
 8502TIP3    H246998   1.519   4.097   3.016 -1.6494 -0.1454  1.3082
 8503TIP3   OH246999   0.388   5.160  16.079  0.2256  0.3494  0.1698
 8503TIP3    H147000   0.472   5.200  16.103  0.4606 -0.3658  0.5522
 8503TIP3    H247001   0.407   5.109  16.001  0.7138 -1.7301  1.5758
 8504TIP3   OH247002   2.501   5.036   3.725  0.2655  0.1201 -0.5182
 8504TIP3    H147003   2.429   4.991   3.681 -0.3128 -0.5299  1.0102
 8504TIP3    H247004   2.580   5.003   3.683 -0.2880  0.2728 -1.7164
 8505TIP3   OH247005   5.417   6.222  11.182  0.7960  0.0414  0.6116
 8505TIP3    H147006   5.444   6.195  11.095 -0.3344 -1.2602  0.6263
 8505TIP3    H247007   5.416   6.317  11.179  0.6567  0.0085 -0.8352
 8506TIP3   OH247008   5.842   1.992  12.835 -0.1671  0.2430 -0.3807
 8506TIP3    H147009   5.809   2.082  12.830  0.7782  0.5331 -2.5616
 8506TIP3    H247010   5.870   1.982  12.926 -1.9742  1.4974  0.3777
 8507TIP3   OH247011   2.006   3.857   2.792  0.0908 -0.0650 -0.4804
 8507TIP3    H147012   1.973   3.792   2.730  1.8062  0.6418 -2.2476
 8507TIP3    H247013   1.953   3.935   2.776 -1.6541 -0.7934  1.3155
 8508TIP3   OH247014   5.609   0.842   2.567 -0.3910  0.6004 -0.7592
 8508TIP3    H147015   5.593   0.795   2.486 -1.6604  1.9963 -1.3628
 8508TIP3    H247016   5.526   0.885   2.588  0.3374  1.5235  0.4347
 8509TIP3   OH247017   6.185   5.348   1.078 -0.2040  0.3955  0.0595
 8509TIP3    H147018   6.257   5.330   1.018  0.0587 -1.1315  0.7819
 8509TIP3    H247019   6.107   5.346   1.022  0.0421 -0.9320 -0.2801
 8510TIP3   OH247020   4.410   1.011   4.620  0.7063  0.6735 -0.4475
 8510TIP3    H147021   4.481   1.059   4.576  0.5209  1.0871 -0.2995
 8510TIP3    H247022   4.330   1.048   4.584  0.5606 -0.5591 -1.4278
 8511TIP3   OH247023   1.327   0.008   2.879  0.3929  0.2673 -0.4594
 8511TIP3    H147024   1.298   0.030   2.790  0.2616  1.2604 -0.1840
 8511TIP3    H247025   1.298  -0.083   2.891 -0.0427  0.2859 -1.2401
 8512TIP3   OH247026   2.128   2.971   5.181  0.3379  0.1248 -0.1972
 8512TIP3    H147027   2.162   2.885   5.203  0.0280  0.4081  1.4948
 8512TIP3    H247028   2.076   2.956   5.102  0.6583 -1.1505 -0.1908
 8513TIP3   OH247029   1.599   3.890   3.921  0.5419 -0.2869 -0.2425
 8513TIP3    H147030   1.543   3.941   3.980 -0.9787 -1.0419 -0.9608
 8513TIP3    H247031   1.636   3.821   3.975  1.3007  0.5811  0.3774
 8514TIP3   OH247032   3.442   2.191   5.045 -0.6390  0.2314  0.0312
 8514TIP3    H147033   3.417   2.099   5.033 -0.7374  0.3171 -0.4770
 8514TIP3    H247034   3.360   2.239   5.036 -0.3220  0.5228 -1.6958
 8515TIP3   OH247035   1.198   0.713   0.777 -0.1032 -0.5747 -0.5760
 8515TIP3    H147036   1.191   0.717   0.873 -1.8784 -2.8824 -0.5186
 8515TIP3    H247037   1.251   0.634   0.760 -1.2550 -1.1752 -1.4819
 8516TIP3   OH247038   2.952   4.123   4.275 -0.2442 -0.2829 -0.3654
 8516TIP3    H147039   2.970   4.201   4.327 -0.1397 -1.1121  0.8984
 8516TIP3    H247040   2.950   4.051   4.339 -2.4527 -1.0348 -1.1691
 8517TIP3   OH247041   2.141   6.390   5.421  0.1877  0.3673  0.4123
 8517TIP3    H147042   2.215   6.363   5.366  0.1246 -1.5866  1.2246
 8517TIP3    H247043   2.173   6.379   5.511 -1.7923 -3.0312  0.8740
 8518TIP3   OH247044   5.489   4.557  13.927 -0.2301  0.1989  0.2837
 8518TIP3    H147045   5.505   4.575  13.834 -1.3362  1.1295  0.2647
 8518TIP3    H247046   5.575   4.566  13.968  0.2642 -0.1910 -0.6345
 8519TIP3   OH247047   3.324   2.502   3.569 -0.2350  0.5939 -0.4732
 8519TIP3    H147048   3.277   2.580   3.598 -0.7014  1.0699 -2.3731
 8519TIP3    H247049   3.276   2.429   3.607 -0.9587  1.1790 -0.2413
 8520TIP3   OH247050   5.607   6.243  16.732  0.0421 -0.1648 -0.5090
 8520TIP3    H147051   5.545   6.171  16.717  0.6303 -0.4504 -1.7506
 8520TIP3    H247052   5.567   6.295  16.801 -2.1017  0.2262 -1.9244
 8521TIP3   OH247053   4.575   6.221  13.548 -0.1256  0.5507 -0.2231
 8521TIP3    H147054   4.574   6.222  13.643 -1.2501  1.2439 -0.2262
 8521TIP3    H247055   4.484   6.205  13.523  0.2957 -0.5542 -1.1875
 8522TIP3   OH247056   6.816   0.228  15.001 -0.4773 -0.3832 -0.8674
 8522TIP3    H147057   6.786   0.282  14.927  1.0339 -0.1998 -1.3780
 8522TIP3    H247058   6.909   0.215  14.985 -0.0810 -0.2318  1.0985
 8523TIP3   OH247059   3.514   1.854  15.189  0.3890  0.0665 -0.1317
 8523TIP3    H147060   3.447   1.848  15.257 -0.4078 -0.1913 -0.9238
 8523TIP3    H247061   3.558   1.937  15.206 -0.3557  0.4001  0.1963
 8524TIP3   OH247062   6.007   4.960  15.274 -0.1104  0.1525  0.3436
 8524TIP3    H147063   6.049   5.003  15.199 -0.6576  1.1704  0.6058
 8524TIP3    H247064   5.913   4.963  15.255 -0.1418 -1.7294 -0.0356
 8525TIP3   OH247065   4.426   1.024  14.520 -0.6461 -0.2019 -0.1696
 8525TIP3    H147066   4.447   1.102  14.469  1.8240  0.1361  1.1861
 8525TIP3    H247067   4.359   1.053  14.581 -1.3604  0.2271 -1.1303
 8526TIP3   OH247068   6.075   4.126   1.163 -0.0666 -0.1305 -0.5181
 8526TIP3    H147069   6.077   4.199   1.224 -0.1313 -0.4624 -0.1132
 8526TIP3    H247070   6.102   4.163   1.079 -1.8533  0.7654 -0.7491
 8527TIP3   OH247071   6.794   3.811  14.978 -0.0813 -0.2088 -0.0828
 8527TIP3    H147072   6.853   3.804  15.053 -0.8182  0.6989  0.5955
 8527TIP3    H247073   6.727   3.744  14.993  0.2380 -0.6002 -0.3735
 8528TIP3   OH247074   2.245   4.243   0.335 -0.2563  0.3589  0.4419
 8528TIP3    H147075   2.218   4.161   0.376 -0.9333 -0.0818 -0.8375
 8528TIP3    H247076   2.247   4.307   0.407  1.6768 -1.0399  1.7459
 8529TIP3   OH247077   5.128   2.361  14.531 -0.6269  0.2405  0.0695
 8529TIP3    H147078   5.046   2.340  14.577 -2.2081  2.7416 -1.3977
 8529TIP3    H247079   5.114   2.331  14.442  1.6775 -2.8192  0.5801
 8530TIP3   OH247080   0.142   5.243  13.013 -0.1837 -0.4133  0.6163
 8530TIP3    H147081   0.232   5.225  12.987  0.1451  0.9549  0.7359
 8530TIP3    H247082   0.136   5.214  13.104 -0.1290 -1.3173  0.3403
 8531TIP3   OH247083   5.816   4.543  16.166 -0.4668  0.0726 -0.2400
 8531TIP3    H147084   5.803   4.508  16.078 -2.3510  1.2335 -0.4827
 8531TIP3    H247085   5.903   4.514  16.191  0.4237  0.3157 -2.7757
 8532TIP3   OH247086   1.638   3.871  12.721  0.5811 -0.3123  0.4054
 8532TIP3    H147087   1.698   3.935  12.682 -0.0466  0.7139  1.0711
 8532TIP3    H247088   1.577   3.850  12.650 -0.1444  1.0296  0.5950
 8533TIP3   OH247089   2.052   4.735   0.285 -0.0087  0.5046  0.2497
 8533TIP3    H147090   1.962   4.712   0.263  0.5998  0.1565 -2.1298
 8533TIP3    H247091   2.088   4.773   0.205  2.0283  0.4501  1.0710
 8534TIP3   OH247092   1.477   2.823  12.615  0.3764  0.1085  0.7959
 8534TIP3    H147093   1.446   2.752  12.671 -1.3046 -0.9525 -1.3258
 8534TIP3    H247094   1.425   2.815  12.535  2.3914  1.7742 -0.8029
 8535TIP3   OH247095   3.146   4.834  15.959  0.1773  0.3956 -0.1267
 8535TIP3    H147096   3.127   4.897  16.028  1.0545  0.1413  0.3545
 8535TIP3    H247097   3.207   4.879  15.901  1.7521 -0.3937  0.8605
 8536TIP3   OH247098   4.437   6.713   5.506  0.3545  0.0586  0.1040
 8536TIP3    H147099   4.528   6.695   5.481  0.9744  2.5719  0.2180
 8536TIP3    H247100   4.438   6.712   5.601 -0.0491 -1.1327  0.1074
 8537TIP3   OH247101   1.103   6.456  15.184 -0.3953  0.9101 -0.9200
 8537TIP3    H147102   1.162   6.529  15.164  0.9652  0.2228  0.3587
 8537TIP3    H247103   1.120   6.436  15.277 -1.1570 -0.6414 -1.0784
 8538TIP3   OH247104   4.237   2.798   6.409  0.5858 -0.3319  0.0711
 8538TIP3    H147105   4.326   2.787   6.444  0.2150 -1.9708  0.5812
 8538TIP3    H247106   4.202   2.709   6.405 -1.1040  0.3068  0.0319
 8539TIP3   OH247107   4.598   1.109  14.067  0.9066  0.3591  0.0106
 8539TIP3    H147108   4.619   1.142  14.154  2.2714 -1.8820  0.6155
 8539TIP3    H247109   4.657   1.156  14.008  2.4109 -0.5119  0.7692
 8540TIP3   OH247110   1.559   3.415   4.290  0.3768  0.1405  0.3207
 8540TIP3    H147111   1.642   3.373   4.268  1.0677  0.4769  2.1057
 8540TIP3    H247112   1.562   3.426   4.385 -1.0560  1.5365  0.2505
 8541TIP3   OH247113   4.934   5.987  14.566  0.0715 -0.3066  0.8634
 8541TIP3    H147114   5.029   5.973  14.561  0.7465  2.1527  3.9590
 8541TIP3    H247115   4.902   5.919  14.625 -0.1540 -1.0759 -0.1056
 8542TIP3   OH247116   0.762   5.139  15.574 -0.1674  0.1392  0.6933
 8542TIP3    H147117   0.796   5.122  15.486 -0.0989 -0.3989  0.8193
 8542TIP3    H247118   0.677   5.181  15.560 -0.1309  0.1041  0.3739
 8543TIP3   OH247119   0.796   6.262   0.042  0.0408 -0.1633  0.1030
 8543TIP3    H147120   0.857   6.202  -0.002  0.0237  0.2850 -0.5534
 8543TIP3    H247121   0.712   6.216   0.041  0.5129 -1.1191  1.7094
 8544TIP3   OH247122   3.728   3.347  11.477  0.1038 -0.7273 -0.0318
 8544TIP3    H147123   3.769   3.263  11.455 -0.7228 -1.6339  1.6934
 8544TIP3    H247124   3.659   3.358  11.412  0.8696 -0.8753 -0.8848
 8545TIP3   OH247125   5.674   2.886  13.522  0.2072 -0.1165  0.3356
 8545TIP3    H147126   5.651   2.839  13.602  1.3200 -1.9159 -0.3557
 8545TIP3    H247127   5.626   2.841  13.452  0.2669  0.6030 -0.1828
 8546TIP3   OH247128   5.817   4.203  11.694 -0.1082  0.3699  0.1257
 8546TIP3    H147129   5.813   4.127  11.636 -2.1110  1.0652 -0.7236
 8546TIP3    H247130   5.760   4.180  11.768  1.6534 -0.1093  1.4211
 8547TIP3   OH247131   6.380   2.683   3.733  0.8273 -0.1615 -0.5170
 8547TIP3    H147132   6.300   2.732   3.754  0.2437 -0.9437 -0.8443
 8547TIP3    H247133   6.355   2.591   3.744  1.8592 -0.3992 -0.0345
 8548TIP3   OH247134   6.764   4.083   2.728  0.2646  0.6252 -0.1030
 8548TIP3    H147135   6.860   4.088   2.730  0.2382  0.9698  2.0601
 8548TIP3    H247136   6.737   4.160   2.677  1.1200  0.3486 -1.0040
 8549TIP3   OH247137   3.413   5.185   5.135 -0.5090 -0.6676 -0.3516
 8549TIP3    H147138   3.487   5.193   5.075 -0.4152 -1.9174 -0.4178
 8549TIP3    H247139   3.365   5.108   5.105 -1.2902 -0.4571  0.2954
 8550TIP3   OH247140   2.151   4.396  14.838  0.0970  0.0728  0.5754
 8550TIP3    H147141   2.228   4.433  14.882 -0.0995  0.8808  0.2471
 8550TIP3    H247142   2.082   4.398  14.905 -0.0949  0.9295  0.3529
 8551TIP3   OH247143   5.013   1.599  16.877  0.5508 -0.0987 -0.6093
 8551TIP3    H147144   5.006   1.582  16.971 -1.9220  1.1939 -0.4768
 8551TIP3    H247145   4.967   1.525  16.836  0.5387 -0.0307 -0.7198
 8552TIP3   OH247146   1.033   4.458   2.152  1.0137  0.3623 -0.4677
 8552TIP3    H147147   1.038   4.551   2.173  3.0276  0.1158  0.3875
 8552TIP3    H247148   1.056   4.414   2.234 -0.7986 -0.9519 -0.5951
 8553TIP3   OH247149   4.169   4.662  15.922  0.0588  0.7167  0.0093
 8553TIP3    H147150   4.123   4.630  15.844  0.6302  0.0642 -0.0663
 8553TIP3    H247151   4.231   4.727  15.887  1.1425 -0.4168 -0.2508
 8554TIP3   OH247152   5.909   5.589   0.822  0.0563 -0.3281 -0.4232
 8554TIP3    H147153   5.887   5.637   0.742 -1.5575  1.3482  0.9260
 8554TIP3    H247154   5.847   5.516   0.824  0.3792 -0.6253 -0.8780
 8555TIP3   OH247155   2.766   6.713   4.867 -0.6897 -0.7568  0.1347
 8555TIP3    H147156   2.737   6.641   4.923 -1.6339 -1.1497 -0.8284
 8555TIP3    H247157   2.811   6.773   4.927  1.7744 -2.9680  0.6990
 8556TIP3   OH247158   2.423   6.575   5.353  0.4398 -0.1860 -0.4456
 8556TIP3    H147159   2.415   6.483   5.380 -0.2842 -0.2533 -0.8776
 8556TIP3    H247160   2.502   6.605   5.398 -0.2999 -0.5052  1.1609
 8557TIP3   OH247161   2.505   6.571  15.632 -0.4066 -0.3242  0.4745
 8557TIP3    H147162   2.572   6.531  15.578 -0.2554 -0.2151  0.5820
 8557TIP3    H247163   2.553   6.611  15.705 -0.6226 -0.6657  0.8108
 8558TIP3   OH247164   3.892   4.540  11.451  0.0962  0.0992  0.1908
 8558TIP3    H147165   3.841   4.459  11.461 -0.8016  0.4939 -0.9415
 8558TIP3    H247166   3.978   4.518  11.484  0.4931 -1.9948 -1.9400
 8559TIP3   OH247167   0.786   4.055  16.510 -0.2101  0.1573  0.4563
 8559TIP3    H147168   0.850   4.012  16.454 -0.9287 -0.2966 -0.0356
 8559TIP3    H247169   0.742   4.117  16.452 -0.1299  0.5569  0.8197
 8560TIP3   OH247170   1.560   1.923   4.946  0.2688  0.6111  0.1921
 8560TIP3    H147171   1.560   2.011   4.983  0.8434  0.7176 -0.0636
 8560TIP3    H247172   1.549   1.865   5.022  1.5804  0.8224  0.5520
 8561TIP3   OH247173   2.533   4.468   1.636 -0.2162  0.2988 -0.2963
 8561TIP3    H147174   2.516   4.401   1.703 -0.8282  0.6885 -0.0569
 8561TIP3    H247175   2.576   4.539   1.684 -0.2970  0.4164 -0.3991
 8562TIP3   OH247176   2.090   2.300  16.561  0.0994  0.8576 -0.3084
 8562TIP3    H147177   2.145   2.259  16.628  0.4891  0.0945 -1.0698
 8562TIP3    H247178   2.038   2.365  16.608  1.0771  1.0310  0.5697
 8563TIP3   OH247179   4.762   1.224  13.864  0.5343 -0.0250 -0.3867
 8563TIP3    H147180   4.709   1.267  13.797  2.1610 -1.3949 -2.6495
 8563TIP3    H247181   4.765   1.132  13.838  1.6404 -0.5106  1.2873
 8564TIP3   OH247182   1.590   5.272  13.792  0.9513 -0.5520  0.1340
 8564TIP3    H147183   1.626   5.299  13.877  1.9950  0.7300 -0.6692
 8564TIP3    H247184   1.569   5.355  13.748  2.0139 -1.1216 -1.5225
 8565TIP3   OH247185   3.465   4.392   0.500  0.3993 -0.5553 -0.2513
 8565TIP3    H147186   3.437   4.470   0.454  0.5958 -0.8347 -0.8600
 8565TIP3    H247187   3.523   4.424   0.570 -0.8241 -0.0425  0.5559
 8566TIP3   OH247188   0.332   5.925   1.734 -0.6187  0.3048  0.1462
 8566TIP3    H147189   0.395   5.983   1.777  2.4040 -2.4187 -0.3005
 8566TIP3    H247190   0.309   5.970   1.653 -0.2599  1.9164  0.8926
 8567TIP3   OH247191   1.089   6.149  16.234  0.0546  0.1313 -0.1360
 8567TIP3    H147192   1.176   6.131  16.201 -0.2060 -0.4113 -0.5371
 8567TIP3    H247193   1.079   6.092  16.310 -0.1787 -0.2718 -0.4636
 8568TIP3   OH247194   2.107   4.056   6.084 -0.0299 -0.1346  0.1872
 8568TIP3    H147195   2.043   4.121   6.054 -0.3783 -0.7231 -0.3745
 8568TIP3    H247196   2.164   4.104   6.143  1.7545  1.5536 -2.6689
 8569TIP3   OH247197   4.176   3.877  16.413 -0.2292 -0.0533 -0.2183
 8569TIP3    H147198   4.172   3.812  16.483 -0.8531 -0.9384 -1.0553
 8569TIP3    H247199   4.242   3.842  16.353  1.6201  1.5676  0.7337
 8570TIP3   OH247200   3.515   6.266  16.135  0.1213 -0.2076 -0.0340
 8570TIP3    H147201   3.603   6.303  16.144  0.0968 -0.5363  2.0873
 8570TIP3    H247202   3.479   6.309  16.057  1.5391  1.1952  0.0293
 8571TIP3   OH247203   4.391   2.210   6.198 -0.1625  0.2921 -0.2193
 8571TIP3    H147204   4.304   2.181   6.170  0.7935 -2.1597 -0.8930
 8571TIP3    H247205   4.392   2.192   6.292 -0.4215  0.4037 -0.1943
 8572TIP3   OH247206   2.761   1.298  14.665 -0.1444 -0.4062  0.3700
 8572TIP3    H147207   2.773   1.220  14.611 -0.6575  0.1097 -0.5029
 8572TIP3    H247208   2.761   1.371  14.603  0.8643  0.3481  1.2239
 8573TIP3   OH247209   0.980   1.140  13.850  0.3379 -0.4975 -0.1990
 8573TIP3    H147210   0.932   1.203  13.796  0.6601 -0.5998 -0.6141
 8573TIP3    H247211   1.010   1.191  13.925  0.3110 -0.2342 -0.3652
 8574TIP3   OH247212   6.812   4.425  15.781 -0.4534 -0.4129  0.7659
 8574TIP3    H147213   6.733   4.384  15.744  0.6512 -0.7086 -1.3763
 8574TIP3    H247214   6.836   4.492  15.718  2.4152 -1.9718  0.0674
 8575TIP3   OH247215   2.789   0.852  12.923  0.7241 -0.5397  0.1362
 8575TIP3    H147216   2.804   0.929  12.868 -0.0325 -0.0397  0.5974
 8575TIP3    H247217   2.858   0.790  12.899  0.7245 -0.1168 -0.9739
 8576TIP3   OH247218   4.061   4.218  10.710  0.0557 -0.3550  0.4876
 8576TIP3    H147219   4.096   4.304  10.686  2.0250 -0.4655  2.5844
 8576TIP3    H247220   4.131   4.177  10.761 -2.1395 -1.7720  2.5778
 8577TIP3   OH247221   2.032   0.398  17.119  0.9231 -0.2884 -0.1574
 8577TIP3    H147222   1.971   0.396  17.193 -0.8436  2.3229 -1.3747
 8577TIP3    H247223   1.984   0.357  17.047  1.6127 -0.4635 -0.5270
 8578TIP3   OH247224   2.030   2.433  14.602 -0.0338  0.0840 -0.1745
 8578TIP3    H147225   2.075   2.360  14.643  0.5151  0.8396  0.6159
 8578TIP3    H247226   2.099   2.496  14.580 -0.4884  0.3697 -0.8403
 8579TIP3   OH247227   3.601   2.704   2.911  0.3703 -0.2966 -0.1731
 8579TIP3    H147228   3.527   2.676   2.966 -0.6783 -0.1187 -1.4279
 8579TIP3    H247229   3.590   2.798   2.902 -0.3557 -0.4893 -1.8298
 8580TIP3   OH247230   6.046   1.708  11.438  0.1524  0.2309  0.0516
 8580TIP3    H147231   6.058   1.778  11.504 -1.0677 -1.1329  1.8122
 8580TIP3    H247232   6.049   1.627  11.489 -2.0172 -0.8424 -1.3952
 8581TIP3   OH247233   6.116   4.664  16.611  0.1320  0.8812  0.3799
 8581TIP3    H147234   6.093   4.747  16.569 -0.3565  0.5866  0.0660
 8581TIP3    H247235   6.044   4.645  16.671 -0.7791 -0.3413 -1.0441
 8582TIP3   OH247236   3.611   2.102  15.765  0.1713 -0.0268  0.1744
 8582TIP3    H147237   3.555   2.109  15.687  0.3314  1.0824  0.1437
 8582TIP3    H247238   3.658   2.185  15.768  1.0644 -0.5401  0.7854
 8583TIP3   OH247239   2.670   2.274  15.835  0.4581  0.8102  0.0984
 8583TIP3    H147240   2.715   2.263  15.751 -0.5900 -0.8354 -0.2801
 8583TIP3    H247241   2.738   2.309  15.894  1.9815 -0.6525 -0.7144
 8584TIP3   OH247242   0.944   2.924   1.412  0.1680  0.0520 -0.0225
 8584TIP3    H147243   1.027   2.970   1.396  0.1724  0.2579  0.5806
 8584TIP3    H247244   0.877   2.987   1.385  0.2013 -0.1316 -0.5541
 8585TIP3   OH247245   2.274   1.377  14.508  0.2569 -0.1465  0.3777
 8585TIP3    H147246   2.229   1.307  14.555  0.3388  0.0422  0.7450
 8585TIP3    H247247   2.335   1.414  14.573  0.4141  0.0787  0.1049
 8586TIP3   OH247248   3.508   2.282   3.242 -0.6936  0.4271 -0.0435
 8586TIP3    H147249   3.533   2.315   3.328 -0.7811 -0.7286  0.4373
 8586TIP3    H247250   3.586   2.295   3.188  0.0318 -0.5841  0.7164
 8587TIP3   OH247251   6.522   6.414  13.178  0.0645 -0.3284  0.3894
 8587TIP3    H147252   6.524   6.319  13.168  0.4756 -0.1780 -1.2942
 8587TIP3    H247253   6.611   6.442  13.157 -0.2269  0.4752  0.2027
 8588TIP3   OH247254   6.773   3.299   3.923 -0.4216 -0.5247  0.1788
 8588TIP3    H147255   6.684   3.319   3.949  0.0053  0.3169  1.0622
 8588TIP3    H247256   6.767   3.275   3.831 -1.6558 -1.2444  0.4389
 8589TIP3   OH247257   2.022   0.070  17.250  0.6078 -0.1854  0.0799
 8589TIP3    H147258   2.024   0.036  17.161 -0.2054 -0.1770  0.0511
 8589TIP3    H247259   2.112   0.098  17.267  0.6172  0.5205 -1.0175
 8590TIP3   OH247260   5.725   6.076  10.568  0.5155 -0.4059 -0.0122
 8590TIP3    H147261   5.735   5.983  10.546  0.5164 -0.1488 -1.1709
 8590TIP3    H247262   5.814   6.107  10.582  0.6291 -0.3002 -0.8941
 8591TIP3   OH247263   0.658   2.797   0.210  0.0022  0.4075 -0.4539
 8591TIP3    H147264   0.645   2.765   0.299  1.7247  1.5290  0.2663
 8591TIP3    H247265   0.577   2.842   0.188  0.5239  2.5492  1.6786
 8592TIP3   OH247266   0.727   2.171   4.737 -0.2614  0.4535  0.5687
 8592TIP3    H147267   0.633   2.164   4.721 -0.4700  2.2696  0.7574
 8592TIP3    H247268   0.753   2.252   4.693  1.0440  0.4200  1.2310
 8593TIP3   OH247269   5.997   3.643   3.486  0.0047 -0.0698  0.2734
 8593TIP3    H147270   5.925   3.580   3.491  0.1489 -0.3181 -0.6159
 8593TIP3    H247271   5.990   3.694   3.567  0.1525 -1.5039  1.2248
 8594TIP3   OH247272   3.904   5.767  10.771 -0.3363 -0.3602  0.6675
 8594TIP3    H147273   3.923   5.740  10.861 -1.2850 -2.7763  0.2171
 8594TIP3    H247274   3.921   5.689  10.719 -0.7991  0.6927 -1.1403
 8595TIP3   OH247275   0.577   0.982   3.478 -0.5273 -0.0243 -0.1224
 8595TIP3    H147276   0.506   1.045   3.484 -1.0795 -0.7626  1.4550
 8595TIP3    H247277   0.651   1.024   3.522 -0.0766  0.5633 -1.3815
 8596TIP3   OH247278   4.390   1.001   5.110  0.2835  0.1135 -0.0158
 8596TIP3    H147279   4.431   1.036   5.189  0.2686 -1.8162  0.9072
 8596TIP3    H247280   4.319   1.062   5.090  1.1841  1.3976  0.6103
 8597TIP3   OH247281   5.915   5.491   2.250 -0.4795 -0.6867 -0.3658
 8597TIP3    H147282   5.888   5.577   2.216 -0.1413 -1.0612 -1.6338
 8597TIP3    H247283   6.007   5.483   2.224 -0.3552 -1.2131  0.2169
 8598TIP3   OH247284   0.771   1.864   4.432 -0.3853  0.0017 -0.4600
 8598TIP3    H147285   0.851   1.861   4.380 -0.9386  2.5201 -1.6358
 8598TIP3    H247286   0.745   1.773   4.443  2.7375 -0.9302  0.1857
 8599TIP3   OH247287   0.814   1.190   3.592 -0.6763 -0.1982  0.2813
 8599TIP3    H147288   0.775   1.275   3.575 -0.8305 -0.5492 -1.2587
 8599TIP3    H247289   0.907   1.208   3.608 -0.9737  0.3848  1.3820
 8600TIP3   OH247290   6.404   2.545   1.580  0.1291 -0.1838  0.4402
 8600TIP3    H147291   6.333   2.588   1.628  0.1097  0.8309 -0.4632
 8600TIP3    H247292   6.359   2.493   1.513  0.1804 -1.1070  1.1023
 8601TIP3   OH247293   0.956   4.619   0.889  0.0919  0.1537 -0.0058
 8601TIP3    H147294   0.868   4.620   0.926  1.0050 -1.4410  2.5536
 8601TIP3    H247295   0.954   4.550   0.823 -0.2269 -1.1177  1.2700
 8602TIP3   OH247296   2.916   6.343   1.950 -0.1620  0.0842 -0.0467
 8602TIP3    H147297   2.874   6.271   1.904 -1.9260 -0.5852  2.3928
 8602TIP3    H247298   2.991   6.303   1.994  1.7516  0.7946 -2.4314
 8603TIP3   OH247299   3.323   1.177  14.418 -1.3546 -0.7000 -0.6498
 8603TIP3    H147300   3.281   1.227  14.348 -0.7200  0.2364 -0.3834
 8603TIP3    H247301   3.412   1.160  14.386 -0.7478  0.5594  0.2930
 8604TIP3   OH247302   3.873   6.657   4.826 -0.0883  0.0982 -0.9737
 8604TIP3    H147303   3.805   6.639   4.760  0.1982  0.9465 -1.5157
 8604TIP3    H247304   3.862   6.749   4.847 -0.3232 -0.2150  0.3645
 8605TIP3   OH247305   2.538   0.952  13.909  0.4207 -0.2709 -0.0047
 8605TIP3    H147306   2.501   0.894  13.843  1.7313 -2.9227  1.4496
 8605TIP3    H247307   2.471   1.020  13.921 -2.2947 -2.7276 -0.1790
 8606TIP3   OH247308   2.115   6.420  12.396  0.1268 -0.0388  0.6323
 8606TIP3    H147309   2.106   6.516  12.399 -0.9041 -0.1554  1.7683
 8606TIP3    H247310   2.035   6.387  12.436 -0.0769 -1.4242 -0.8183
 8607TIP3   OH247311   3.477   4.427  16.578 -0.3362 -0.1577  0.0158
 8607TIP3    H147312   3.474   4.496  16.512  0.8997 -0.9836 -0.9485
 8607TIP3    H247313   3.562   4.439  16.621 -0.5706 -0.4369  0.5635
 8608TIP3   OH247314   0.475   5.066  14.758  0.1721  0.0805  0.3776
 8608TIP3    H147315   0.385   5.096  14.767  0.6662  1.0858  2.6063
 8608TIP3    H247316   0.521   5.139  14.717 -0.1341 -0.7283 -1.4878
 8609TIP3   OH247317   4.793   3.628  12.677  0.4254 -0.5851 -0.1367
 8609TIP3    H147318   4.866   3.691  12.679 -0.9094  1.0111  0.8971
 8609TIP3    H247319   4.787   3.595  12.767  1.3767 -2.6040 -0.7499
 8610TIP3   OH247320   1.949   4.389   5.383 -0.1475  0.9435  0.2603
 8610TIP3    H147321   1.918   4.339   5.458 -2.0199  1.6374  0.0048
 8610TIP3    H247322   2.008   4.454   5.420  0.5989 -0.0402  0.8498
 8611TIP3   OH247323   0.024   4.895  13.852  1.0840 -0.3411  0.2519
 8611TIP3    H147324  -0.028   4.815  13.856 -1.2979  1.1568  1.5155
 8611TIP3    H247325  -0.021   4.949  13.787  2.6753  0.0006 -0.6147
 8612TIP3   OH247326   4.223   4.613   0.682  0.1753  0.8842  0.6411
 8612TIP3    H147327   4.201   4.598   0.590  0.1152  0.1415  0.7723
 8612TIP3    H247328   4.319   4.607   0.685  0.1339  0.1913  0.7444
 8613TIP3   OH247329   0.631   0.895   1.073 -0.1204  0.1408 -0.8278
 8613TIP3    H147330   0.683   0.941   1.007 -0.5779 -0.7296 -1.8292
 8613TIP3    H247331   0.695   0.847   1.126  0.1197 -1.3487 -2.3782
 8614TIP3   OH247332   3.807   1.180   5.699 -0.9140  0.3559 -0.5666
 8614TIP3    H147333   3.740   1.123   5.662  0.5924 -1.9036 -0.0291
 8614TIP3    H247334   3.774   1.204   5.785 -0.2067 -2.6333  0.6866
 8615TIP3   OH247335   1.336   5.890   3.416  0.5368 -0.1927  0.1605
 8615TIP3    H147336   1.314   5.975   3.377  0.2524 -0.0986  0.5234
 8615TIP3    H247337   1.329   5.828   3.344  0.9903  0.1260 -0.1677
 8616TIP3   OH247338   3.662   2.816   2.302 -1.1167  0.2476  0.3059
 8616TIP3    H147339   3.715   2.890   2.334 -0.6581 -0.6886  1.8267
 8616TIP3    H247340   3.642   2.765   2.381 -2.1025 -0.8259 -0.6036
 8617TIP3   OH247341   0.865   6.083   5.735  0.2833 -0.5691 -0.3539
 8617TIP3    H147342   0.820   6.163   5.707 -0.8075 -1.4055 -1.0591
 8617TIP3    H247343   0.847   6.019   5.666 -0.2713 -1.9094  0.9707
 8618TIP3   OH247344   3.621   0.681   0.568  0.3986  0.1719 -0.2358
 8618TIP3    H147345   3.623   0.776   0.572 -0.7613  0.1859  0.4083
 8618TIP3    H247346   3.603   0.661   0.476  2.5674  0.4935 -0.7907
 8619TIP3   OH247347   2.678   1.249  12.275 -0.9661  0.2305  0.0227
 8619TIP3    H147348   2.725   1.283  12.198  0.5516 -0.0933  0.7838
 8619TIP3    H247349   2.705   1.157  12.281 -1.1489  0.2291  0.8866
 8620TIP3   OH247350   3.316   5.386  15.596  0.1695  0.1642 -0.5387
 8620TIP3    H147351   3.271   5.446  15.655 -0.8755 -1.4284  0.3732
 8620TIP3    H247352   3.292   5.416  15.508  0.3514  1.5473 -0.1422
 8621TIP3   OH247353   1.571   4.978   3.177  0.0222  0.0359 -0.3435
 8621TIP3    H147354   1.594   4.996   3.268  0.4697  0.9577 -0.6363
 8621TIP3    H247355   1.633   4.910   3.150 -0.7571 -0.9860  0.3230
 8622TIP3   OH247356   2.827   6.515   6.676  0.1873 -0.2872  0.3289
 8622TIP3    H147357   2.916   6.500   6.709  0.8248  1.1413 -0.6668
 8622TIP3    H247358   2.791   6.427   6.663  3.2694 -1.2265 -4.0196
 8623TIP3   OH247359   2.460   4.946  14.575  0.0449  0.7084  0.2372
 8623TIP3    H147360   2.554   4.960  14.583  0.0488  1.3919 -0.8848
 8623TIP3    H247361   2.426   5.027  14.538 -0.5338 -0.5885 -2.3470
 8624TIP3   OH247362   2.233   6.541  15.246  0.1297  0.3975  0.3756
 8624TIP3    H147363   2.219   6.628  15.208 -1.2779  0.0837  0.1090
 8624TIP3    H247364   2.220   6.555  15.340  1.3836  0.7413  0.5145
 8625TIP3   OH247365   0.282   0.103  15.153 -1.0193  0.2320  0.0263
 8625TIP3    H147366   0.280   0.039  15.224  0.2061  0.8024  0.6242
 8625TIP3    H247367   0.259   0.186  15.195  1.0448  0.8292  0.1223
 8626TIP3   OH247368   1.018   4.022   4.560  0.5591 -0.1936 -0.3552
 8626TIP3    H147369   1.007   4.117   4.569  0.8406 -0.2747  1.0291
 8626TIP3    H247370   0.954   3.997   4.493 -1.8295  0.5367  1.5104
 8627TIP3   OH247371   5.627   6.679  16.071 -0.1377 -0.3625  0.0815
 8627TIP3    H147372   5.683   6.711  16.141  0.5486 -1.4163  0.0360
 8627TIP3    H247373   5.614   6.754  16.013  1.4272 -0.1557 -0.0208
 8628TIP3   OH247374   4.031   4.405  13.599  0.3179 -0.1235  0.0614
 8628TIP3    H147375   4.120   4.413  13.635  0.7376 -1.9415 -0.4995
 8628TIP3    H247376   3.974   4.419  13.675  1.0818  0.5462  0.5349
 8629TIP3   OH247377   0.070   2.494   4.551  0.0439  0.4770  0.1919
 8629TIP3    H147378   0.094   2.453   4.634  0.9564 -0.1970 -0.3890
 8629TIP3    H247379   0.138   2.558   4.534  0.6974 -0.4167 -0.7400
 8630TIP3   OH247380   4.829   2.472  10.552 -0.4599  0.4526  0.2273
 8630TIP3    H147381   4.821   2.433  10.638  2.4938 -0.3933  0.2181
 8630TIP3    H247382   4.917   2.510  10.550  0.9716 -2.4075 -3.4325
 8631TIP3   OH247383   6.201   6.556  11.319 -0.4357 -0.1856  0.1852
 8631TIP3    H147384   6.126   6.521  11.270 -0.6387 -1.3205  1.2454
 8631TIP3    H247385   6.163   6.598  11.396 -0.1331  1.7687 -0.6936
 8632TIP3   OH247386   3.855   4.379   1.223  0.0297 -0.3057 -0.1330
 8632TIP3    H147387   3.838   4.412   1.311  2.1802 -0.1596  0.2768
 8632TIP3    H247388   3.873   4.456   1.171  0.8403 -0.5227 -0.1860
 8633TIP3   OH247389   0.616   4.810  14.756 -0.5675 -0.3639 -0.1470
 8633TIP3    H147390   0.527   4.789  14.786 -0.9418 -0.9555 -1.5940
 8633TIP3    H247391   0.603   4.868  14.682  0.3315  0.7758  0.5639
 8634TIP3   OH247392   2.293   1.775  14.757  0.0780 -0.1150 -0.1588
 8634TIP3    H147393   2.248   1.710  14.811  0.6696  0.6832  1.3217
 8634TIP3    H247394   2.254   1.859  14.782 -0.1459  0.2149 -1.5047
 8635TIP3   OH247395   4.618   5.315  14.126  0.2246 -0.0768  0.2912
 8635TIP3    H147396   4.678   5.273  14.188 -0.8429 -1.1350  0.6417
 8635TIP3    H247397   4.538   5.329  14.177  0.2298  1.5327 -0.1002
 8636TIP3   OH247398   6.475   4.858   2.059  0.2038 -0.2848  0.4206
 8636TIP3    H147399   6.513   4.787   2.110 -3.4769 -2.3791  0.5897
 8636TIP3    H247400   6.481   4.829   1.968  2.2348  1.1296  0.0425
 8637TIP3   OH247401   3.282   2.933   6.881  0.4926 -0.0688 -0.1930
 8637TIP3    H147402   3.261   2.855   6.932  0.0032  0.5749  0.6239
 8637TIP3    H247403   3.204   2.988   6.888  0.3328 -0.0404 -1.8253
 8638TIP3   OH247404   4.349   2.149   1.742  0.1736 -0.3789 -0.5174
 8638TIP3    H147405   4.394   2.087   1.684  0.9199  0.4787 -0.8942
 8638TIP3    H247406   4.416   2.214   1.762 -0.2316 -0.3790  0.9015
 8639TIP3   OH247407   5.424   2.125   2.520  0.5046 -0.4221 -0.2846
 8639TIP3    H147408   5.425   2.203   2.465 -0.7221 -1.3929 -1.7718
 8639TIP3    H247409   5.515   2.111   2.544  0.9353  0.6203 -1.2185
 8640TIP3   OH247410   4.810   0.669  10.686 -1.0047 -0.3172 -0.0085
 8640TIP3    H147411   4.864   0.617  10.626 -0.1955  1.2657 -0.7073
 8640TIP3    H247412   4.854   0.661  10.771  0.0616  0.5403 -0.4657
 8641TIP3   OH247413   2.757   1.503   1.199  0.2144 -0.0075  0.6279
 8641TIP3    H147414   2.682   1.554   1.169  1.5670  2.1251  0.7118
 8641TIP3    H247415   2.802   1.476   1.118  1.0894  1.4530  0.6030
 8642TIP3   OH247416   1.828   2.232   3.100  0.4647  0.0502 -0.0939
 8642TIP3    H147417   1.774   2.305   3.129  0.5890 -0.4363  1.4698
 8642TIP3    H247418   1.811   2.162   3.163  1.3389 -0.8291 -0.7847
 8643TIP3   OH247419   5.334   5.944  16.088 -0.2852  0.1392 -0.3879
 8643TIP3    H147420   5.420   5.905  16.105 -0.0100  0.4220 -1.1132
 8643TIP3    H247421   5.274   5.869  16.084  0.1959 -0.2094 -1.5065
 8644TIP3   OH247422   1.385   4.021  15.804 -0.6867 -0.3541  0.4115
 8644TIP3    H147423   1.362   3.937  15.843  0.1736 -1.2491 -0.9224
 8644TIP3    H247424   1.305   4.073  15.808 -1.4085 -1.4656  0.6596
 8645TIP3   OH247425   2.441   6.269  16.708 -0.0267 -0.1700 -0.1163
 8645TIP3    H147426   2.441   6.363  16.689  0.8567  0.2133  1.4980
 8645TIP3    H247427   2.417   6.227  16.626  0.3856  1.4342 -1.0981
 8646TIP3   OH247428   2.424   0.597   0.666 -0.1796 -0.6778  0.3112
 8646TIP3    H147429   2.397   0.564   0.752  0.2298 -1.3564  0.1874
 8646TIP3    H247430   2.436   0.518   0.613  0.1222 -0.2892 -0.2080
 8647TIP3   OH247431   3.597   0.912   1.729 -0.0546  0.2628  0.1680
 8647TIP3    H147432   3.607   0.991   1.675  1.0853  0.1842  0.2231
 8647TIP3    H247433   3.592   0.841   1.665  1.0277  0.1961  0.1293
 8648TIP3   OH247434   2.621   2.160   4.514  0.1517 -0.8142  0.3130
 8648TIP3    H147435   2.651   2.214   4.442 -0.1518  0.4002  1.0697
 8648TIP3    H247436   2.560   2.098   4.475 -0.1278 -0.0713 -0.4371
 8649TIP3   OH247437   1.328   1.275  10.670 -0.1541  0.0772  0.2484
 8649TIP3    H147438   1.400   1.298  10.729  0.2712  0.0381 -0.2472
 8649TIP3    H247439   1.340   1.332  10.594 -0.2175 -0.4472 -0.1581
 8650TIP3   OH247440   5.656   5.944   1.347  0.2276 -0.4374 -0.1366
 8650TIP3    H147441   5.673   5.925   1.439  1.0124  1.1163  0.0802
 8650TIP3    H247442   5.564   5.970   1.344  0.3557  0.0717  0.3093
 8651TIP3   OH247443   4.893   5.156  11.380 -0.1514  0.0416 -0.2716
 8651TIP3    H147444   4.938   5.171  11.463 -2.8277 -1.1644  1.5662
 8651TIP3    H247445   4.916   5.066  11.357 -0.9765 -0.3463  0.3265
 8652TIP3   OH247446   5.121   6.512  12.959 -0.3710  0.3685  0.0195
 8652TIP3    H147447   5.193   6.567  12.929  2.1484 -2.0306  1.3018
 8652TIP3    H247448   5.077   6.566  13.025 -1.5937  2.9045 -2.6488
 8653TIP3   OH247449   2.250   6.342  14.807  0.4233  0.6917  0.2936
 8653TIP3    H147450   2.240   6.342  14.902  1.0872 -3.8900  0.5870
 8653TIP3    H247451   2.342   6.321  14.792  0.3092  1.1962 -1.4176
 8654TIP3   OH247452   1.046   3.279  15.589  0.0993 -0.0387 -0.1269
 8654TIP3    H147453   1.067   3.366  15.624  1.5953 -0.7645  0.8789
 8654TIP3    H247454   1.122   3.255  15.536 -0.3583 -0.6950 -0.5045
 8655TIP3   OH247455   5.644   1.454   1.059  0.0122  0.1284  0.4575
 8655TIP3    H147456   5.664   1.545   1.035  1.8810 -0.4488 -0.3951
 8655TIP3    H247457   5.662   1.449   1.152 -0.5971  0.7463  0.6159
 8656TIP3   OH247458   3.848   1.438  13.005  0.3098  0.0696  0.1949
 8656TIP3    H147459   3.926   1.420  13.058  0.9791  0.4494 -0.6454
 8656TIP3    H247460   3.832   1.356  12.959  0.7628  0.2701 -0.3260
 8657TIP3   OH247461   6.034   6.007   2.253  0.1839 -0.1432  0.5143
 8657TIP3    H147462   6.036   6.017   2.348 -0.6452 -1.7488  0.7322
 8657TIP3    H247463   6.116   6.047   2.223  0.5012  0.3041  1.9034
 8658TIP3   OH247464   4.002   2.841  11.853 -0.1473 -0.2402 -0.3564
 8658TIP3    H147465   3.926   2.787  11.873  2.2039 -3.5787  0.4847
 8658TIP3    H247466   4.031   2.875  11.938  0.2427 -0.3890 -0.4261
 8659TIP3   OH247467   5.539   2.392   1.320  0.1039 -0.5049  0.0570
 8659TIP3    H147468   5.520   2.310   1.274  0.5566 -0.8341  0.4432
 8659TIP3    H247469   5.530   2.460   1.253 -1.0707 -0.7759 -0.0850
 8660TIP3   OH247470   4.553   5.546   5.452  0.3838 -0.9013 -0.2634
 8660TIP3    H147471   4.531   5.533   5.360 -1.4313 -1.5218  0.2216
 8660TIP3    H247472   4.642   5.581   5.451 -0.8593  2.7013 -2.4644
 8661TIP3   OH247473   5.355   4.176  14.526 -0.2573  0.1135  0.3152
 8661TIP3    H147474   5.347   4.147  14.435 -1.3157  2.7559 -0.5457
 8661TIP3    H247475   5.300   4.116  14.575 -0.4366 -0.7914 -0.9417
 8662TIP3   OH247476   2.941   4.302  13.562  0.9455  0.1256 -0.5043
 8662TIP3    H147477   2.871   4.263  13.510  1.0988  1.0071 -1.4110
 8662TIP3    H247478   2.928   4.267  13.650 -0.5652  0.1829 -0.6718
 8663TIP3   OH247479   5.936   0.427   2.154  0.1457 -0.1236  0.2037
 8663TIP3    H147480   5.955   0.402   2.244  0.0904  0.9779  0.5273
 8663TIP3    H247481   6.018   0.410   2.107  0.0409 -1.1163  0.3586
 8664TIP3   OH247482   3.420   1.516  13.582 -0.1019  0.3655 -0.3526
 8664TIP3    H147483   3.471   1.526  13.502  0.4211  1.5962  0.1138
 8664TIP3    H247484   3.478   1.469  13.642 -0.4559 -0.4624 -0.6338
 8665TIP3   OH247485   2.748   6.696  12.013  0.5876 -0.0124 -0.5894
 8665TIP3    H147486   2.814   6.739  11.958  0.7255  1.4702  0.6558
 8665TIP3    H247487   2.753   6.743  12.096 -2.7321  0.9071 -0.7637
 8666TIP3   OH247488   1.116   6.760  17.123 -0.1961 -0.6769  0.1685
 8666TIP3    H147489   1.147   6.670  17.137 -1.2779 -1.3539 -1.4043
 8666TIP3    H247490   1.078   6.758  17.035 -1.1510  1.0807  0.5002
 8667TIP3   OH247491   0.442   0.703  15.732  0.0968 -0.0774 -0.1257
 8667TIP3    H147492   0.520   0.752  15.757 -0.7016  0.1547  2.1749
 8667TIP3    H247493   0.372   0.769  15.731 -0.3024 -0.4985 -0.9332
 8668TIP3   OH247494   1.958   4.421  15.055  0.2271  0.2355  0.4326
 8668TIP3    H147495   1.876   4.438  15.100  0.5195  3.9095 -0.1107
 8668TIP3    H247496   2.023   4.474  15.101  1.8317 -0.7474 -0.5750
 8669TIP3   OH247497   6.798   5.436  15.256  0.2371 -0.1263  0.3575
 8669TIP3    H147498   6.854   5.418  15.180 -0.1962 -3.5478  0.6986
 8669TIP3    H247499   6.716   5.467  15.218  0.6878  0.1192 -0.4456
 8670TIP3   OH247500   5.808   4.028   4.915 -0.5089  0.3436 -1.0172
 8670TIP3    H147501   5.760   4.040   4.997  0.3894  0.1175 -0.4418
 8670TIP3    H247502   5.872   4.099   4.915 -1.9480  1.7359 -2.6350
 8671TIP3   OH247503   2.688   5.447   4.757 -0.3792  0.1170 -0.3311
 8671TIP3    H147504   2.719   5.500   4.684 -0.5239  1.5625  0.6008
 8671TIP3    H247505   2.695   5.505   4.833 -1.2811 -0.9635  0.6168
 8672TIP3   OH247506   2.665   2.513  13.185 -0.0834 -0.1845  0.0795
 8672TIP3    H147507   2.651   2.601  13.218  0.6053 -1.2496  3.6882
 8672TIP3    H247508   2.585   2.466  13.208 -0.0110 -0.7645 -0.8051
 8673TIP3   OH247509   4.802   4.848  15.546  0.0173 -0.0342 -0.5901
 8673TIP3    H147510   4.778   4.882  15.632  0.2775  1.0215 -0.9175
 8673TIP3    H247511   4.782   4.755  15.550 -2.3867  0.4472 -0.2346
 8674TIP3   OH247512   5.071   3.581  14.022  0.1319 -0.1010 -0.6091
 8674TIP3    H147513   5.017   3.620  13.953 -0.1749 -0.5421 -0.6264
 8674TIP3    H247514   5.110   3.504  13.981 -1.0084 -1.0608  0.0317
 8675TIP3   OH247515   5.571   0.378  13.323 -0.0258  0.2343 -0.3146
 8675TIP3    H147516   5.479   0.361  13.304  0.5785 -2.6018 -1.1071
 8675TIP3    H247517   5.592   0.457  13.273 -2.1661  1.3889  0.4871
 8676TIP3   OH247518   1.651   4.716  15.545 -0.1734  0.6174 -0.2553
 8676TIP3    H147519   1.621   4.771  15.472  0.0566  0.0800 -0.7616
 8676TIP3    H247520   1.712   4.772  15.593  1.9256  0.0870 -2.1165
 8677TIP3   OH247521   5.451   2.554  12.063 -0.0281 -0.3464 -0.0519
 8677TIP3    H147522   5.384   2.502  12.107 -0.3921 -1.0169 -1.3676
 8677TIP3    H247523   5.406   2.634  12.037 -0.3993 -0.9028 -1.1567
 8678TIP3   OH247524   3.215   4.063  12.359  0.6106  0.4675  0.7332
 8678TIP3    H147525   3.192   4.020  12.441  0.4539 -0.1862  0.3557
 8678TIP3    H247526   3.168   4.147  12.361  0.6449  0.4716  1.3253
 8679TIP3   OH247527   5.411   2.857  11.562 -0.4965 -0.0453 -0.5592
 8679TIP3    H147528   5.466   2.901  11.497  0.2179 -0.7696 -0.4705
 8679TIP3    H247529   5.321   2.881  11.538 -0.2350 -0.1173 -1.6749
 8680TIP3   OH247530   4.623   0.729   1.696 -0.0661 -0.4612 -0.4859
 8680TIP3    H147531   4.575   0.812   1.697  0.4010 -0.1905  0.6220
 8680TIP3    H247532   4.649   0.717   1.604 -0.0612  0.6543 -0.6414
 8681TIP3   OH247533   6.587   6.404  14.198  0.5711  0.2673  0.2032
 8681TIP3    H147534   6.660   6.431  14.252  0.4443 -0.2602  0.6514
 8681TIP3    H247535   6.510   6.439  14.243  0.5322  0.6355 -0.1483
 8682TIP3   OH247536   5.281   1.227  12.597 -0.6659  0.2404 -0.7202
 8682TIP3    H147537   5.342   1.229  12.523 -1.8499 -1.2784 -1.8082
 8682TIP3    H247538   5.335   1.204  12.673  0.0873 -1.3962 -1.7113
 8683TIP3   OH247539   5.610   5.790  14.619  0.2340 -0.0196 -0.1558
 8683TIP3    H147540   5.530   5.795  14.670  1.0285 -1.2636  1.2799
 8683TIP3    H247541   5.609   5.702  14.581  1.0609 -0.1674  0.1445
 8684TIP3   OH247542   5.133   0.511  17.214 -0.0312 -0.4971 -0.3697
 8684TIP3    H147543   5.169   0.473  17.294  0.8236  0.9450 -0.0231
 8684TIP3    H247544   5.045   0.474  17.207  0.2468 -1.4040  0.6947
 8685TIP3   OH247545   5.456   1.045  12.381 -0.3903  0.0027 -0.5306
 8685TIP3    H147546   5.501   1.126  12.407 -1.0921  0.3682 -0.4170
 8685TIP3    H247547   5.422   1.010  12.463  3.6416 -2.8440  0.2064
 8686TIP3   OH247548   6.595   0.256   0.248  0.1736 -0.9036  0.1834
 8686TIP3    H147549   6.532   0.296   0.309  0.4914  0.8041 -0.5706
 8686TIP3    H247550   6.675   0.247   0.300 -0.1628 -1.4782  0.6286
 8687TIP3   OH247551   1.527   1.582   2.524  0.1914  0.2428 -0.0714
 8687TIP3    H147552   1.593   1.589   2.454  0.6321  1.0394  0.4032
 8687TIP3    H247553   1.450   1.545   2.481  1.3595 -2.0082 -0.3620
 8688TIP3   OH247554   3.938   6.584   2.160 -0.1157  0.4603  0.2166
 8688TIP3    H147555   3.969   6.503   2.200 -0.7364  0.5905  0.9971
 8688TIP3    H247556   3.978   6.653   2.212  0.4958  0.6654 -0.5133
 8689TIP3   OH247557   5.953   0.238   3.856 -0.4902 -0.0848 -0.4096
 8689TIP3    H147558   6.017   0.172   3.832 -0.5857  0.5620 -2.6393
 8689TIP3    H247559   5.875   0.216   3.805 -1.3516  0.3696  0.6569
 8690TIP3   OH247560   4.935   1.929   2.228 -0.0629 -0.0797  0.0896
 8690TIP3    H147561   4.914   1.928   2.135  0.2030 -1.9456  0.0144
 8690TIP3    H247562   4.888   1.854   2.265  1.1795 -0.4074  1.1235
 8691TIP3   OH247563   3.516   1.237   3.799  0.0012  0.0116  0.4427
 8691TIP3    H147564   3.431   1.276   3.776 -1.6311 -2.3339  2.0185
 8691TIP3    H247565   3.550   1.293   3.869  0.3076  1.5345 -0.8487
 8692TIP3   OH247566   1.828   4.914  11.315  0.3582 -0.2716  0.4913
 8692TIP3    H147567   1.803   4.855  11.386 -0.1524 -1.0209 -0.2972
 8692TIP3    H247568   1.745   4.946  11.280  0.6205  0.5773  0.6268
 8693TIP3   OH247569   2.636   3.955   3.467 -0.7043 -0.6707 -0.5205
 8693TIP3    H147570   2.555   3.907   3.483 -0.4769 -0.7742  0.3388
 8693TIP3    H247571   2.649   4.008   3.545 -0.4915  0.1394 -1.0979
 8694TIP3   OH247572   2.298   4.507   4.215 -0.0595  0.1029  0.2204
 8694TIP3    H147573   2.232   4.442   4.239 -1.9082  1.5641 -0.6828
 8694TIP3    H247574   2.343   4.526   4.297 -1.3926 -0.2595  1.0750
 8695TIP3   OH247575   2.797   2.538  12.958 -0.0032 -0.3059 -0.0534
 8695TIP3    H147576   2.811   2.458  12.907 -4.4686  0.3659 -2.8768
 8695TIP3    H247577   2.764   2.507  13.042 -2.9480 -1.6325 -1.5498
 8696TIP3   OH247578   2.863   6.116  13.829  0.2369  0.0174 -1.0965
 8696TIP3    H147579   2.867   6.023  13.853  0.5587  0.4713  0.7545
 8696TIP3    H247580   2.780   6.146  13.867  0.3770  0.5970 -1.2471
 8697TIP3   OH247581   4.387   6.461   0.034  0.4733 -0.0027  0.3742
 8697TIP3    H147582   4.349   6.546   0.057  1.4410  0.2653  1.0208
 8697TIP3    H247583   4.381   6.409   0.115  2.2647  0.3431  0.7610
 8698TIP3   OH247584   6.665   2.352   3.861 -0.3865  0.5679  0.5143
 8698TIP3    H147585   6.683   2.292   3.789 -1.3104  2.5790 -1.5097
 8698TIP3    H247586   6.682   2.439   3.825  2.7198  1.6071  3.8199
 8699TIP3   OH247587   1.277   3.783  12.235  0.5458 -0.1469  0.1962
 8699TIP3    H147588   1.282   3.806  12.142 -0.2585 -1.7217 -0.2751
 8699TIP3    H247589   1.216   3.848  12.272  0.5695  0.2564 -0.4551
 8700TIP3   OH247590   2.067   4.799   0.860 -0.0656  0.4976 -0.1360
 8700TIP3    H147591   2.040   4.719   0.814 -0.1889  0.1827  0.4731
 8700TIP3    H247592   2.161   4.788   0.875 -0.1410  0.3395  0.2070
 8701TIP3   OH247593   1.015   5.321   3.825  1.3957 -0.1729  0.4021
 8701TIP3    H147594   1.049   5.406   3.855  3.4676 -0.9919  0.5590
 8701TIP3    H247595   1.004   5.270   3.906  0.4201 -0.1565  0.2868
 8702TIP3   OH247596   2.254   3.417   2.941 -0.9051  0.2434 -0.0088
 8702TIP3    H147597   2.208   3.458   3.015 -0.5745  0.1570  0.2430
 8702TIP3    H247598   2.338   3.389   2.977 -1.6899 -1.9951  0.2074
 8703TIP3   OH247599   3.575   2.408  16.394  0.2400  0.0006  0.3526
 8703TIP3    H147600   3.588   2.366  16.309 -2.4193 -0.6144  0.1863
 8703TIP3    H247601   3.639   2.366  16.452  1.3267 -0.3603 -1.0607
 8704TIP3   OH247602   0.104   2.677  16.442  1.0883 -0.2580  0.2307
 8704TIP3    H147603   0.147   2.688  16.357 -0.4827  0.6517 -0.4902
 8704TIP3    H247604   0.099   2.766  16.478  0.1553 -0.3910  0.4554
 8705TIP3   OH247605   0.796   4.032  11.176 -0.7139  0.4050 -0.2674
 8705TIP3    H147606   0.743   3.975  11.120 -0.2265  0.5829 -0.9370
 8705TIP3    H247607   0.733   4.076  11.232 -1.0762 -1.1119  0.5907
 8706TIP3   OH247608   6.432   6.420  12.253  0.4114  0.4316 -0.3916
 8706TIP3    H147609   6.413   6.333  12.287  1.0233 -0.2323 -1.6464
 8706TIP3    H247610   6.466   6.469  12.328 -1.1679  0.0159  0.6302
 8707TIP3   OH247611   5.559   5.542   4.275  0.1557  0.3659 -0.2207
 8707TIP3    H147612   5.570   5.620   4.220 -1.2478  1.3425  0.8101
 8707TIP3    H247613   5.465   5.536   4.289  0.4543  0.1993  2.0746
 8708TIP3   OH247614   2.370   6.406   0.063  0.3304 -0.3547  0.4204
 8708TIP3    H147615   2.305   6.359   0.010  1.7598 -0.9051 -0.8916
 8708TIP3    H247616   2.330   6.410   0.150 -0.8006 -2.0855  0.0429
 8709TIP3   OH247617   5.981   3.762   6.654 -0.1221  0.3611  0.3756
 8709TIP3    H147618   5.891   3.732   6.638  0.8650 -3.1632  0.7065
 8709TIP3    H247619   5.970   3.839   6.710 -2.9247 -0.5087  1.2185
 8710TIP3   OH247620   4.551   5.071  11.487  0.4099  0.0009 -0.2334
 8710TIP3    H147621   4.538   5.048  11.579 -0.6572 -1.8083 -0.7928
 8710TIP3    H247622   4.479   5.028  11.441  1.0187  0.7211 -1.9536
 8711TIP3   OH247623   5.723   5.635  14.938  0.4716  0.3718 -0.4975
 8711TIP3    H147624   5.726   5.725  14.905 -1.8122  0.8406  0.3700
 8711TIP3    H247625   5.708   5.644  15.032  0.5464 -0.9132 -0.3435
 8712TIP3   OH247626   4.366   0.100   2.144 -0.1372 -0.1863  0.2272
 8712TIP3    H147627   4.451   0.133   2.114  0.0124  0.2641  1.1259
 8712TIP3    H247628   4.373   0.098   2.239 -1.7891  1.6938  0.4533
 8713TIP3   OH247629   0.006   1.512   4.555  0.0214  0.4611  0.1204
 8713TIP3    H147630   0.071   1.548   4.616  0.8359  0.2668 -0.6113
 8713TIP3    H247631  -0.027   1.588   4.507 -0.3964  0.5767  0.5855
 8714TIP3   OH247632   3.729   4.912  12.373 -0.1095 -1.2243  0.0199
 8714TIP3    H147633   3.743   4.828  12.415  2.6694 -0.9663 -0.2280
 8714TIP3    H247634   3.810   4.928  12.324 -0.8936  1.2028 -0.6059
 8715TIP3   OH247635   0.268   1.639   0.383  0.1495  0.2976 -0.1837
 8715TIP3    H147636   0.293   1.714   0.329 -1.9259  0.5614 -0.8349
 8715TIP3    H247637   0.205   1.675   0.446 -1.5218 -1.0023 -1.0392
 8716TIP3   OH247638   2.367   1.544  15.276  0.0124  0.2225 -0.3316
 8716TIP3    H147639   2.380   1.634  15.307  1.4468 -0.2129  0.4469
 8716TIP3    H247640   2.355   1.493  15.356 -2.0238 -0.1485 -0.8121
 8717TIP3   OH247641   4.623   4.618  11.948  0.0310 -0.7849 -0.0401
 8717TIP3    H147642   4.671   4.676  12.007  0.9405 -3.3189  1.8837
 8717TIP3    H247643   4.537   4.659  11.940 -0.1427 -0.2419  3.0952
 8718TIP3   OH247644   1.327   5.188  16.343  0.6342 -0.3518  0.7562
 8718TIP3    H147645   1.276   5.242  16.404  2.5258  0.0214  2.1156
 8718TIP3    H247646   1.407   5.168  16.391  1.4213 -1.6024 -0.9810
 8719TIP3   OH247647   6.523   6.427   4.943 -0.1066 -0.3859 -0.0274
 8719TIP3    H147648   6.606   6.419   4.989 -0.1759 -1.0831 -0.0010
 8719TIP3    H247649   6.490   6.514   4.965 -0.1043 -0.6795  1.1795
 8720TIP3   OH247650   4.905   0.358   3.614 -0.0120  0.5365  0.0467
 8720TIP3    H147651   4.891   0.271   3.650 -2.6162  0.4940 -0.8566
 8720TIP3    H247652   4.910   0.346   3.519 -1.0383  1.4123 -0.1379
 8721TIP3   OH247653   5.638   4.650   2.232  0.0843 -0.7537 -0.3947
 8721TIP3    H147654   5.608   4.703   2.306  0.3371 -1.8347  0.5096
 8721TIP3    H247655   5.713   4.699   2.197 -0.8576  0.4406 -0.8010
 8722TIP3   OH247656   2.657   4.501   0.018  0.1658  0.3013 -0.3085
 8722TIP3    H147657   2.603   4.423   0.033 -0.1385  0.3413 -1.1392
 8722TIP3    H247658   2.611   4.571   0.065 -0.1307  0.1902 -0.4323
 8723TIP3   OH247659   1.391   2.359   4.950 -0.0193 -0.1492  0.1942
 8723TIP3    H147660   1.414   2.375   4.859  2.4436  0.2388  0.7995
 8723TIP3    H247661   1.355   2.270   4.951 -1.4356  0.3499 -1.3034
 8724TIP3   OH247662   2.893   3.105   0.465 -0.4224 -0.4469  0.0593
 8724TIP3    H147663   2.819   3.060   0.425 -0.8828 -0.0220  0.4385
 8724TIP3    H247664   2.919   3.171   0.400 -0.0095 -0.9750 -0.3185
 8725TIP3   OH247665   2.738   3.717  13.534 -0.2246 -0.6641  0.6096
 8725TIP3    H147666   2.695   3.797  13.505  3.8540  1.6248  0.0337
 8725TIP3    H247667   2.743   3.726  13.629 -2.0338 -1.6179  0.8322
 8726TIP3   OH247668   5.602   6.403   5.357 -0.8777  0.4001  0.3254
 8726TIP3    H147669   5.592   6.464   5.284  1.8653 -0.7690 -1.2048
 8726TIP3    H247670   5.696   6.388   5.362 -1.3022 -2.3712  1.7635
 8727TIP3   OH247671   5.416   6.820   4.371  0.2026  0.2851  0.0102
 8727TIP3    H147672   5.507   6.839   4.349 -0.6272  1.2755 -3.0754
 8727TIP3    H247673   5.372   6.812   4.287 -2.3816 -1.3480  1.3733
 8728TIP3   OH247674   2.371   1.588   3.895 -0.5596 -0.1207  0.3113
 8728TIP3    H147675   2.403   1.677   3.884  0.2046  0.0857  3.2728
 8728TIP3    H247676   2.377   1.572   3.989 -3.6285 -2.2051  0.3038
 8729TIP3   OH247677   0.998   1.976   1.445  0.1635  0.2348 -0.6337
 8729TIP3    H147678   1.047   2.041   1.394 -0.3410  1.1327 -0.0192
 8729TIP3    H247679   0.968   1.912   1.381  0.0357  1.0237 -1.3790
 8730TIP3   OH247680   6.712   0.390  12.032 -0.6093 -0.0230 -0.2990
 8730TIP3    H147681   6.709   0.467  11.975 -0.6388 -0.0083 -0.2770
 8730TIP3    H247682   6.621   0.374  12.056 -0.4463  1.1608  1.3524
 8731TIP3   OH247683   5.935   0.662  14.260 -0.4440  0.3358 -0.2717
 8731TIP3    H147684   5.885   0.744  14.255 -2.5467 -0.5221  2.9912
 8731TIP3    H247685   6.013   0.685  14.311  1.5165  1.1612 -3.3686
 8732TIP3   OH247686   5.821   2.456   6.416  0.1146 -0.3219  0.6781
 8732TIP3    H147687   5.852   2.396   6.484  1.1454 -0.0872  0.4251
 8732TIP3    H247688   5.768   2.521   6.463  1.3774  0.2334  1.3646
 8733TIP3   OH247689   3.249   0.990   5.846  0.4369  0.4938 -0.5948
 8733TIP3    H147690   3.339   0.960   5.831 -0.5851 -2.4112 -1.5585
 8733TIP3    H247691   3.230   0.964   5.936 -0.5747 -2.5728 -1.5400
 8734TIP3   OH247692   0.991   4.879   0.376 -0.0169 -0.0644  0.6995
 8734TIP3    H147693   1.025   4.789   0.370  1.8255  0.5543  1.2676
 8734TIP3    H247694   0.897   4.868   0.384 -0.3840 -1.8250 -3.4433
 8735TIP3   OH247695   1.638   3.304   0.640 -0.2421 -0.5458  0.1964
 8735TIP3    H147696   1.587   3.385   0.646  1.0773  0.2562  0.9970
 8735TIP3    H247697   1.595   3.254   0.570 -0.7472  1.0863 -0.7093
 8736TIP3   OH247698   0.759   6.615   2.904  0.1065 -0.2242 -0.2268
 8736TIP3    H147699   0.778   6.557   2.978 -0.4673 -1.0993 -0.7377
 8736TIP3    H247700   0.764   6.703   2.940  0.6141 -0.6063  0.6658
 8737TIP3   OH247701   5.974   5.062  14.451 -0.3470  0.4481  0.0227
 8737TIP3    H147702   5.888   5.104  14.458 -0.2447  0.4799  1.3707
 8737TIP3    H247703   5.996   5.038  14.541  1.1869  0.6682 -0.2767
 8738TIP3   OH247704   2.515   1.129   5.010 -0.3550  0.3491 -0.0629
 8738TIP3    H147705   2.483   1.088   5.090 -0.3159 -0.5773 -0.5125
 8738TIP3    H247706   2.449   1.195   4.988 -1.0842 -0.3587 -0.0326
 8739TIP3   OH247707   3.568   2.816   0.245  0.4874 -0.2287  0.2520
 8739TIP3    H147708   3.629   2.783   0.310  1.0658  1.2821  0.5186
 8739TIP3    H247709   3.618   2.882   0.196 -1.0670  1.4788  0.8532
 8740TIP3   OH247710   4.711   3.430   4.593  0.0566 -0.2991 -0.1337
 8740TIP3    H147711   4.630   3.471   4.624  0.9250  1.6486 -0.3413
 8740TIP3    H247712   4.764   3.502   4.561  2.4071 -1.3816  1.1237
 8741TIP3   OH247713   4.333   1.691   5.562  0.3293 -0.3739 -0.9658
 8741TIP3    H147714   4.282   1.610   5.568  2.3586 -1.9313 -2.9803
 8741TIP3    H247715   4.279   1.749   5.508 -0.9976 -0.4349  0.2134
 8742TIP3   OH247716   2.649   4.907   5.332 -0.1798  0.1609  0.4132
 8742TIP3    H147717   2.556   4.902   5.352 -0.3585  0.7280 -0.2207
 8742TIP3    H247718   2.680   4.985   5.378  0.5250 -1.3241  2.5764
 8743TIP3   OH247719   1.262   5.018  11.804  0.1486 -0.1965 -0.5905
 8743TIP3    H147720   1.198   5.050  11.741  1.5172  0.7520 -1.5732
 8743TIP3    H247721   1.228   5.047  11.889 -0.8261  0.0876 -1.0636
 8744TIP3   OH247722   1.732   5.253  11.305  0.1596 -0.0822 -0.3964
 8744TIP3    H147723   1.810   5.239  11.251  0.3561 -2.0437  0.3067
 8744TIP3    H247724   1.675   5.178  11.285 -0.6730  0.2687  0.5760
 8745TIP3   OH247725   2.950   0.844  16.257 -0.0509  0.0556 -0.3182
 8745TIP3    H147726   2.929   0.789  16.332 -1.1664  2.4237  1.2411
 8745TIP3    H247727   2.877   0.832  16.197 -0.2789 -0.1869  0.0066
 8746TIP3   OH247728   2.769   3.358  15.778 -0.0135 -0.0540 -0.4537
 8746TIP3    H147729   2.829   3.411  15.725 -0.2214  0.5942 -0.0443
 8746TIP3    H247730   2.827   3.300  15.827  0.2121 -0.2393 -0.9229
 8747TIP3   OH247731   4.392   2.159  11.595  0.2020  0.6426  0.1767
 8747TIP3    H147732   4.355   2.244  11.568 -0.5384  0.8427  1.7050
 8747TIP3    H247733   4.355   2.144  11.682 -0.8882 -1.9746 -0.6395
 8748TIP3   OH247734   4.977   1.344  16.554  0.0878 -0.1933  0.1523
 8748TIP3    H147735   4.949   1.259  16.521  0.4520 -0.8730  1.5236
 8748TIP3    H247736   4.955   1.405  16.484  0.5514 -1.5168 -1.2078
 8749TIP3   OH247737   4.695   4.060  14.493 -0.1020  0.1917  0.3841
 8749TIP3    H147738   4.679   4.140  14.543 -0.6527  0.0510  0.4497
 8749TIP3    H247739   4.631   4.064  14.422  0.7505  0.4442 -0.3744
 8750TIP3   OH247740   6.627   2.685  12.700 -0.2823  0.4942  0.1864
 8750TIP3    H147741   6.579   2.768  12.701  0.6841  1.1193 -1.1878
 8750TIP3    H247742   6.564   2.622  12.665 -0.2673  1.2117 -1.2124
 8751TIP3   OH247743   5.832   3.918   2.404 -0.2415 -1.1126 -0.3031
 8751TIP3    H147744   5.908   3.889   2.354 -0.6296 -0.8200 -1.0889
 8751TIP3    H247745   5.868   3.964   2.480  0.3642 -0.1257 -1.1665
 8752TIP3   OH247746   2.475   2.731   5.363 -0.3348 -0.4540 -0.1072
 8752TIP3    H147747   2.416   2.669   5.405 -0.5163  0.3397  0.8542
 8752TIP3    H247748   2.441   2.817   5.389 -0.1027  0.0557 -1.4195
 8753TIP3   OH247749   0.579   5.056  14.995 -0.8802 -0.6094 -0.0350
 8753TIP3    H147750   0.550   5.063  14.904  0.1578  1.0283 -0.2805
 8753TIP3    H247751   0.622   5.139  15.013 -0.2495 -1.2556  1.6774
 8754TIP3   OH247752   6.415   1.451   0.062 -0.2358 -0.1221  0.1395
 8754TIP3    H147753   6.381   1.376   0.012 -1.4492 -0.0826  0.8536
 8754TIP3    H247754   6.454   1.508  -0.004  0.9092 -1.4672 -0.4002
 8755TIP3   OH247755   2.982   2.338   4.919 -0.2904 -0.3018  0.2527
 8755TIP3    H147756   2.925   2.268   4.885  0.5005 -0.3482 -1.0409
 8755TIP3    H247757   3.012   2.384   4.841  1.0066  0.0710  0.9528
 8756TIP3   OH247758   0.881   3.286   3.244 -0.0022  0.0159 -0.4140
 8756TIP3    H147759   0.958   3.344   3.246  0.7693 -0.9100 -1.4140
 8756TIP3    H247760   0.908   3.214   3.186 -1.0831 -1.1129  0.4347
 8757TIP3   OH247761   6.350   1.125   0.772  0.3124 -0.9548  0.4282
 8757TIP3    H147762   6.413   1.172   0.717  1.0849 -0.9198  1.3059
 8757TIP3    H247763   6.368   1.032   0.757  0.4692 -0.9455  0.5541
 8758TIP3   OH247764   1.419   3.879   6.858  0.5469  0.0114 -0.2478
 8758TIP3    H147765   1.509   3.904   6.839  0.9579 -0.1110  1.4208
 8758TIP3    H247766   1.426   3.806   6.920 -0.6948 -0.0436 -0.1358
 8759TIP3   OH247767   1.478   6.783  15.334  0.3097  0.3451 -0.7184
 8759TIP3    H147768   1.511   6.694  15.331  1.6244  0.8470 -2.4267
 8759TIP3    H247769   1.555   6.838  15.319 -0.7765  1.6913 -1.6251
 8760TIP3   OH247770   1.019   6.766  11.748  0.5163 -0.4949  0.1592
 8760TIP3    H147771   0.966   6.792  11.673  0.7873  0.7777  0.3996
 8760TIP3    H247772   1.056   6.681  11.722  1.8804  0.6276 -1.8008
 8761TIP3   OH247773   1.470   5.523   5.551 -0.3570 -0.7735  0.0122
 8761TIP3    H147774   1.470   5.428   5.543  0.5355 -0.6528 -2.2816
 8761TIP3    H247775   1.384   5.550   5.519 -0.1070 -0.7421 -0.6351
 8762TIP3   OH247776   3.617   0.699  14.700  0.0396  0.2627  0.1302
 8762TIP3    H147777   3.689   0.656  14.653 -0.4272 -0.3539 -0.0284
 8762TIP3    H247778   3.645   0.699  14.791  0.5376  0.6264 -0.0170
 8763TIP3   OH247779   4.053   4.435   2.745  0.1029  0.1265  0.2802
 8763TIP3    H147780   3.961   4.454   2.726 -0.0511  0.4672  1.3079
 8763TIP3    H247781   4.102   4.483   2.678 -0.4434  0.6285  0.2369
 8764TIP3   OH247782   2.121   1.771   0.164  0.9934  0.5832 -0.3125
 8764TIP3    H147783   2.167   1.736   0.088  0.8694  0.0893 -0.1623
 8764TIP3    H247784   2.080   1.695   0.205  3.0311  0.4135  1.6270
 8765TIP3   OH247785   0.313   1.279  15.248  0.1065  0.0368 -0.2109
 8765TIP3    H147786   0.390   1.257  15.195  0.5370  0.0822  0.3762
 8765TIP3    H247787   0.303   1.204  15.307 -0.3658 -0.0109 -0.3476
 8766TIP3   OH247788   4.082   5.913  13.617 -0.3344 -0.0183 -0.4615
 8766TIP3    H147789   3.995   5.894  13.583 -0.6958  0.9301 -0.0973
 8766TIP3    H247790   4.104   5.999  13.581  1.0944 -0.8675 -1.7690
 8767TIP3   OH247791   5.627   3.562  12.500  0.2525 -0.3930  0.2051
 8767TIP3    H147792   5.550   3.612  12.529  1.3906  0.5760  1.7224
 8767TIP3    H247793   5.640   3.589  12.409 -0.9936 -0.3183  0.0272
 8768TIP3   OH247794   6.756   3.682  11.417 -0.2597  0.0782  0.0688
 8768TIP3    H147795   6.848   3.686  11.441 -0.3034  1.1239  0.1134
 8768TIP3    H247796   6.753   3.720  11.329 -0.7748  1.0539  0.4904
 8769TIP3   OH247797   4.688   6.611   3.623 -0.0850 -0.1095 -0.6140
 8769TIP3    H147798   4.648   6.531   3.657 -0.7588  0.4418 -0.0841
 8769TIP3    H247799   4.640   6.682   3.665  1.1666  0.5808 -0.2749
 8770TIP3   OH247800   0.712   0.303  11.301  0.2999  0.6144 -0.4658
 8770TIP3    H147801   0.637   0.297  11.241 -0.1864  0.2193  0.1651
 8770TIP3    H247802   0.775   0.240  11.267  0.2665  0.8009 -0.8834
 8771TIP3   OH247803   3.993   3.491   4.806  0.5119  0.2607  0.3465
 8771TIP3    H147804   3.935   3.547   4.754  0.1180  1.9088  2.4279
 8771TIP3    H247805   3.934   3.431   4.852  0.7716 -0.4023 -0.1605
 8772TIP3   OH247806   4.984   2.216  15.873 -0.5539  0.4013 -0.4070
 8772TIP3    H147807   5.078   2.205  15.859 -0.6316  0.2907 -0.8868
 8772TIP3    H247808   4.962   2.294  15.822 -0.5443  1.0251  0.5327
 8773TIP3   OH247809   3.384   2.377  12.438 -0.2706 -0.1875 -0.2484
 8773TIP3    H147810   3.478   2.381  12.456 -0.1805 -0.0508 -0.7482
 8773TIP3    H247811   3.376   2.404  12.346 -0.8132 -0.0244 -0.1548
 8774TIP3   OH247812   4.509   0.734  11.566  0.0396 -0.1174  0.1868
 8774TIP3    H147813   4.588   0.707  11.519 -1.3904 -1.1312 -1.7957
 8774TIP3    H247814   4.477   0.654  11.607 -2.1144 -0.8154 -2.4984
 8775TIP3   OH247815   3.896   1.355   5.978 -0.4267 -0.6966 -0.2079
 8775TIP3    H147816   3.810   1.320   5.954 -0.5541  1.2064 -3.1279
 8775TIP3    H247817   3.877   1.420   6.046 -1.4907  0.2173 -1.3124
 8776TIP3   OH247818   3.057   0.210  16.174  0.5510 -0.3451 -0.4061
 8776TIP3    H147819   3.012   0.268  16.113  2.3008  1.8995  0.3011
 8776TIP3    H247820   3.063   0.126  16.127 -0.3679  0.5617 -2.2646
 8777TIP3   OH247821   5.874   4.172   3.242  0.1315  0.0411  0.6578
 8777TIP3    H147822   5.797   4.229   3.245 -0.0442 -0.1885  0.5164
 8777TIP3    H247823   5.904   4.168   3.333  0.4216  0.7306  0.5977
 8778TIP3   OH247824   3.783   3.267  12.164 -0.1929 -0.4353  0.5013
 8778TIP3    H147825   3.723   3.241  12.094  2.0775  1.2211 -2.3055
 8778TIP3    H247826   3.750   3.352  12.194 -0.0546 -0.1658 -0.0883
 8779TIP3   OH247827   6.793   4.188   1.794  0.0712 -0.0147 -0.2275
 8779TIP3    H147828   6.753   4.102   1.787  2.5741 -1.1553 -2.7701
 8779TIP3    H247829   6.734   4.246   1.746 -2.0235 -0.0150  2.1374
 8780TIP3   OH247830   3.659   4.041  13.963 -0.5584 -0.9134 -0.0876
 8780TIP3    H147831   3.679   4.131  13.990 -1.1067 -0.5370 -0.8989
 8780TIP3    H247832   3.713   3.987  14.020  0.5763 -0.0316 -0.2873
 8781TIP3   OH247833   0.877   0.807   0.124  0.3909 -0.0608 -0.9106
 8781TIP3    H147834   0.854   0.752   0.050 -0.9303  0.5305 -0.9594
 8781TIP3    H247835   0.924   0.881   0.085 -0.9642  0.6344 -1.2700
 8782TIP3   OH247836   1.563   3.048   5.031  0.1573 -0.4024  0.4717
 8782TIP3    H147837   1.594   2.957   5.037  1.5571 -0.2295 -2.4041
 8782TIP3    H247838   1.562   3.067   4.937 -1.7782  2.0490  0.8710
 8783TIP3   OH247839   0.771   3.641  13.057  0.7822 -0.1769  0.6769
 8783TIP3    H147840   0.682   3.605  13.058 -0.1141  1.9146  0.1881
 8783TIP3    H247841   0.791   3.654  12.964  0.4210  2.0435  0.8682
 8784TIP3   OH247842   5.659   4.486  13.595 -0.4810 -0.2009  0.2967
 8784TIP3    H147843   5.648   4.537  13.515 -0.3869 -0.8034 -0.1064
 8784TIP3    H247844   5.591   4.419  13.590 -1.3639  0.5747  1.3822
 8785TIP3   OH247845   0.825   0.985  17.103  0.2735  0.5348 -0.2085
 8785TIP3    H147846   0.892   0.971  17.170  1.3156 -0.5284 -1.4286
 8785TIP3    H247847   0.749   1.018  17.152  0.8811 -0.5157  1.5428
 8786TIP3   OH247848   2.343   5.458   4.770 -0.1225 -0.0247  0.3651
 8786TIP3    H147849   2.420   5.407   4.746  1.1832  1.9401  0.2208
 8786TIP3    H247850   2.319   5.424   4.856  0.1758 -1.4453 -0.0811
 8787TIP3   OH247851   5.952   4.699  11.806  0.4423  0.7799  0.8254
 8787TIP3    H147852   6.018   4.734  11.747  0.3897  1.0076  0.9007
 8787TIP3    H247853   5.913   4.625  11.759  1.3311  0.1083  1.1169
 8788TIP3   OH247854   1.438   1.536   4.648  0.1474 -0.0129  0.5401
 8788TIP3    H147855   1.445   1.592   4.571 -0.2180 -0.2097  0.3601
 8788TIP3    H247856   1.528   1.510   4.668  0.1368 -0.9798 -0.5738
 8789TIP3   OH247857   2.260   4.324  13.563 -0.2423  0.0328  0.6607
 8789TIP3    H147858   2.280   4.394  13.625 -0.7589  0.8069 -0.0341
 8789TIP3    H247859   2.300   4.352  13.481 -2.3881  0.6655 -0.2418
 8790TIP3   OH247860   2.286   4.124  12.377 -0.2711 -0.0515  0.8715
 8790TIP3    H147861   2.211   4.064  12.381  0.6294 -1.1967  1.1499
 8790TIP3    H247862   2.294   4.146  12.284 -0.1410 -0.9978  0.6482
 8791TIP3   OH247863   4.698   3.848   5.027  0.4456 -0.5705  0.3520
 8791TIP3    H147864   4.694   3.893   4.942 -0.2424 -2.3876 -0.6257
 8791TIP3    H247865   4.775   3.884   5.069  1.0999  0.0231 -1.2630
 8792TIP3   OH247866   3.210   0.706   5.341 -0.6054  0.0267  0.5843
 8792TIP3    H147867   3.187   0.777   5.281 -3.1229  0.9013  2.4481
 8792TIP3    H247868   3.305   0.701   5.336 -0.4510  2.5372 -0.7134
 8793TIP3   OH247869   1.291   1.937  12.704  0.7705  0.4578 -0.1915
 8793TIP3    H147870   1.264   1.903  12.619  0.1454 -1.0083  0.5466
 8793TIP3    H247871   1.386   1.936  12.702  0.7975 -1.9454 -0.0301
 8794TIP3   OH247872   1.883   2.157  13.873 -0.3782 -0.0939  0.6224
 8794TIP3    H147873   1.877   2.246  13.909 -1.1854  0.5431 -1.0022
 8794TIP3    H247874   1.850   2.165  13.784  1.5901 -1.6047 -0.3066
 8795TIP3   OH247875   6.159   4.036   0.564  0.2907  0.2509 -0.5989
 8795TIP3    H147876   6.134   4.053   0.473  1.2654  0.1525 -0.8997
 8795TIP3    H247877   6.156   3.940   0.572 -1.4851  0.3299 -0.0100
 8796TIP3   OH247878   4.146   6.606  16.670 -0.2954 -0.2796 -0.2180
 8796TIP3    H147879   4.166   6.699  16.666  0.3160 -0.4093 -0.3410
 8796TIP3    H247880   4.141   6.578  16.579  0.6547 -0.5883 -0.1888
 8797TIP3   OH247881   1.873   5.391   3.353  0.1472  0.4872  0.0230
 8797TIP3    H147882   1.889   5.485   3.337  0.8504  0.5654  1.0848
 8797TIP3    H247883   1.780   5.379   3.337  0.6689  0.4703 -4.4139
 8798TIP3   OH247884   3.654   3.660   0.403 -0.0567 -0.0841 -0.2907
 8798TIP3    H147885   3.585   3.618   0.352  0.4203 -0.5674 -0.5604
 8798TIP3    H247886   3.617   3.743   0.433 -0.9013 -0.5473 -0.0432
 8799TIP3   OH247887   2.102   6.135   1.722 -0.3348  0.4437 -0.2142
 8799TIP3    H147888   2.150   6.154   1.642  1.1566  1.4641  0.8513
 8799TIP3    H247889   2.169   6.132   1.790 -1.7215  1.4837  1.2944
 8800TIP3   OH247890   1.360   1.809  14.940  0.5110 -0.0964  0.4492
 8800TIP3    H147891   1.397   1.870  15.004 -1.4421  1.2304  0.4036
 8800TIP3    H247892   1.267   1.830  14.938  0.6557  1.0378 -3.9558
 8801TIP3   OH247893   3.988   3.029  15.583 -0.0841  0.0153  0.1447
 8801TIP3    H147894   3.991   3.123  15.568  0.1636 -0.1757 -1.1222
 8801TIP3    H247895   4.080   3.002  15.579 -0.2367 -0.4233 -0.5807
 8802TIP3   OH247896   0.891   3.889  14.762 -0.5995 -0.1689  0.5639
 8802TIP3    H147897   0.895   3.887  14.857 -0.0678 -2.0111  0.5405
 8802TIP3    H247898   0.982   3.879  14.734 -0.8357 -0.4325 -0.1293
 8803TIP3   OH247899   1.330   2.744  16.067  0.2659 -0.2806  0.1754
 8803TIP3    H147900   1.296   2.772  16.152  0.2713 -0.1054  0.1214
 8803TIP3    H247901   1.263   2.772  16.005 -0.2356 -1.3320  0.2237
 8804TIP3   OH247902   5.479   3.342   1.405  0.6162 -0.5058  0.5233
 8804TIP3    H147903   5.480   3.276   1.474 -0.0710 -1.5769 -0.4561
 8804TIP3    H247904   5.569   3.373   1.400  0.7598 -0.7264  1.5973
 8805TIP3   OH247905   3.511   3.287  10.878  0.0638  0.0243 -0.1580
 8805TIP3    H147906   3.416   3.279  10.884 -0.2143  1.5539 -1.7174
 8805TIP3    H247907   3.545   3.218  10.935 -1.9732 -0.8736  0.0430
 8806TIP3   OH247908   1.539   2.290   3.699 -0.4589 -0.0592 -0.0749
 8806TIP3    H147909   1.509   2.372   3.740  0.7971  1.0769 -1.2986
 8806TIP3    H247910   1.459   2.248   3.669 -1.0152  2.2101 -2.0586
 8807TIP3   OH247911   0.349   6.763   4.458 -0.1577  0.2290  0.0447
 8807TIP3    H147912   0.348   6.750   4.553 -0.7694  0.9354  0.1429
 8807TIP3    H247913   0.258   6.780   4.435 -0.5435 -2.8046 -1.1097
 8808TIP3   OH247914   1.392   1.885   1.859  0.0296  0.2827 -0.4258
 8808TIP3    H147915   1.367   1.889   1.767 -2.5543 -0.2614  0.1730
 8808TIP3    H247916   1.315   1.917   1.906  1.2499  0.4446  1.5562
 8809TIP3   OH247917   2.359   6.309  16.082 -0.1795 -0.2049 -0.3633
 8809TIP3    H147918   2.426   6.244  16.061  0.7954  0.3487  0.9658
 8809TIP3    H247919   2.379   6.383  16.025 -0.8945 -0.7827 -1.4022
 8810TIP3   OH247920   4.309   2.782  15.709  0.4890 -0.0188  0.3567
 8810TIP3    H147921   4.241   2.715  15.708  0.2822  0.1473 -1.6401
 8810TIP3    H247922   4.273   2.854  15.655  1.8359  0.4681  0.0661
 8811TIP3   OH247923   5.093   3.281  11.101  0.1361 -0.4223  0.4663
 8811TIP3    H147924   5.057   3.319  11.181  0.9409 -1.0858  1.1621
 8811TIP3    H247925   5.018   3.238  11.059 -0.0934 -0.9538  1.3938
 8812TIP3   OH247926   1.824   4.826  17.224 -0.1774  0.4525 -0.3106
 8812TIP3    H147927   1.735   4.805  17.196  0.3675 -2.6251 -0.0933
 8812TIP3    H247928   1.832   4.787  17.312  1.1455  1.3204 -0.0101
 8813TIP3   OH247929   6.391   2.253   4.551  0.4372 -0.3467  0.1809
 8813TIP3    H147930   6.420   2.237   4.462 -0.7836  1.9318 -0.6970
 8813TIP3    H247931   6.420   2.342   4.570 -1.3700  0.0790  1.1619
 8814TIP3   OH247932   3.175   1.400   6.065 -0.2202  0.2528 -0.3483
 8814TIP3    H147933   3.126   1.419   5.985 -1.9307  0.7306  0.7557
 8814TIP3    H247934   3.144   1.465   6.128  1.1628 -0.0480  0.6883
 8815TIP3   OH247935   1.340   0.189   5.556  0.0207 -0.4339  0.2460
 8815TIP3    H147936   1.325   0.274   5.514  0.1368 -0.0569  0.9485
 8815TIP3    H247937   1.428   0.164   5.527 -0.5149 -0.9329 -0.9878
 8816TIP3   OH247938   6.548   2.324   1.660 -0.1855  0.2890  0.1186
 8816TIP3    H147939   6.637   2.359   1.658 -0.2307  0.3813 -0.3447
 8816TIP3    H247940   6.492   2.399   1.645 -0.3877  0.3596  1.1265
 8817TIP3   OH247941   1.812   5.299  16.866  0.4628 -0.0087 -0.1029
 8817TIP3    H147942   1.839   5.250  16.944  0.8254 -1.4587 -1.0938
 8817TIP3    H247943   1.871   5.268  16.797 -1.5782 -0.7777 -1.5706
 8818TIP3   OH247944   2.547   2.932  16.900  0.7558 -0.5236  0.0532
 8818TIP3    H147945   2.506   2.849  16.875  2.5075 -1.4596  0.1459
 8818TIP3    H247946   2.474   2.994  16.906 -0.7061 -2.2284  0.7529
 8819TIP3   OH247947   0.225   2.804  17.285  0.1049 -0.4965 -0.1431
 8819TIP3    H147948   0.276   2.875  17.246  1.9079 -1.8638 -0.3923
 8819TIP3    H247949   0.164   2.779  17.216  0.1277  0.1303 -0.4050
 8820TIP3   OH247950   0.924   0.875  13.891 -0.6347 -0.3147  0.5665
 8820TIP3    H147951   0.903   0.816  13.819  2.0584  1.2905 -1.7177
 8820TIP3    H247952   0.889   0.960  13.864 -0.6179  0.0914  1.7454
 8821TIP3   OH247953   6.289   6.416  15.755  0.1042 -0.2789  0.3149
 8821TIP3    H147954   6.226   6.392  15.823 -0.7752 -1.1459 -0.7786
 8821TIP3    H247955   6.247   6.393  15.673  0.4475  2.3012 -0.6848
 8822TIP3   OH247956   6.769   3.341  12.029  0.2991 -0.1343 -0.3966
 8822TIP3    H147957   6.781   3.265  11.973  3.5612 -1.7721  2.1802
 8822TIP3    H247958   6.712   3.310  12.100  1.6297 -0.2181  0.6593
 8823TIP3   OH247959   1.403   2.260  15.710 -0.2999 -0.4086 -0.5379
 8823TIP3    H147960   1.486   2.212  15.708 -0.5178 -0.9185  0.9185
 8823TIP3    H247961   1.343   2.201  15.757 -1.5199 -0.0845 -1.6437
 8824TIP3   OH247962   6.221   0.482  15.866 -0.0317 -0.2435  0.1305
 8824TIP3    H147963   6.134   0.519  15.854 -0.4889 -0.7752  1.5878
 8824TIP3    H247964   6.258   0.531  15.940  0.0078 -1.4963  0.9728
 8825TIP3   OH247965   1.249   6.124  11.835 -0.2630  0.1546 -0.1633
 8825TIP3    H147966   1.187   6.062  11.797 -2.0612  0.9561  1.3222
 8825TIP3    H247967   1.324   6.070  11.860 -0.9782 -1.0983 -0.6166
 8826TIP3   OH247968   4.599   2.939  16.366  0.4467 -0.4010 -0.0661
 8826TIP3    H147969   4.584   2.878  16.439 -0.2495  0.0936  0.2232
 8826TIP3    H247970   4.631   2.885  16.295  1.4697 -0.8470  0.7157
 8827TIP3   OH247971   3.895   0.054   2.060 -0.4631 -0.2291  0.1598
 8827TIP3    H147972   3.890   0.066   1.965  1.7488 -2.0045 -0.2801
 8827TIP3    H247973   3.811   0.014   2.083 -0.6800 -0.6479 -1.2301
 8828TIP3   OH247974   1.525   2.791   0.991  0.3389  0.2505 -0.1157
 8828TIP3    H147975   1.587   2.751   1.052  1.6696  1.2662 -0.7403
 8828TIP3    H247976   1.476   2.718   0.954  2.0816 -0.7432 -0.5755
 8829TIP3   OH247977   3.552   5.345  15.933  0.3573 -0.0983 -0.1139
 8829TIP3    H147978   3.566   5.266  15.985  0.4703  0.4905  0.7795
 8829TIP3    H247979   3.487   5.395  15.983  2.4695  1.7568  0.9662
 8830TIP3   OH247980   3.904   0.084   0.210  0.2392 -0.4675  0.4326
 8830TIP3    H147981   3.947   0.049   0.132  0.9188  0.8475  0.1838
 8830TIP3    H247982   3.959   0.157   0.237 -1.1533  0.4675  0.8709
 8831TIP3   OH247983   1.178   0.814   0.491  0.4364 -0.3371 -0.1053
 8831TIP3    H147984   1.097   0.843   0.448  0.5221  0.2592  0.1246
 8831TIP3    H247985   1.148   0.770   0.570  0.2317 -2.1991 -1.1515
 8832TIP3   OH247986   3.307   4.639   5.501  0.2012  0.0888 -0.4936
 8832TIP3    H147987   3.228   4.648   5.553 -2.9281  0.6319 -4.7776
 8832TIP3    H247988   3.307   4.548   5.472 -0.4872  0.7024 -2.6220
 8833TIP3   OH247989   0.362   4.029  11.379  0.3798 -0.0735 -0.0701
 8833TIP3    H147990   0.286   4.072  11.419 -0.9732 -1.2455 -1.2398
 8833TIP3    H247991   0.353   3.937  11.404  1.3420 -0.2550 -0.3614
 8834TIP3   OH247992   5.773   3.191   4.692 -0.3164 -0.4433 -0.6613
 8834TIP3    H147993   5.760   3.178   4.598 -0.6494  0.3111 -0.7210
 8834TIP3    H247994   5.827   3.116   4.719  2.9446  1.1465 -2.1399
 8835TIP3   OH247995   0.572   0.585   1.617  0.7459 -0.1556 -0.0346
 8835TIP3    H147996   0.542   0.506   1.573  1.5870 -0.3269 -0.3182
 8835TIP3    H247997   0.600   0.643   1.546  0.5835  0.2162  0.1984
 8836TIP3   OH247998   0.032   2.413  12.205  0.2483 -0.7636 -0.2199
 8836TIP3    H147999  -0.046   2.445  12.160  0.1686 -0.8851 -0.1711
 8836TIP3    H248000   0.070   2.490  12.247  0.2941 -0.6608 -0.4518
 8837TIP3   OH248001   3.311   2.339   2.117 -0.0489  0.6386 -0.4246
 8837TIP3    H148002   3.254   2.402   2.074 -0.3260  0.2878 -0.5779
 8837TIP3    H248003   3.362   2.300   2.046 -1.5937 -1.0591 -0.6875
 8838TIP3   OH248004   5.494   4.684   0.128  0.6415  0.6817  0.6964
 8838TIP3    H148005   5.492   4.589   0.114 -1.8109  0.5278  1.6310
 8838TIP3    H248006   5.532   4.719   0.048 -0.9558 -0.9409 -0.8664
 8839TIP3   OH248007   1.849   5.389  11.074  0.6630 -0.0373 -0.2228
 8839TIP3    H148008   1.760   5.352  11.075  0.2665  0.8716  1.5025
 8839TIP3    H248009   1.863   5.413  10.983  0.4486 -3.1736 -1.2188
 8840TIP3   OH248010   1.578   6.236  16.526  0.2123 -0.2304  0.0059
 8840TIP3    H148011   1.495   6.237  16.574  0.2333 -0.8976  0.0700
 8840TIP3    H248012   1.631   6.304  16.568  0.1279 -0.6121  0.7558
 8841TIP3   OH248013   2.767   3.572   0.330  0.1043 -0.3287 -0.8559
 8841TIP3    H148014   2.697   3.625   0.291 -0.0692  0.4353  0.4080
 8841TIP3    H248015   2.764   3.489   0.283  1.3966  1.2391 -4.0054
 8842TIP3   OH248016   0.772   4.653   3.169 -0.0817 -0.0088  0.3841
 8842TIP3    H148017   0.738   4.713   3.236 -1.5869  0.2082 -0.5209
 8842TIP3    H248018   0.864   4.677   3.160 -0.2648  1.0901  1.1748
 8843TIP3   OH248019   6.149   1.462   0.788  0.1282  0.7283 -0.1483
 8843TIP3    H148020   6.202   1.428   0.860  0.0434  0.5025 -0.1932
 8843TIP3    H248021   6.179   1.552   0.777  2.0447 -0.0129 -1.5912
 8844TIP3   OH248022   2.192   2.903  13.084  0.0029 -0.2198 -0.1729
 8844TIP3    H148023   2.196   2.866  12.996  0.3116 -1.2316  0.2598
 8844TIP3    H248024   2.099   2.922  13.097 -0.0459 -0.0698 -0.7027
 8845TIP3   OH248025   2.068   0.421   4.005 -0.1424 -0.0850  0.1840
 8845TIP3    H148026   2.096   0.452   3.919 -0.2737 -0.3583  0.0384
 8845TIP3    H248027   1.994   0.362   3.985  0.2106 -0.6163  0.4391
 8846TIP3   OH248028   5.996   5.428  11.213  0.4199 -0.1901 -0.3097
 8846TIP3    H148029   5.926   5.376  11.254  1.2593 -0.7405  0.4486
 8846TIP3    H248030   5.966   5.442  11.123  0.8736 -3.3321 -1.0427
 8847TIP3   OH248031   1.733   1.566   2.332 -0.5678 -0.1313 -0.2247
 8847TIP3    H148032   1.699   1.510   2.263 -1.5258  0.0095  0.1164
 8847TIP3    H248033   1.807   1.612   2.292 -1.0950 -0.0726 -1.1518
 8848TIP3   OH248034   2.121   3.967   1.848  0.8862  0.5452 -0.0573
 8848TIP3    H148035   2.197   3.958   1.790  0.3014  1.4876 -1.0158
 8848TIP3    H248036   2.113   3.882   1.891  3.0415  0.7030  0.7883
 8849TIP3   OH248037   4.135   1.482  13.608  0.7139 -0.3211 -0.3841
 8849TIP3    H148038   4.090   1.411  13.654 -0.1889  0.5725  0.1650
 8849TIP3    H248039   4.226   1.477  13.638  0.9299 -1.9106 -1.1986
 8850TIP3   OH248040   6.435   6.136   5.015 -0.3076  0.0849  0.0447
 8850TIP3    H148041   6.523   6.165   4.995 -0.6259  0.6444 -0.5762
 8850TIP3    H248042   6.446   6.071   5.085  0.5626  0.3469  0.1588
 8851TIP3   OH248043   3.586   3.673   0.039 -0.2337 -0.3625 -0.6528
 8851TIP3    H148044   3.559   3.736   0.106  2.4082  0.7729 -0.5279
 8851TIP3    H248045   3.680   3.664   0.051 -0.0393 -1.9110 -2.7687
 8852TIP3   OH248046   3.426   3.570   6.545  0.1424  0.5851 -0.3149
 8852TIP3    H148047   3.409   3.559   6.639 -0.2209  0.4503 -0.3924
 8852TIP3    H248048   3.430   3.480   6.512  0.1162  0.6372 -0.4566
 8853TIP3   OH248049   0.911   6.368   0.765 -0.0853 -0.8688  0.5543
 8853TIP3    H148050   0.869   6.402   0.685 -0.9373 -0.3267  1.2162
 8853TIP3    H248051   0.979   6.433   0.786 -0.6041 -0.4235  0.8858
 8854TIP3   OH248052   0.705   4.820   0.468  0.1679 -0.0456 -0.1984
 8854TIP3    H148053   0.630   4.815   0.528 -1.4920  1.0412 -2.0643
 8854TIP3    H248054   0.673   4.873   0.394  2.4548 -0.4493 -1.5661
 8855TIP3   OH248055   4.987   3.246   1.401 -0.1970 -0.1796 -0.0863
 8855TIP3    H148056   4.929   3.321   1.388  0.2112  0.3913  1.1705
 8855TIP3    H248057   5.035   3.267   1.481  1.3631 -0.8845 -0.7932
 8856TIP3   OH248058   4.692   1.884  16.930  0.1195  0.5865  0.3159
 8856TIP3    H148059   4.720   1.825  17.000 -0.8140 -0.6413 -0.3085
 8856TIP3    H248060   4.769   1.893  16.873  0.4754  0.5340  0.7851
 8857TIP3   OH248061   5.828   1.673   3.418  0.2463  0.2656  0.0315
 8857TIP3    H148062   5.759   1.624   3.463  0.3765 -0.6920 -0.7642
 8857TIP3    H248063   5.840   1.626   3.335  2.1338  0.1750  0.3240
 8858TIP3   OH248064   1.477   3.325   2.899  0.5160  0.0235 -0.4667
 8858TIP3    H148065   1.541   3.328   2.828  0.5361 -3.3679 -0.7665
 8858TIP3    H248066   1.401   3.281   2.860  0.4892 -1.8492  1.5072
 8859TIP3   OH248067   6.031   0.890  15.765 -0.5282  0.2845 -0.1576
 8859TIP3    H148068   6.111   0.854  15.803 -1.0595  0.3158  1.0522
 8859TIP3    H248069   6.059   0.973  15.725  0.8101 -1.5882 -3.4678
 8860TIP3   OH248070   5.432   5.432  14.103 -0.2564  0.3517  0.3210
 8860TIP3    H148071   5.403   5.404  14.190 -0.7997  2.4551  0.8640
 8860TIP3    H248072   5.467   5.520  14.116 -0.2697  0.6834 -1.5857
 8861TIP3   OH248073   3.141   0.956  17.187 -0.9677 -0.0895 -0.2602
 8861TIP3    H148074   3.200   0.965  17.262 -1.2094  0.8338 -0.1652
 8861TIP3    H248075   3.123   0.863  17.181 -0.4757 -0.2360  0.4702
 8862TIP3   OH248076   2.642   3.591   6.120 -0.1579  0.4250 -0.0637
 8862TIP3    H148077   2.610   3.607   6.209  1.0034 -0.8014  0.6233
 8862TIP3    H248078   2.630   3.675   6.075 -1.4651  0.8555  1.0133
 8863TIP3   OH248079   0.589   5.101   5.066  0.2713 -0.0083  0.7906
 8863TIP3    H148080   0.633   5.042   5.004 -1.3122  0.7362 -1.1887
 8863TIP3    H248081   0.529   5.152   5.011  0.5268  2.4576  2.6140
 8864TIP3   OH248082   3.545   4.913   6.578 -0.4706  0.3610 -0.4674
 8864TIP3    H148083   3.618   4.971   6.599 -0.6196  1.1598 -1.9909
 8864TIP3    H248084   3.517   4.878   6.663  1.4143  0.3300  0.1842
 8865TIP3   OH248085   2.059   1.992  13.966  0.5563 -0.1009  0.6883
 8865TIP3    H148086   2.135   2.011  13.910 -0.1953 -0.1032 -0.3470
 8865TIP3    H248087   1.993   2.056  13.940 -0.1797 -0.7975  0.8058
 8866TIP3   OH248088   1.320   4.907  11.192 -0.4117  0.7863 -0.1063
 8866TIP3    H148089   1.267   4.833  11.219  0.9504 -0.1104  0.1970
 8866TIP3    H248090   1.314   4.907  11.096  0.8445 -0.7171 -0.2149
 8867TIP3   OH248091   3.997   5.780  14.852  0.2941  0.2576  0.1613
 8867TIP3    H148092   3.961   5.716  14.791  2.6935  0.9705 -2.1897
 8867TIP3    H248093   3.921   5.825  14.888 -1.3018 -1.5944 -0.7445
 8868TIP3   OH248094   1.955   5.596  11.487  0.2342  0.0785 -0.3733
 8868TIP3    H148095   1.871   5.565  11.454  1.2987 -1.9734 -1.3712
 8868TIP3    H248096   1.937   5.684  11.521 -2.1580 -0.0659 -1.0857
 8869TIP3   OH248097   2.833   6.151   6.150  0.4504  0.5491 -0.0943
 8869TIP3    H148098   2.851   6.198   6.232 -1.7646 -0.6514  1.1690
 8869TIP3    H248099   2.808   6.219   6.088  2.0873  1.4724  0.2107
 8870TIP3   OH248100   4.613   5.611   0.823 -0.3818  0.4706 -0.1246
 8870TIP3    H148101   4.611   5.663   0.742 -0.9638  0.1869 -0.3009
 8870TIP3    H248102   4.651   5.670   0.888  0.0867  0.7072 -0.5974
 8871TIP3   OH248103   3.328   1.749   1.411  0.2617  0.1559 -0.0256
 8871TIP3    H148104   3.348   1.842   1.403 -0.8055  0.5170  1.1416
 8871TIP3    H248105   3.276   1.743   1.490  2.0870 -1.7496  1.1169
 8872TIP3   OH248106   0.814   6.519  14.360 -0.0492 -0.4031 -0.2168
 8872TIP3    H148107   0.866   6.470  14.296  0.6904 -0.9234  0.7426
 8872TIP3    H248108   0.861   6.602  14.370  1.0858 -1.1675  1.2052
 8873TIP3   OH248109   3.689   6.172  12.560  0.2475  0.6004 -0.3516
 8873TIP3    H148110   3.730   6.258  12.567 -0.9514  1.0521  2.4902
 8873TIP3    H248111   3.761   6.110  12.570  0.8621  1.2903 -0.4054
 8874TIP3   OH248112   4.849   6.628  16.911  0.0218 -0.1447  0.5359
 8874TIP3    H148113   4.935   6.599  16.942  0.1339 -2.2659 -1.5207
 8874TIP3    H248114   4.799   6.547  16.900 -1.5330  0.8852 -0.3284
 8875TIP3   OH248115   1.558   5.362  13.211 -0.1882 -0.0943  0.7839
 8875TIP3    H148116   1.494   5.329  13.275 -2.1799  1.5573 -0.2293
 8875TIP3    H248117   1.611   5.424  13.261 -0.6657 -0.0134  1.2062
 8876TIP3   OH248118   2.057   5.023   3.428  0.0718  0.6392 -0.0020
 8876TIP3    H148119   2.101   5.104   3.455 -0.0663  0.7514 -0.1150
 8876TIP3    H248120   2.129   4.962   3.412  0.2296  1.0344 -0.8759
 8877TIP3   OH248121   3.748   6.184  11.619  0.2750  0.7590 -0.6304
 8877TIP3    H148122   3.844   6.189  11.611  0.2397 -1.0953 -3.9033
 8877TIP3    H248123   3.728   6.091  11.608 -2.0065  1.3576 -1.9956
 8878TIP3   OH248124   5.088   4.412  15.987  0.1970 -0.6364  0.0244
 8878TIP3    H148125   5.013   4.361  16.019  0.3276  0.1203  1.6522
 8878TIP3    H248126   5.126   4.358  15.918 -0.5792 -2.0334  0.6452
 8879TIP3   OH248127   0.616   5.476  16.325 -0.1150 -0.2725  0.4672
 8879TIP3    H148128   0.645   5.468  16.234 -0.4911 -0.4915  0.3646
 8879TIP3    H248129   0.615   5.570  16.342  3.1934 -0.2704  1.3021
 8880TIP3   OH248130   3.819   0.647   1.207  0.3524 -0.2082 -0.2797
 8880TIP3    H148131   3.817   0.740   1.184 -2.6441  0.3518  1.6342
 8880TIP3    H248132   3.869   0.643   1.288  1.3650 -0.4591 -0.9033
 8881TIP3   OH248133   6.283   5.626  16.060 -0.1421 -0.3619  0.7389
 8881TIP3    H148134   6.279   5.593  15.970  0.7159  2.3557 -0.4008
 8881TIP3    H248135   6.324   5.555  16.110 -0.2397 -1.7723 -1.0815
 8882TIP3   OH248136   4.842   6.446  13.630 -0.3987  0.0652 -0.6424
 8882TIP3    H148137   4.797   6.426  13.712  0.5928 -0.4460 -0.2082
 8882TIP3    H248138   4.779   6.498  13.580 -0.2008  2.4758  1.4111
 8883TIP3   OH248139   5.303   0.716  16.115  0.3253 -0.6804  0.1354
 8883TIP3    H148140   5.322   0.787  16.055 -0.7788 -0.8122 -0.3919
 8883TIP3    H248141   5.320   0.636  16.064  3.9113 -0.9458  1.4134
 8884TIP3   OH248142   4.918   1.644   1.632 -0.7982  0.4037  0.5072
 8884TIP3    H148143   4.987   1.703   1.602  0.5304 -2.1896 -2.0736
 8884TIP3    H248144   4.841   1.669   1.581  0.4350 -1.4860 -2.5990
 8885TIP3   OH248145   3.276   3.553  14.509  0.0997 -0.3016 -0.0243
 8885TIP3    H148146   3.248   3.465  14.534  1.6639 -0.7323  0.3189
 8885TIP3    H248147   3.283   3.549  14.413 -0.5225 -0.3349 -0.0688
 8886TIP3   OH248148   0.541   0.286   1.932  0.7534  0.0834 -0.5997
 8886TIP3    H148149   0.466   0.283   1.872  0.7319  0.1125 -0.5746
 8886TIP3    H248150   0.607   0.231   1.890  0.2253 -1.0990  0.0401
 8887TIP3   OH248151   4.600   3.910   2.628 -0.4486  0.4087  0.0000
 8887TIP3    H148152   4.546   3.968   2.682  0.1213 -0.0477  1.0885
 8887TIP3    H248153   4.658   3.867   2.690 -0.5356 -0.9782 -0.8394
 8888TIP3   OH248154   3.803   5.962  13.604 -0.5672 -1.0828 -0.4845
 8888TIP3    H148155   3.822   6.053  13.583  2.3716 -1.8927 -1.9064
 8888TIP3    H248156   3.732   5.938  13.545 -1.5334  0.3044  0.0663
 8889TIP3   OH248157   5.908   3.576   2.303 -0.1342  0.5414  0.8065
 8889TIP3    H148158   5.856   3.579   2.383  1.3789  0.8679  1.8310
 8889TIP3    H248159   5.863   3.513   2.246 -1.4218  0.5605  1.7619
 8890TIP3   OH248160   2.285   2.913  13.671 -0.3331  0.5803 -0.2946
 8890TIP3    H148161   2.231   2.868  13.735 -0.1710 -0.4472 -0.8532
 8890TIP3    H248162   2.343   2.970  13.723  2.2908 -2.8032  0.8387
 8891TIP3   OH248163   3.644   1.434   3.162  0.0090  0.2430 -0.5727
 8891TIP3    H148164   3.723   1.449   3.110  0.5190  2.4667  0.7135
 8891TIP3    H248165   3.652   1.495   3.235 -2.0845 -0.7198  0.5478
 8892TIP3   OH248166   0.313   0.289  14.411  0.0072  0.3024 -0.0161
 8892TIP3    H148167   0.301   0.374  14.369  0.6172 -0.1801 -1.2257
 8892TIP3    H248168   0.391   0.300  14.466  0.6413  0.2757 -0.8943
 8893TIP3   OH248169   3.698   6.322  13.853 -0.1397 -0.1997  0.3287
 8893TIP3    H148170   3.622   6.339  13.908 -1.0049  0.7676 -1.0833
 8893TIP3    H248171   3.691   6.229  13.831  0.4294 -0.6944  2.0835
 8894TIP3   OH248172   4.076   0.860  14.048  0.2524 -0.5991  0.5908
 8894TIP3    H148173   4.164   0.874  14.081  0.8922 -3.8888  0.6295
 8894TIP3    H248174   4.019   0.873  14.125  0.7779  0.4042  0.8311
 8895TIP3   OH248175   1.767   0.811   2.422 -0.1291  0.0245 -0.3307
 8895TIP3    H148176   1.677   0.817   2.455  0.4716  2.0124  1.1534
 8895TIP3    H248177   1.821   0.810   2.500  1.2445  1.7081 -1.1935
 8896TIP3   OH248178   4.181   0.347   5.539 -0.4557  0.0198 -0.0027
 8896TIP3    H148179   4.235   0.419   5.508  0.4458  0.1781  1.8321
 8896TIP3    H248180   4.091   0.380   5.532 -0.2663  0.2713 -1.7279
 8897TIP3   OH248181   3.736   5.085  16.943  0.0617  0.4805  0.4344
 8897TIP3    H148182   3.796   5.011  16.946 -0.8207 -0.3372 -0.8316
 8897TIP3    H248183   3.688   5.081  17.026 -0.1184 -0.5074  0.2941
 8898TIP3   OH248184   3.718   2.724  11.311 -0.3588 -0.3488  0.4974
 8898TIP3    H148185   3.736   2.792  11.247 -1.6408 -0.4544 -0.0072
 8898TIP3    H248186   3.756   2.644  11.274 -0.2234 -0.2138  0.3483
 8899TIP3   OH248187   1.917   5.590   2.023  0.4766 -0.6075  0.6319
 8899TIP3    H148188   1.838   5.552   2.060 -0.0425  1.3564  1.6624
 8899TIP3    H248189   1.889   5.628   1.940  1.0392 -2.5531 -0.5000
 8900TIP3   OH248190   0.607   0.548  13.832  0.3913 -0.1093  0.4218
 8900TIP3    H148191   0.560   0.575  13.753 -0.9280 -2.9134  0.1222
 8900TIP3    H248192   0.538   0.536  13.897  1.2550  0.3285  1.4457
 8901TIP3   OH248193   1.354   4.550   4.454 -0.1078  0.4773  0.0391
 8901TIP3    H148194   1.334   4.630   4.502  1.3823 -0.3206  2.1362
 8901TIP3    H248195   1.291   4.485   4.485 -0.6863  0.5433 -0.9334
 8902TIP3   OH248196   1.861   5.788  14.253 -0.6550  0.0842 -0.1762
 8902TIP3    H148197   1.857   5.845  14.331  0.2683 -3.0950  2.4096
 8902TIP3    H248198   1.955   5.778  14.236 -0.8117 -0.4331 -0.7610
 8903TIP3   OH248199   6.450   3.903  12.404  0.1415  0.2074  0.0298
 8903TIP3    H148200   6.401   3.945  12.333 -0.9410 -1.3146 -0.1712
 8903TIP3    H248201   6.447   3.810  12.383  2.3643 -0.0277  0.5161
 8904TIP3   OH248202   1.764   5.641   0.224 -0.1283 -0.3237 -0.0921
 8904TIP3    H148203   1.689   5.694   0.194  0.2291  0.5549  0.5413
 8904TIP3    H248204   1.776   5.577   0.154 -0.5071  0.4938 -0.9380
 8905TIP3   OH248205   4.494   2.846  11.453 -0.1754 -0.3977  0.5336
 8905TIP3    H148206   4.555   2.872  11.523  1.9517  0.2340 -1.4373
 8905TIP3    H248207   4.477   2.753  11.470  0.2974 -0.2641  1.8865
 8906TIP3   OH248208   3.253   5.761   2.168  0.2571 -0.8157  0.0230
 8906TIP3    H148209   3.269   5.840   2.116  0.3260 -1.6696 -1.3174
 8906TIP3    H248210   3.167   5.732   2.139 -0.6424 -0.2013  1.9280
 8907TIP3   OH248211   5.171   5.244   0.059 -0.0727 -0.1593 -0.0786
 8907TIP3    H148212   5.130   5.329   0.045  1.0979  0.2777 -0.9960
 8907TIP3    H248213   5.210   5.250   0.146  1.2735  0.7998 -0.7203
 8908TIP3   OH248214   3.988   0.561   0.187  0.8795  0.3457 -0.4000
 8908TIP3    H148215   4.071   0.599   0.217  0.6431  0.6307 -0.1051
 8908TIP3    H248216   3.997   0.468   0.205  0.7531  0.5050  0.5409
 8909TIP3   OH248217   3.049   3.256  14.871 -0.2584 -0.1767  0.0840
 8909TIP3    H148218   3.072   3.318  14.940 -1.1468 -0.9103  1.0681
 8909TIP3    H248219   2.962   3.224  14.895 -1.0448  0.3001 -1.9211
 8910TIP3   OH248220   6.465   1.989   4.277  0.9808 -0.3485 -0.3788
 8910TIP3    H148221   6.474   1.941   4.195 -0.0025  0.5477 -1.0182
 8910TIP3    H248222   6.383   2.037   4.269  0.7921 -0.3560  1.1900
 8911TIP3   OH248223   3.884   4.842  11.122 -0.3064 -0.2664  0.9326
 8911TIP3    H148224   3.870   4.748  11.118  2.8214 -0.7961  0.3927
 8911TIP3    H248225   3.796   4.880  11.111 -2.0181 -3.0545  3.3548
 8912TIP3   OH248226   6.332   4.571  11.537 -0.1212  0.3737  0.2359
 8912TIP3    H148227   6.248   4.552  11.495  0.2567 -2.9853  0.7485
 8912TIP3    H248228   6.397   4.552  11.470  0.3178  0.0803  0.7404
 8913TIP3   OH248229   3.435   1.940  16.330  0.2281  0.2407  0.0562
 8913TIP3    H148230   3.375   1.890  16.384  1.0375  0.5532  1.2851
 8913TIP3    H248231   3.479   1.875  16.275  0.5954 -0.2968  0.9684
 8914TIP3   OH248232   3.946   1.169  11.127 -0.2855 -0.4523 -0.0723
 8914TIP3    H148233   3.982   1.085  11.156  0.1880 -0.8767 -1.7970
 8914TIP3    H248234   3.851   1.155  11.126 -0.2055 -0.9923 -0.4370
 8915TIP3   OH248235   4.410   4.456   3.098 -0.3269 -0.6556 -0.1168
 8915TIP3    H148236   4.352   4.417   3.164 -0.2742 -2.8018 -1.2727
 8915TIP3    H248237   4.368   4.437   3.014  0.2213  0.9664 -0.7994
 8916TIP3   OH248238   2.987   2.868   3.770  0.0036  0.2201 -0.6987
 8916TIP3    H148239   3.008   2.774   3.772  2.0618  0.6428 -0.2858
 8916TIP3    H248240   3.037   2.902   3.696  0.6386  1.2695  0.1813
 8917TIP3   OH248241   2.555   1.522   2.672 -0.6319  0.2573 -0.0115
 8917TIP3    H148242   2.616   1.503   2.743 -1.2330 -1.8311  0.0127
 8917TIP3    H248243   2.610   1.531   2.595 -0.2104 -1.0702  0.1063
 8918TIP3   OH248244   6.118   6.599   0.340  0.1624  0.5119 -0.3717
 8918TIP3    H148245   6.140   6.510   0.310  2.6517  1.2337 -0.9379
 8918TIP3    H248246   6.197   6.629   0.385 -0.1990  2.8202 -1.1500
 8919TIP3   OH248247   6.043   5.306  13.071 -0.0958  0.0971 -0.1904
 8919TIP3    H148248   5.957   5.295  13.110 -0.0584  0.7787  0.1036
 8919TIP3    H248249   6.092   5.357  13.136  0.6460 -0.5934 -0.1925
 8920TIP3   OH248250   4.766   5.831   1.284 -0.6610  0.2290  0.2760
 8920TIP3    H148251   4.689   5.797   1.329 -1.9573  2.6193  0.0358
 8920TIP3    H248252   4.839   5.783   1.322 -1.8859  0.5250  3.3486
 8921TIP3   OH248253   2.106   1.948  11.913  0.1340  0.3431  0.1028
 8921TIP3    H148254   2.170   1.999  11.962  1.6657 -1.9278  0.5995
 8921TIP3    H248255   2.078   1.880  11.974 -1.9378  0.5983 -0.4913
 8922TIP3   OH248256   6.141   1.625   4.685  0.5827 -0.5180 -0.0209
 8922TIP3    H148257   6.169   1.552   4.629  0.5988  0.9817 -2.1045
 8922TIP3    H248258   6.074   1.670   4.633 -1.2179 -0.4364  2.2493
 8923TIP3   OH248259   2.081   6.344  16.556  0.1092 -0.2054  0.2038
 8923TIP3    H148260   2.164   6.315  16.519 -0.3236  1.4517 -2.2207
 8923TIP3    H248261   2.015   6.293  16.509 -0.4352  1.7376 -1.2276
 8924TIP3   OH248262   6.605   0.635  11.048 -0.1671  0.0535  0.4800
 8924TIP3    H148263   6.604   0.731  11.047  0.9213  0.0858 -1.1475
 8924TIP3    H248264   6.512   0.611  11.051 -0.4737  1.1584  0.5039
 8925TIP3   OH248265   0.845   0.774   3.799 -0.0777 -0.1328  0.7392
 8925TIP3    H148266   0.814   0.714   3.732  1.9904 -0.0135 -0.4098
 8925TIP3    H248267   0.767   0.824   3.825 -0.9074 -0.0285 -1.7304
 8926TIP3   OH248268   6.142   4.119   5.731 -0.0117 -0.0938  0.4494
 8926TIP3    H148269   6.129   4.211   5.754  0.7450 -0.3963  2.1842
 8926TIP3    H248270   6.237   4.110   5.720 -0.2273 -0.1800 -2.1175
 8927TIP3   OH248271   1.811   4.527  12.493  0.4981  0.7509 -0.2274
 8927TIP3    H148272   1.880   4.539  12.427 -0.8903 -0.1552 -1.9283
 8927TIP3    H248273   1.753   4.603  12.481  0.6022  0.9503  0.4675
 8928TIP3   OH248274   0.601   5.814   0.760 -0.5883  0.0154  0.6632
 8928TIP3    H148275   0.694   5.800   0.778 -0.3619 -1.3759 -1.2846
 8928TIP3    H248276   0.560   5.814   0.847  1.1745  0.3290  1.5400
 8929TIP3   OH248277   3.853   5.834  14.582 -0.3646 -0.0791  0.4385
 8929TIP3    H148278   3.938   5.846  14.541 -0.9811  0.3480 -0.7777
 8929TIP3    H248279   3.821   5.751  14.547  0.0618 -0.8501  1.8432
 8930TIP3   OH248280   4.638   2.137   3.087 -0.1026 -0.0847 -0.2687
 8930TIP3    H148281   4.649   2.054   3.135 -1.8182  0.0765  0.4807
 8930TIP3    H248282   4.717   2.143   3.033 -0.0413 -2.3304 -0.5496
 8931TIP3   OH248283   1.590   1.892   0.323  0.0443 -0.6865 -0.1552
 8931TIP3    H148284   1.538   1.877   0.244 -0.1386 -1.2075  0.0631
 8931TIP3    H248285   1.542   1.846   0.392  1.1476 -1.7467 -0.0757
 8932TIP3   OH248286   6.008   2.772   4.789  0.3299 -0.2993  0.6750
 8932TIP3    H148287   5.959   2.702   4.745  0.2215  0.8687 -1.1956
 8932TIP3    H248288   6.096   2.767   4.751  0.5692  0.0346  1.1768
 8933TIP3   OH248289   2.777   4.208   2.144 -0.1582 -0.0407  0.2749
 8933TIP3    H148290   2.725   4.280   2.108 -0.8808  0.1319  1.5733
 8933TIP3    H248291   2.815   4.164   2.068 -1.1309  0.6504 -0.6337
 8934TIP3   OH248292   4.342   4.977  14.041  0.0744  0.2604  0.0939
 8934TIP3    H148293   4.437   4.987  14.037  0.2984 -1.6377 -0.4303
 8934TIP3    H248294   4.326   4.889  14.007 -2.0224  1.1352 -1.3925
 8935TIP3   OH248295   5.182   6.252  13.338 -0.1504 -0.0669  0.3892
 8935TIP3    H148296   5.258   6.198  13.316  0.6174  1.1763 -0.1050
 8935TIP3    H248297   5.108   6.193  13.328  0.6609 -1.0455 -0.1106
 8936TIP3   OH248298   3.365   0.873   0.292 -0.2472  0.1049  0.2537
 8936TIP3    H148299   3.284   0.856   0.244 -0.9041 -0.7258  1.5880
 8936TIP3    H248300   3.433   0.830   0.240 -0.9465 -0.8475  0.0894
 8937TIP3   OH248301   6.779   2.563   2.991 -0.0313  0.0796  0.4939
 8937TIP3    H148302   6.738   2.564   2.905  1.2945 -0.1285 -0.1525
 8937TIP3    H248303   6.722   2.508   3.044 -0.8969  0.2719 -0.2205
 8938TIP3   OH248304   3.284   5.268  13.532  0.1995  0.0433  0.4527
 8938TIP3    H148305   3.337   5.230  13.602  2.2897  0.2921 -0.9006
 8938TIP3    H248306   3.203   5.218  13.533  0.7682 -0.9153  2.0845
 8939TIP3   OH248307   2.086   0.781  16.146 -0.0562 -0.3237 -0.6766
 8939TIP3    H148308   2.085   0.720  16.220 -4.0455  0.8789  0.5303
 8939TIP3    H248309   2.044   0.734  16.075  1.4191 -0.5871 -1.4135
 8940TIP3   OH248310   1.639   6.393  16.749 -0.2269 -0.4503  0.0131
 8940TIP3    H148311   1.734   6.401  16.744 -0.4608  3.2342 -1.7027
 8940TIP3    H248312   1.618   6.423  16.838  0.1780 -1.5337  0.4947
 8941TIP3   OH248313   0.613   4.487   3.879 -0.0779 -0.5697 -0.1822
 8941TIP3    H148314   0.562   4.564   3.906  1.2666 -0.3060  1.8571
 8941TIP3    H248315   0.551   4.432   3.831 -1.2669  1.4247 -1.0397
 8942TIP3   OH248316   2.485   2.111  16.743  0.0035 -0.9042  0.2718
 8942TIP3    H148317   2.395   2.126  16.714  0.5367  0.3714 -0.7980
 8942TIP3    H248318   2.535   2.183  16.705  1.1887 -0.5602  2.3489
 8943TIP3   OH248319   0.245   2.582  14.843 -0.6064 -0.9021 -0.7269
 8943TIP3    H148320   0.313   2.636  14.802 -0.7385 -0.4982 -0.4112
 8943TIP3    H248321   0.237   2.617  14.932  1.0812 -3.0150  0.3534
 8944TIP3   OH248322   6.773   5.777  16.254 -0.0848 -0.2121 -0.2064
 8944TIP3    H148323   6.709   5.706  16.241  0.0647 -0.3856  0.0035
 8944TIP3    H248324   6.855   5.741  16.218  0.2575 -0.5688  0.9093
 8945TIP3   OH248325   6.022   2.395  16.874  0.0161  0.0251  0.2592
 8945TIP3    H148326   6.089   2.345  16.919  0.6710  1.0513  0.4694
 8945TIP3    H248327   5.965   2.428  16.943  0.0627  0.2381  0.1987
 8946TIP3   OH248328   6.315   4.239  12.078  0.4014  0.0602  0.3957
 8946TIP3    H148329   6.269   4.291  12.012 -1.3568 -1.6324  0.2063
 8946TIP3    H248330   6.375   4.184  12.027  0.0174 -0.2995  0.3348
 8947TIP3   OH248331   1.864   0.603  12.632  0.3627  0.5677  0.2570
 8947TIP3    H148332   1.773   0.613  12.657 -0.1984 -2.3076 -0.1851
 8947TIP3    H248333   1.890   0.520  12.671  2.1970  0.4022 -1.1746
 8948TIP3   OH248334   4.925   3.458   4.367  0.5489  0.2452  0.1500
 8948TIP3    H148335   4.877   3.389   4.322  2.7088 -1.3342  0.0986
 8948TIP3    H248336   4.936   3.526   4.301  0.3608 -0.3570 -0.5200
 8949TIP3   OH248337   0.012   1.835  13.854  0.1712  0.5516  0.2369
 8949TIP3    H148338  -0.023   1.848  13.765  0.3734 -0.4269  0.0046
 8949TIP3    H248339  -0.053   1.876  13.911  0.8211  2.6091 -0.4366
 8950TIP3   OH248340   2.400   3.964   0.101  0.0211 -0.3454 -0.4105
 8950TIP3    H148341   2.398   3.951   0.196 -2.7776 -0.8135 -0.4566
 8950TIP3    H248342   2.443   3.885   0.068  2.2495  0.4231  0.4736
 8951TIP3   OH248343   4.098   2.503  12.305 -0.2720 -0.0502  0.3642
 8951TIP3    H148344   4.080   2.494  12.399  0.2627 -2.4988  0.2986
 8951TIP3    H248345   4.156   2.579  12.299 -1.4285  1.0144  1.8127
 8952TIP3   OH248346   3.303   2.614   4.641 -0.0114  0.2470 -0.8169
 8952TIP3    H148347   3.293   2.681   4.574 -2.1429  1.1980  0.3652
 8952TIP3    H248348   3.362   2.653   4.706  0.4686  0.0959 -1.1519
 8953TIP3   OH248349   0.688   5.920   0.502 -0.1629  0.0848 -0.8026
 8953TIP3    H148350   0.639   5.868   0.566 -0.1931  1.3638  0.2619
 8953TIP3    H248351   0.620   5.965   0.451 -0.1407  0.7287 -0.2859
 8954TIP3   OH248352   5.903   5.852   5.287  0.4740 -0.1895  0.1013
 8954TIP3    H148353   5.912   5.936   5.243 -0.8585 -0.6246 -1.0707
 8954TIP3    H248354   5.808   5.840   5.297  0.6765 -1.0249  1.3129
 8955TIP3   OH248355   3.131   5.974  11.949  0.0124 -0.1112  0.0748
 8955TIP3    H148356   3.118   5.934  11.863  1.2825  0.0353 -0.2001
 8955TIP3    H248357   3.053   5.948  11.999 -1.0681  0.3252 -1.3015
 8956TIP3   OH248358   5.550   4.463   4.921 -0.2212  0.1632  0.1141
 8956TIP3    H148359   5.493   4.506   4.857 -1.2527 -2.3411 -0.7409
 8956TIP3    H248360   5.630   4.443   4.873  0.2901  1.0884  0.5347
 8957TIP3   OH248361   3.289   3.700   5.757 -0.3375 -0.1355  0.0411
 8957TIP3    H148362   3.311   3.687   5.850  0.6074 -0.0522 -0.1672
 8957TIP3    H248363   3.372   3.694   5.711 -0.6950  0.5451 -0.7290
 8958TIP3   OH248364   0.416   1.807   0.219  0.3818 -0.0359  0.0241
 8958TIP3    H148365   0.360   1.880   0.247  0.2456 -0.3802  0.6725
 8958TIP3    H248366   0.504   1.844   0.215  0.7871 -0.4721  3.0635
 8959TIP3   OH248367   3.830   0.411   2.282 -0.2006  0.2420 -0.6667
 8959TIP3    H148368   3.772   0.462   2.225 -0.5249  0.2416 -0.3436
 8959TIP3    H248369   3.789   0.325   2.286  0.3690 -0.0650 -1.2459
 8960TIP3   OH248370   2.894   5.039   3.899  0.2834  0.5352  0.0372
 8960TIP3    H148371   2.940   4.972   3.848  0.5794  0.8708 -0.1423
 8960TIP3    H248372   2.945   5.047   3.980  1.4622  1.9960 -0.7984
 8961TIP3   OH248373   2.358   1.972   2.490  0.0168 -0.4520 -0.0313
 8961TIP3    H148374   2.305   2.022   2.428  0.5308  0.2950  0.1187
 8961TIP3    H248375   2.423   2.035   2.522  2.0063 -1.6961 -1.3916
 8962TIP3   OH248376   4.191   0.594  11.926  0.0833  0.1147 -0.2455
 8962TIP3    H148377   4.237   0.537  11.989  1.2038  2.5733  1.3036
 8962TIP3    H248378   4.171   0.673  11.975  0.1183  1.7818 -2.7328
 8963TIP3   OH248379   1.308   5.616   3.811  0.5108 -0.3302 -0.6334
 8963TIP3    H148380   1.271   5.585   3.729 -0.2171  2.0686 -1.2898
 8963TIP3    H248381   1.233   5.627   3.869  1.0298 -2.1062  0.4483
 8964TIP3   OH248382   3.734   3.561  11.657  0.0607 -0.0567 -0.2080
 8964TIP3    H148383   3.647   3.589  11.687  0.6343  1.2244  0.3286
 8964TIP3    H248384   3.720   3.473  11.622 -1.7813  0.7521 -1.6825
 8965TIP3   OH248385   3.697   5.766   1.030  0.1442 -0.4063  0.2424
 8965TIP3    H148386   3.745   5.831   1.082  0.1952 -0.8535  0.7670
 8965TIP3    H248387   3.743   5.684   1.046  0.0615 -0.5840 -0.3952
 8966TIP3   OH248388   2.496   0.479  14.987 -0.3913 -0.7152  0.0950
 8966TIP3    H148389   2.538   0.441  15.064  0.1142 -0.8329 -0.2335
 8966TIP3    H248390   2.530   0.428  14.914  2.2900  1.8694 -0.6585
 8967TIP3   OH248391   5.518   6.310  15.537 -0.3364  0.1525 -0.2981
 8967TIP3    H148392   5.473   6.386  15.500  1.7187  2.0404  0.8296
 8967TIP3    H248393   5.585   6.288  15.472 -0.6525 -0.4383 -0.4279
 8968TIP3   OH248394   0.363   4.824   0.263  0.4574 -0.0684 -0.0842
 8968TIP3    H148395   0.429   4.885   0.232  1.1030 -0.3525  0.6886
 8968TIP3    H248396   0.393   4.739   0.233  0.4626 -0.2021  0.2975
 8969TIP3   OH248397   6.355   2.103   4.952  0.0326  0.2641 -0.1747
 8969TIP3    H148398   6.381   2.195   4.941 -0.8734  0.5723  0.2039
 8969TIP3    H248399   6.261   2.103   4.939  0.0294 -0.6188 -0.1716
 8970TIP3   OH248400   1.737   1.187  12.127 -0.0799 -0.0505 -0.2540
 8970TIP3    H148401   1.780   1.180  12.212 -0.4866  0.1854 -0.0234
 8970TIP3    H248402   1.715   1.280  12.119  0.7007  0.0767 -0.9908
 8971TIP3   OH248403   3.269   6.375  10.579 -0.4260  0.2320 -0.1523
 8971TIP3    H148404   3.351   6.381  10.628 -0.6195  1.2962  0.0821
 8971TIP3    H248405   3.201   6.364  10.647 -0.5976  0.6913 -0.2464
 8972TIP3   OH248406   0.542   6.227  14.552  0.3635  0.4241 -0.6262
 8972TIP3    H148407   0.563   6.320  14.547 -1.4014  0.9082  0.4113
 8972TIP3    H248408   0.483   6.219  14.626 -0.2888 -1.3919 -1.2832
 8973TIP3   OH248409   6.666   0.459   4.275 -0.1285 -0.0497 -0.0316
 8973TIP3    H148410   6.699   0.514   4.205 -0.4084 -1.4694 -1.3300
 8973TIP3    H248411   6.572   0.454   4.260 -0.3232  0.2842  0.9508
 8974TIP3   OH248412   2.547   6.555   0.260 -0.2707 -0.2221 -0.2837
 8974TIP3    H148413   2.498   6.589   0.186  0.1709 -0.3025 -0.6150
 8974TIP3    H248414   2.540   6.623   0.327 -1.9934 -0.8182  0.1820
 8975TIP3   OH248415   0.571   3.914   2.610  0.2772  0.1802  0.0528
 8975TIP3    H148416   0.661   3.882   2.612 -0.4387 -2.0303 -0.3947
 8975TIP3    H248417   0.559   3.958   2.695  2.0966  1.6156 -0.3788
 8976TIP3   OH248418   2.145   6.474   1.526 -0.1433  0.0880 -0.3297
 8976TIP3    H148419   2.088   6.541   1.563 -0.1586  0.1426 -0.4510
 8976TIP3    H248420   2.233   6.502   1.551 -0.0993  0.4811 -0.8819
 8977TIP3   OH248421   6.355   0.100   0.586  0.0877  0.1378  0.3919
 8977TIP3    H148422   6.369   0.173   0.526  1.3745 -0.0680  0.4119
 8977TIP3    H248423   6.351   0.140   0.673 -0.0080  0.2609  0.3306
 8978TIP3   OH248424   1.812   1.785   1.410 -0.2710  0.0194 -0.6170
 8978TIP3    H148425   1.895   1.746   1.382 -0.1723  0.0169 -0.3167
 8978TIP3    H248426   1.834   1.838   1.486 -0.8438 -1.5453  0.7127
 8979TIP3   OH248427   3.076   3.654  13.822  0.0214  0.2793  0.7576
 8979TIP3    H148428   3.109   3.725  13.767 -1.2603  1.3787  1.3321
 8979TIP3    H248429   3.111   3.574  13.783 -0.4575  1.0412 -1.3697
 8980TIP3   OH248430   6.505   0.980  14.203  0.1785 -0.0995 -0.7113
 8980TIP3    H148431   6.594   0.949  14.187  0.2907 -1.1159  1.4873
 8980TIP3    H248432   6.513   1.075  14.204  1.8864 -0.1626  2.1963
 8981TIP3   OH248433   6.528   5.843   2.810 -0.5441  0.2521 -0.1637
 8981TIP3    H148434   6.595   5.785   2.775 -0.7681 -0.2775  0.2663
 8981TIP3    H248435   6.452   5.828   2.753 -0.6744 -0.0530  0.0877
 8982TIP3   OH248436   1.040   1.992  12.159  0.0366 -0.5673  0.0984
 8982TIP3    H148437   1.060   2.062  12.096 -0.8390 -0.4094 -0.0209
 8982TIP3    H248438   1.033   1.913  12.105 -0.7144 -0.4318 -0.0208
 8983TIP3   OH248439   0.694   6.609  11.935 -0.0801  0.6784  0.9659
 8983TIP3    H148440   0.762   6.587  11.871 -0.4731  2.9985 -0.3404
 8983TIP3    H248441   0.673   6.525  11.976 -0.9356 -1.3294 -3.0568
 8984TIP3   OH248442   4.483   3.716  13.036 -0.4160  0.2301 -0.2080
 8984TIP3    H148443   4.462   3.622  13.039  0.8719 -0.0711  0.1424
 8984TIP3    H248444   4.414   3.757  13.087 -0.1533 -0.7244  0.9697
 8985TIP3   OH248445   5.122   3.719  15.114  0.1753 -0.2364 -0.3912
 8985TIP3    H148446   5.062   3.770  15.060  0.2381  0.5472  0.2584
 8985TIP3    H248447   5.209   3.752  15.092  0.1328  0.8695  0.9408
 8986TIP3   OH248448   2.930   3.786  11.752 -0.1759 -0.1171 -0.7588
 8986TIP3    H148449   2.859   3.841  11.784 -0.5656 -0.8658 -0.3086
 8986TIP3    H248450   2.911   3.773  11.659 -0.9437 -0.7617 -0.5255
 8987TIP3   OH248451   1.664   4.545  16.906  0.2748 -0.2733 -0.3165
 8987TIP3    H148452   1.740   4.598  16.883 -0.2886 -0.2177 -2.2580
 8987TIP3    H248453   1.695   4.455  16.901  0.7802 -0.2124  1.2318
 8988TIP3   OH248454   6.336   1.900   0.971  0.2208 -0.3960  0.2267
 8988TIP3    H148455   6.366   1.974   0.918  1.3576 -1.8109 -1.2072
 8988TIP3    H248456   6.274   1.938   1.033 -0.3411  1.5096 -1.4111
 8989TIP3   OH248457   3.904   3.932  11.974 -0.0057  0.0325  0.5075
 8989TIP3    H148458   3.958   3.959  12.048  1.0314 -0.5277 -0.0189
 8989TIP3    H248459   3.856   4.011  11.950  0.1039  0.3797  1.3941
 8990TIP3   OH248460   5.956   4.182  15.422 -0.2120 -0.3238 -0.2308
 8990TIP3    H148461   5.929   4.179  15.514 -1.0078  0.4494 -0.4234
 8990TIP3    H248462   5.874   4.193  15.373  0.0953 -1.6432 -1.1123
 8991TIP3   OH248463   2.099   3.990  12.527 -0.3265  0.3538 -0.4907
 8991TIP3    H148464   2.090   3.907  12.481 -0.1527  0.4755 -0.7472
 8991TIP3    H248465   2.129   3.966  12.615  1.8441  0.2498 -1.1997
 8992TIP3   OH248466   5.735   1.669   0.952  0.3411  0.1652 -0.0278
 8992TIP3    H148467   5.748   1.763   0.965  0.4279  0.3416 -1.2803
 8992TIP3    H248468   5.780   1.650   0.870 -2.3239 -0.3463 -1.4615
 8993TIP3   OH248469   0.797   0.127   2.343 -0.2982 -0.3939 -0.0385
 8993TIP3    H148470   0.840   0.049   2.378 -0.1297 -0.0480  0.5392
 8993TIP3    H248471   0.721   0.140   2.401 -0.3487 -0.1555 -0.1575
 8994TIP3   OH248472   0.471   6.478  14.363 -0.2735 -0.3431  0.0846
 8994TIP3    H148473   0.475   6.567  14.326 -1.0730 -0.9728 -1.6122
 8994TIP3    H248474   0.542   6.431  14.319 -2.5103 -1.6740 -2.4026
 8995TIP3   OH248475   2.869   4.481  13.334  0.2275 -0.0596 -0.0260
 8995TIP3    H148476   2.932   4.437  13.390  0.1653 -3.2470 -2.2139
 8995TIP3    H248477   2.919   4.552  13.293  1.6295 -0.7837  0.3627
 8996TIP3   OH248478   3.129   2.986   2.976 -0.8285 -0.2281  0.2185
 8996TIP3    H148479   3.158   2.913   3.031 -1.0311 -0.4388  0.0485
 8996TIP3    H248480   3.093   3.050   3.038  0.0130  0.0521  0.4359
 8997TIP3   OH248481   2.407   1.988   4.418  0.1835  0.6716 -0.4486
 8997TIP3    H148482   2.410   1.893   4.425 -0.3384  0.7183  0.6047
 8997TIP3    H248483   2.319   2.011   4.446  0.7439  1.5525  0.6875
 8998TIP3   OH248484   0.508   1.562   1.073  0.4295  0.0063 -0.2289
 8998TIP3    H148485   0.427   1.562   1.123 -0.6197  2.6797 -1.7411
 8998TIP3    H248486   0.566   1.622   1.119 -0.3583  2.0778 -1.7922
 8999TIP3   OH248487   5.184   6.504  16.735 -0.1686 -0.6125 -0.0843
 8999TIP3    H148488   5.163   6.441  16.805 -1.1554 -0.5518 -0.3082
 8999TIP3    H248489   5.276   6.525  16.749  0.3195 -2.4283 -0.2453
 9000TIP3   OH248490   2.062   4.130  15.037 -0.1974  0.2281 -0.3843
 9000TIP3    H148491   1.998   4.189  14.997 -0.2780  0.4468  0.0602
 9000TIP3    H248492   2.093   4.177  15.115 -0.3652 -0.3724  0.0527
 9001TIP3   OH248493   3.338   2.448  11.753 -0.2070  0.1578 -0.5832
 9001TIP3    H148494   3.327   2.516  11.687 -1.1412  1.4641  0.8282
 9001TIP3    H248495   3.431   2.453  11.777 -0.0360  0.2003 -1.2360
 9002TIP3   OH248496   6.361   0.134   1.510 -0.0081 -0.3946 -0.2299
 9002TIP3    H148497   6.438   0.080   1.528  0.4747 -0.6441 -2.6775
 9002TIP3    H248498   6.304   0.077   1.458 -1.3339  0.1825  0.5533
 9003TIP3   OH248499   5.911   4.479  13.766 -0.2705 -0.0705 -0.7018
 9003TIP3    H148500   5.823   4.480  13.727  0.1672  0.8251 -1.7218
 9003TIP3    H248501   5.935   4.571  13.773  0.4353 -0.2927 -0.0433
 9004TIP3   OH248502   1.125   2.966  11.404  0.0005  0.5124  0.0768
 9004TIP3    H148503   1.069   2.892  11.423  0.3806  0.5018  1.2316
 9004TIP3    H248504   1.072   3.023  11.348 -0.5806 -0.2316 -0.1419
 9005TIP3   OH248505   6.178   0.675  11.035  0.6335  0.5809  0.4143
 9005TIP3    H148506   6.193   0.718  10.951  0.7309  1.9749  1.1203
 9005TIP3    H248507   6.139   0.743  11.090  1.1210 -0.1415  1.6833
 9006TIP3   OH248508   6.721   0.926  17.042 -0.0860  0.3529 -0.1784
 9006TIP3    H148509   6.756   0.992  17.101 -1.8257  2.4843 -1.3446
 9006TIP3    H248510   6.628   0.920  17.065  0.0566 -1.9838  0.0741
 9007TIP3   OH248511   1.546   5.705  15.929  0.5156 -0.2492 -0.1473
 9007TIP3    H148512   1.634   5.686  15.896  0.8421  2.5236 -1.1564
 9007TIP3    H248513   1.560   5.742  16.016  0.4366  0.7414 -0.5428
 9008TIP3   OH248514   0.073   0.468   2.921  0.3540 -0.3744  0.2861
 9008TIP3    H148515   0.149   0.423   2.955  0.9585  1.1861  1.1162
 9008TIP3    H248516   0.094   0.485   2.829 -0.1029 -2.1461 -0.1838
 9009TIP3   OH248517   5.481   6.209   3.705  0.0459  0.6483  0.0317
 9009TIP3    H148518   5.483   6.163   3.620  0.3177  0.5444  0.0932
 9009TIP3    H248519   5.515   6.296   3.685 -1.2653  1.1141 -0.2541
 9010TIP3   OH248520   0.609   3.681   4.828 -0.1366  0.5012 -0.7399
 9010TIP3    H148521   0.528   3.700   4.875  0.6225 -0.9373  1.2720
 9010TIP3    H248522   0.678   3.718   4.883  0.7416 -0.6768 -1.0160
 9011TIP3   OH248523   6.450   5.127   3.326  0.4310 -0.2301  0.4885
 9011TIP3    H148524   6.490   5.153   3.408 -0.5193 -1.9875  1.5824
 9011TIP3    H248525   6.445   5.031   3.331 -2.0107 -0.2271 -0.4416
 9012TIP3   OH248526   5.003   2.439   0.435  0.4888 -0.2439  0.3034
 9012TIP3    H148527   5.013   2.523   0.390 -0.9682  0.6217  1.5211
 9012TIP3    H248528   5.046   2.452   0.520  0.7849 -0.9470  0.2688
 9013TIP3   OH248529   1.832   1.727   2.661 -0.0063  0.5005  0.0320
 9013TIP3    H148530   1.926   1.711   2.664 -0.0816 -0.6108 -1.8701
 9013TIP3    H248531   1.793   1.655   2.710  0.1337  1.4682  1.6272
 9014TIP3   OH248532   6.364   2.168  13.159  0.1309  0.4582  0.2913
 9014TIP3    H148533   6.412   2.251  13.153  0.7836  0.0512 -0.3978
 9014TIP3    H248534   6.417   2.107  13.108 -1.2917  0.0584 -0.7846
 9015TIP3   OH248535   2.749   6.812  12.275  0.1348  0.4113  0.5682
 9015TIP3    H148536   2.740   6.901  12.309  0.0749  0.4262  0.5139
 9015TIP3    H248537   2.679   6.763  12.319  1.3594 -0.0599  2.0692
 9016TIP3   OH248538   3.279   2.792   5.299 -0.0014 -0.0891 -0.3004
 9016TIP3    H148539   3.251   2.883   5.301  0.6886  0.1621 -1.2921
 9016TIP3    H248540   3.361   2.793   5.250  0.1845 -1.2045 -0.0466
 9017TIP3   OH248541   1.263   4.412  16.425  0.1335  0.1531 -0.1970
 9017TIP3    H148542   1.350   4.393  16.388  0.4137  1.0545 -0.0250
 9017TIP3    H248543   1.245   4.502  16.398 -0.3603  0.2792  0.5262
 9018TIP3   OH248544   5.361   3.012   4.892  0.4968 -0.0409  0.0224
 9018TIP3    H148545   5.435   2.952   4.906  1.2463  0.4600 -1.5371
 9018TIP3    H248546   5.320   2.981   4.811  0.0810  0.7427 -0.0798
 9019TIP3   OH248547   1.652   1.205   5.232  0.3576  0.1213  0.0974
 9019TIP3    H148548   1.718   1.274   5.243 -0.6631  1.4901 -1.9023
 9019TIP3    H248549   1.687   1.150   5.161 -1.3088  1.8036 -2.1388
 9020TIP3   OH248550   2.361   1.871  15.716  0.4270 -0.3729  0.0086
 9020TIP3    H148551   2.326   1.927  15.647  0.2821  0.3664  0.6719
 9020TIP3    H248552   2.400   1.797  15.669  0.6789  0.3077 -0.8901
 9021TIP3   OH248553   2.503   3.130  12.320  0.2984  0.4883  0.6924
 9021TIP3    H148554   2.488   3.066  12.390 -0.5510  1.0493  1.0460
 9021TIP3    H248555   2.465   3.089  12.242  1.2427 -0.1373  0.5503
 9022TIP3   OH248556   6.703   0.079  11.938 -0.3028  0.2962  0.6698
 9022TIP3    H148557   6.772   0.032  11.984  1.0179  1.3736 -0.1380
 9022TIP3    H248558   6.732   0.171  11.938 -0.4095  0.4083 -1.9043
 9023TIP3   OH248559   5.928   6.749  10.910  0.5967 -0.1609  0.6598
 9023TIP3    H148560   5.964   6.668  10.872 -2.3216 -1.7269  0.9209
 9023TIP3    H248561   5.911   6.805  10.834 -1.4057 -1.6305 -0.0682
 9024TIP3   OH248562   4.841   0.056   1.399 -0.3165 -0.2529  0.8128
 9024TIP3    H148563   4.926   0.038   1.357 -0.2531  0.3688  0.6772
 9024TIP3    H248564   4.825   0.148   1.383 -0.9063 -0.3101  1.0593
 9025TIP3   OH248565   5.270   5.180  12.337  0.0297 -0.1390 -0.6151
 9025TIP3    H148566   5.352   5.145  12.301 -0.4317 -1.2240 -0.6398
 9025TIP3    H248567   5.263   5.267  12.298  0.4648 -0.5809 -1.7448
 9026TIP3   OH248568   1.928   5.314  13.676 -0.1935  0.4222  0.2264
 9026TIP3    H148569   1.896   5.245  13.618 -0.5894  0.5332  0.3045
 9026TIP3    H248570   1.932   5.273  13.762  1.8080 -0.1711 -0.1077
 9027TIP3   OH248571   3.715   4.375   5.595 -0.0061 -0.1946 -0.1775
 9027TIP3    H148572   3.799   4.420   5.600  0.7999 -1.6633  0.1621
 9027TIP3    H248573   3.696   4.350   5.686 -0.8192  0.1436 -0.2496
 9028TIP3   OH248574   3.623   1.929   5.264 -0.6545  0.1981 -0.4366
 9028TIP3    H148575   3.554   1.877   5.223 -1.8166  0.8494  0.6323
 9028TIP3    H248576   3.703   1.900   5.221 -1.6858  0.1450 -2.4400
 9029TIP3   OH248577   0.567   6.411   4.744  0.4434  0.4428  0.0817
 9029TIP3    H148578   0.532   6.420   4.655  0.0344  1.1753  0.3113
 9029TIP3    H248579   0.638   6.347   4.735  0.8636  1.0226 -0.9032
 9030TIP3   OH248580   2.335   1.336   4.730  0.0892 -0.1604  0.0217
 9030TIP3    H148581   2.320   1.242   4.734  0.4659 -0.2409 -0.4606
 9030TIP3    H248582   2.283   1.371   4.803  2.2816 -1.0157  2.1254
 9031TIP3   OH248583   4.304   0.083   1.786  0.7405 -0.4657  0.2558
 9031TIP3    H148584   4.327   0.153   1.726  3.3771 -0.3748  1.2310
 9031TIP3    H248585   4.232   0.118   1.838  0.2499  0.4695 -0.9951
 9032TIP3   OH248586   1.584   3.385   1.558  0.1843  0.9968 -0.1778
 9032TIP3    H148587   1.564   3.478   1.558 -2.0592  0.5722  0.4001
 9032TIP3    H248588   1.510   3.344   1.512  0.0725 -0.6597  1.3638
 9033TIP3   OH248589   0.774   3.065  16.882  0.0545 -0.3884  0.3786
 9033TIP3    H148590   0.687   3.098  16.905  0.3465  0.2194  0.6177
 9033TIP3    H248591   0.757   2.985  16.832 -0.6256 -0.7327  1.1382
 9034TIP3   OH248592   4.343   3.538  14.914 -0.0681  0.2398  0.0494
 9034TIP3    H148593   4.309   3.509  14.829 -0.2403 -0.6701  0.4111
 9034TIP3    H248594   4.311   3.628  14.923 -0.0894  0.3291 -0.8227
 9035TIP3   OH248595   5.333   5.168   0.636  0.4239  0.2793 -0.6348
 9035TIP3    H148596   5.262   5.153   0.573 -0.3840 -0.7583  0.4751
 9035TIP3    H248597   5.297   5.232   0.698 -0.0891 -1.2676  0.7180
 9036TIP3   OH248598   4.139   4.003   1.359 -0.0337 -0.1988  0.2440
 9036TIP3    H148599   4.166   3.915   1.386 -1.1652 -1.2916 -1.9261
 9036TIP3    H248600   4.093   4.038   1.435  0.5923 -1.3910  1.2135
 9037TIP3   OH248601   5.960   3.477  10.963  0.3117  0.0412 -0.6059
 9037TIP3    H148602   5.909   3.492  11.042  0.0811 -0.2108 -0.7027
 9037TIP3    H248603   5.896   3.448  10.898  0.6112 -0.5505 -0.6508
 9038TIP3   OH248604   1.926   6.425   5.701 -0.3613 -0.5437  0.3246
 9038TIP3    H148605   1.880   6.452   5.781 -1.2310 -1.2389  0.0832
 9038TIP3    H248606   1.961   6.506   5.665 -0.7858 -0.0898  0.9077
 9039TIP3   OH248607   1.341   0.617  12.057  0.0056  0.2769 -0.0024
 9039TIP3    H148608   1.401   0.689  12.076  0.3395  0.0862 -0.3234
 9039TIP3    H248609   1.254   0.657  12.057  0.2739  0.8923 -1.2127
 9040TIP3   OH248610   1.713   1.565   3.441 -0.2711 -0.1290 -0.4229
 9040TIP3    H148611   1.661   1.606   3.373  1.0183 -0.3415 -1.5802
 9040TIP3    H248612   1.792   1.618   3.447  0.5391 -1.2717 -0.5361
 9041TIP3   OH248613   0.478   2.812   2.117 -0.0238  0.2535  0.4599
 9041TIP3    H148614   0.555   2.861   2.148 -0.6807  1.1333  0.7648
 9041TIP3    H248615   0.513   2.731   2.082  1.2682  1.4733 -1.2671
 9042TIP3   OH248616   2.112   1.934  15.814 -0.2311  0.1908 -0.1072
 9042TIP3    H148617   2.035   1.905  15.765 -0.3759 -2.0184  1.3034
 9042TIP3    H248618   2.186   1.896  15.767 -0.1237  0.6160 -0.2951
 9043TIP3   OH248619   5.596   6.270  14.202  0.0792  0.5453 -0.2301
 9043TIP3    H148620   5.539   6.300  14.273 -1.8932 -2.2356 -0.4879
 9043TIP3    H248621   5.539   6.264  14.126  1.3573  0.2068 -1.1978
 9044TIP3   OH248622   1.176   5.269   6.338 -0.2075 -0.6276 -0.1820
 9044TIP3    H148623   1.120   5.320   6.279  1.3645  1.4067 -0.0049
 9044TIP3    H248624   1.156   5.302   6.425  2.4417  1.5255 -0.2429
 9045TIP3   OH248625   4.446   5.813   5.823  0.1401  0.0550 -1.0114
 9045TIP3    H148626   4.536   5.825   5.854 -1.0528  1.3512  2.4226
 9045TIP3    H248627   4.426   5.722   5.841  0.6735 -0.1727 -1.5517
 9046TIP3   OH248628   0.916   1.791  15.333 -0.4036  0.3134  0.8457
 9046TIP3    H148629   0.924   1.882  15.360 -0.2718  0.5014  0.1808
 9046TIP3    H248630   0.825   1.768  15.353 -0.0068  0.0584  2.5989
 9047TIP3   OH248631   6.011   6.778   5.937  0.1361 -0.4546  0.0628
 9047TIP3    H148632   6.065   6.843   5.891  0.1332 -1.8846 -2.1382
 9047TIP3    H248633   6.062   6.755   6.014  0.2125  1.9778  0.8151
 9048TIP3   OH248634   2.758   0.359  16.701 -0.0130 -0.0620 -0.4005
 9048TIP3    H148635   2.761   0.420  16.774  2.2381  0.7087 -1.0776
 9048TIP3    H248636   2.845   0.320  16.697 -0.6232 -1.4534 -1.5682
 9049TIP3   OH248637   3.451   0.418   4.999 -0.4441  0.7105  0.0233
 9049TIP3    H148638   3.526   0.455   5.046 -0.7989  0.8225  0.5121
 9049TIP3    H248639   3.374   0.448   5.049 -0.7417 -0.6713  0.4378
 9050TIP3   OH248640   3.615   4.229  12.162  0.5288  0.6802  0.1631
 9050TIP3    H148641   3.546   4.170  12.133  0.0750  0.4613  1.6308
 9050TIP3    H248642   3.608   4.305  12.103 -1.3066  0.8900  0.5912
 9051TIP3   OH248643   6.159   0.813   0.350  0.1589  0.1636 -0.2953
 9051TIP3    H148644   6.152   0.896   0.396  0.0434 -0.1792  0.3098
 9051TIP3    H248645   6.104   0.752   0.399  0.1772 -0.2557 -0.7757
 9052TIP3   OH248646   0.846   3.407  14.926  0.5438 -0.3646  0.2607
 9052TIP3    H148647   0.755   3.380  14.942 -0.1076  1.5767  0.0967
 9052TIP3    H248648   0.884   3.335  14.875 -0.3152 -2.0678  1.9039
 9053TIP3   OH248649   4.455   0.790  15.432  0.3591 -0.4163 -0.3399
 9053TIP3    H148650   4.458   0.696  15.451 -0.7492 -0.4473 -0.2568
 9053TIP3    H248651   4.363   0.814  15.442  0.8039  0.9534  0.8967
 9054TIP3   OH248652   6.514   0.487  11.381  0.4370 -0.6466 -0.0186
 9054TIP3    H148653   6.577   0.417  11.362  0.7135 -0.6297  0.7960
 9054TIP3    H248654   6.440   0.469  11.323  1.2977 -0.5008 -1.2042
 9055TIP3   OH248655   2.324   3.564  14.193  0.2205 -0.1803 -0.0313
 9055TIP3    H148656   2.277   3.494  14.148 -0.2029 -1.0038  1.6431
 9055TIP3    H248657   2.256   3.626  14.219  0.2750 -0.4640  0.7977
 9056TIP3   OH248658   2.120   5.532  14.688  0.0573 -0.0012 -1.3002
 9056TIP3    H148659   2.046   5.588  14.706  0.0914 -0.6102  0.9540
 9056TIP3    H248660   2.102   5.495  14.601 -0.6268  2.3433 -2.2197
 9057TIP3   OH248661   6.598   5.820   4.333 -0.4364 -0.0117 -0.2778
 9057TIP3    H148662   6.564   5.900   4.373 -3.9328 -0.8983 -1.0924
 9057TIP3    H248663   6.610   5.842   4.241  0.7899  0.1422 -0.0950
 9058TIP3   OH248664   6.372   2.011  17.271  0.2780  0.4455 -0.3170
 9058TIP3    H148665   6.295   2.063  17.293  0.2570 -0.0971  0.9948
 9058TIP3    H248666   6.442   2.075  17.262 -0.2695  0.9230 -1.3135
 9059TIP3   OH248667   4.593   4.516  15.967  0.1627  0.3454 -0.2426
 9059TIP3    H148668   4.612   4.423  15.949  1.9396  0.3014  1.5084
 9059TIP3    H248669   4.644   4.563  15.901  2.4918  0.0893  1.2542
 9060TIP3   OH248670   4.820   3.159   3.904 -0.0746  0.6856  0.5489
 9060TIP3    H148671   4.824   3.241   3.855 -2.4612 -0.1965 -1.3663
 9060TIP3    H248672   4.729   3.129   3.893  0.6255 -2.0629  1.3812
 9061TIP3   OH248673   1.120   3.527  15.641  0.4935  0.2419 -0.2879
 9061TIP3    H148674   1.047   3.573  15.683  0.8640 -0.1786  0.8428
 9061TIP3    H248675   1.185   3.596  15.625  0.5346  0.3313  0.2468
 9062TIP3   OH248676   1.450   0.289   3.406 -0.0718  0.0068 -0.4846
 9062TIP3    H148677   1.519   0.353   3.385  0.4109 -0.3927 -0.1373
 9062TIP3    H248678   1.495   0.205   3.406 -0.6308 -0.2941 -0.5637
 9063TIP3   OH248679   0.977   0.808   2.133 -0.2874  1.0592 -0.4878
 9063TIP3    H148680   0.950   0.756   2.209 -1.9857  2.5328 -0.0134
 9063TIP3    H248681   1.029   0.880   2.171 -0.7026  1.5080 -0.7622
 9064TIP3   OH248682   4.619   3.115  13.105  0.5474 -0.0272  0.4307
 9064TIP3    H148683   4.523   3.118  13.100  0.5650  0.9070  0.4943
 9064TIP3    H248684   4.649   3.143  13.019  0.7621  1.7163  1.0377
 9065TIP3   OH248685   4.014   0.768   3.682 -0.1082 -0.3182 -0.0205
 9065TIP3    H148686   4.070   0.754   3.605  0.6956  1.1135  0.2501
 9065TIP3    H248687   4.043   0.702   3.745 -1.0051 -1.7288 -1.0362
 9066TIP3   OH248688   1.584   4.999  11.232 -0.1975  0.2081  0.4054
 9066TIP3    H148689   1.511   4.943  11.258 -1.0115  0.3293 -1.4523
 9066TIP3    H248690   1.577   5.004  11.137  2.5786 -0.2146  0.0977
 9067TIP3   OH248691   1.505   6.000  16.431 -0.2318  0.2452  0.1907
 9067TIP3    H148692   1.436   5.993  16.497  0.5198 -0.1911  0.9654
 9067TIP3    H248693   1.544   6.086  16.447  0.1592  0.0085  0.5462
 9068TIP3   OH248694   5.076   5.371   1.298  0.2488 -0.4149  0.3275
 9068TIP3    H148695   5.169   5.357   1.317  0.3014 -0.1783  0.2500
 9068TIP3    H248696   5.069   5.362   1.203 -0.1287 -2.2665  0.4867
 9069TIP3   OH248697   1.013   2.253  11.220  0.0083  0.5517 -0.2023
 9069TIP3    H148698   1.055   2.316  11.161  2.4959 -0.1238  0.7006
 9069TIP3    H248699   1.013   2.297  11.305  0.3860 -0.0660  0.1284
 9070TIP3   OH248700   2.983   2.575   5.851  0.5136  0.2330 -0.0820
 9070TIP3    H148701   2.892   2.575   5.821  0.4372  1.4405  0.0675
 9070TIP3    H248702   2.978   2.611   5.940  1.1291  0.2931 -0.0718
 9071TIP3   OH248703   1.784   3.308   4.514  0.3479 -0.6343  0.2169
 9071TIP3    H148704   1.822   3.396   4.511 -1.8222  0.3327 -0.6781
 9071TIP3    H248705   1.823   3.262   4.439  2.4237 -0.9195  1.3878
 9072TIP3   OH248706   1.451   5.419  14.422 -0.4929 -0.5655  0.1066
 9072TIP3    H148707   1.389   5.347  14.432 -1.1227 -0.1493 -0.6975
 9072TIP3    H248708   1.405   5.483  14.368 -0.0184  0.5298  0.9570
 9073TIP3   OH248709   4.041   2.414   5.978  0.1221 -0.1292 -0.2502
 9073TIP3    H148710   3.980   2.460   6.034 -0.9697 -0.8604 -0.7955
 9073TIP3    H248711   4.040   2.463   5.895 -0.1634 -0.4588 -0.4460
 9074TIP3   OH248712   4.007   3.359  13.861  0.2600 -0.2780 -0.5783
 9074TIP3    H148713   4.067   3.425  13.896  0.5311  0.0434 -1.6045
 9074TIP3    H248714   4.049   3.276  13.881 -0.3140 -0.1982  1.1475
 9075TIP3   OH248715   5.477   2.580  15.841  0.0754 -0.3695  0.0679
 9075TIP3    H148716   5.450   2.507  15.897 -1.1424 -0.2087 -0.2814
 9075TIP3    H248717   5.401   2.638  15.840  0.9000  0.7437  0.0551
 9076TIP3   OH248718   3.199   6.592   5.401  0.0265  0.3718 -0.1471
 9076TIP3    H148719   3.272   6.615   5.458 -1.0027  2.4794  0.4049
 9076TIP3    H248720   3.202   6.496   5.396  1.7033  0.2943  1.3308
 9077TIP3   OH248721   5.063   6.299  15.171  0.3561  0.1627  0.4926
 9077TIP3    H148722   5.073   6.256  15.086 -0.7874 -0.4435  0.6405
 9077TIP3    H248723   5.009   6.239  15.222  0.8737  0.6027  1.6006
 9078TIP3   OH248724   4.195   1.102   1.099 -0.1840  0.5300 -0.0427
 9078TIP3    H148725   4.272   1.102   1.042 -1.0750  0.5590 -1.2795
 9078TIP3    H248726   4.196   1.015   1.140 -0.0542  0.1315 -0.8603
 9079TIP3   OH248727   6.816   5.155   2.206 -0.3802 -0.2754 -0.3379
 9079TIP3    H148728   6.733   5.138   2.162  0.0542 -0.0011 -1.2927
 9079TIP3    H248729   6.881   5.154   2.135  0.8484 -3.2013  0.6990
 9080TIP3   OH248730   6.637   4.179   0.842 -0.1315  0.2598 -0.1792
 9080TIP3    H148731   6.695   4.103   0.849  0.1803  0.3987 -1.0956
 9080TIP3    H248732   6.641   4.203   0.750 -0.7655  0.9725 -0.0257
 9081TIP3   OH248733   1.343   1.131   5.791  0.1741 -0.2288 -0.6766
 9081TIP3    H148734   1.343   1.213   5.741 -2.6998 -1.2614 -2.6979
 9081TIP3    H248735   1.256   1.128   5.831 -0.3453 -2.8458 -1.8107
 9082TIP3   OH248736   1.751   2.507   3.874 -0.8436  0.2277  0.2012
 9082TIP3    H148737   1.833   2.457   3.877 -1.2190 -0.3874  0.4609
 9082TIP3    H248738   1.695   2.456   3.816 -0.0078  2.2740 -2.5791
 9083TIP3   OH248739   0.613   0.841   5.348  0.2030 -0.2416  0.9591
 9083TIP3    H148740   0.535   0.879   5.389  0.1939 -1.4295  2.1167
 9083TIP3    H248741   0.681   0.850   5.414  1.9764  3.4567 -1.0607
 9084TIP3   OH248742   2.095   6.010  11.815  0.2844 -0.0048 -0.5087
 9084TIP3    H148743   2.135   6.043  11.734  2.0060  0.3404  0.4355
 9084TIP3    H248744   2.038   6.081  11.844 -1.4588 -0.6627 -2.0913
 9085TIP3   OH248745   6.110   3.740   1.031 -0.6208 -0.0908  0.2209
 9085TIP3    H148746   6.111   3.820   0.978 -0.5312  0.3993  0.9445
 9085TIP3    H248747   6.050   3.760   1.103  1.1524  0.1779  1.6932
 9086TIP3   OH248748   6.229   0.951   5.497 -0.1446 -0.0625  0.1426
 9086TIP3    H148749   6.246   0.945   5.403 -1.9951 -0.4087 -0.2110
 9086TIP3    H248750   6.223   1.045   5.515 -0.1962 -0.0068 -0.1618
 9087TIP3   OH248751   5.510   2.379   4.752  0.6051 -0.2434  0.5369
 9087TIP3    H148752   5.469   2.381   4.666  1.4285  2.1286  0.1442
 9087TIP3    H248753   5.437   2.391   4.814  0.1581 -0.8719  0.1491
 9088TIP3   OH248754   4.076   4.357   4.059 -0.1109 -0.4192  0.4868
 9088TIP3    H148755   3.998   4.378   4.008  0.4943 -1.7418 -1.0724
 9088TIP3    H248756   4.091   4.434   4.113 -0.9493  0.9318 -1.1393
 9089TIP3   OH248757   1.784   5.115   5.417  0.2363 -0.7957  0.3038
 9089TIP3    H148758   1.813   5.026   5.435  1.2502 -0.4375  0.5000
 9089TIP3    H248759   1.751   5.148   5.500 -1.1833 -1.3436 -0.0100
 9090TIP3   OH248760   3.507   1.517  11.674 -0.4528  0.3617 -0.2655
 9090TIP3    H148761   3.547   1.491  11.591 -0.6544 -0.1461 -0.2056
 9090TIP3    H248762   3.479   1.608  11.660  0.8182  0.7782 -0.2747
 9091TIP3   OH248763   0.731   2.757   0.852 -0.0185 -0.1857 -0.2142
 9091TIP3    H148764   0.716   2.675   0.805  4.2476 -3.1638  2.7874
 9091TIP3    H248765   0.802   2.800   0.804  0.6106 -0.4816  0.4184
 9092TIP3   OH248766   2.079   2.071  13.618 -0.1441  0.3744  0.0976
 9092TIP3    H148767   2.085   1.976  13.624 -0.2745  0.4154  1.2522
 9092TIP3    H248768   2.002   2.087  13.565 -0.7142 -0.1823  0.7350
 9093TIP3   OH248769   3.100   2.341   3.629  0.0087 -0.0582 -0.8726
 9093TIP3    H148770   3.066   2.328   3.717  0.2408  2.8569 -0.2511
 9093TIP3    H248771   3.030   2.387   3.583  0.7343  0.4298 -1.5138
 9094TIP3   OH248772   0.770   6.260  16.174 -0.2176 -0.4429  0.1145
 9094TIP3    H148773   0.765   6.308  16.091 -1.2952  0.4953  0.6930
 9094TIP3    H248774   0.768   6.328  16.241 -0.2577 -1.2355  0.9333
 9095TIP3   OH248775   1.436   5.258  11.375 -0.0903  0.0270  0.1607
 9095TIP3    H148776   1.525   5.244  11.343 -0.4344 -1.3163 -0.2606
 9095TIP3    H248777   1.429   5.353  11.387  1.2224  0.1934 -0.2985
 9096TIP3   OH248778   2.019   6.475  13.913 -0.5356  0.1688 -0.0254
 9096TIP3    H148779   1.931   6.499  13.883 -0.1580  0.8530 -0.6180
 9096TIP3    H248780   2.034   6.533  13.988  0.1761  1.5119 -1.1473
 9097TIP3   OH248781   6.617   6.314  11.289  0.0366 -0.4498  0.2958
 9097TIP3    H148782   6.621   6.219  11.282 -0.2119 -0.3921 -0.7158
 9097TIP3    H248783   6.534   6.331  11.333 -0.5431 -0.6640 -0.6820
 9098TIP3   OH248784   1.830   6.216  15.820 -0.2687  0.3760  0.1573
 9098TIP3    H148785   1.839   6.276  15.746  0.4399 -0.3384 -0.3613
 9098TIP3    H248786   1.837   6.271  15.898  0.3386  0.9656 -0.3074
 9099TIP3   OH248787   5.349   5.271   5.135  0.1354  1.0445 -0.3342
 9099TIP3    H148788   5.254   5.281   5.142  0.0282  0.5694 -1.0881
 9099TIP3    H248789   5.362   5.184   5.099  0.9435  0.1892  1.8523
 9100TIP3   OH248790   4.790   6.083   2.004 -0.4919 -0.2258 -0.2082
 9100TIP3    H148791   4.831   6.085   1.917  1.2949  1.2177  0.5905
 9100TIP3    H248792   4.809   6.170   2.041 -1.0021 -0.8820  1.7011
 9101TIP3   OH248793   2.197   5.385   2.314  0.1006  0.1091  0.2591
 9101TIP3    H148794   2.145   5.454   2.354  1.5080  0.5828  1.3600
 9101TIP3    H248795   2.184   5.395   2.220 -0.9633  0.8469  0.4741
 9102TIP3   OH248796   5.430   1.863  14.168  0.0858 -0.7583 -1.0126
 9102TIP3    H148797   5.379   1.783  14.182  1.8858 -1.5857  1.5778
 9102TIP3    H248798   5.428   1.877  14.074 -1.6715 -2.9026 -1.3641
 9103TIP3   OH248799   4.851   3.897  13.943  0.6958 -0.1267  0.2071
 9103TIP3    H148800   4.852   3.992  13.958 -0.7194 -0.1329  0.4433
 9103TIP3    H248801   4.939   3.869  13.968  1.0586  1.0847  0.3807
 9104TIP3   OH248802   1.174   6.744  15.977 -0.0398  0.2693  0.2929
 9104TIP3    H148803   1.086   6.731  15.941 -0.1463  0.0057  0.6462
 9104TIP3    H248804   1.160   6.781  16.063  0.1544 -0.8031  0.8088
 9105TIP3   OH248805   4.743   5.150   1.085 -0.0882  0.0029 -0.5726
 9105TIP3    H148806   4.682   5.192   1.146  1.4771  1.0882  0.2873
 9105TIP3    H248807   4.687   5.090   1.035 -1.7202  0.3152  0.7545
 9106TIP3   OH248808   1.215   6.473   4.993  0.5696 -0.7949  0.9362
 9106TIP3    H148809   1.296   6.513   5.024  1.3962 -0.7883 -1.1445
 9106TIP3    H248810   1.242   6.390   4.953 -0.3865 -0.6416 -0.0736
 9107TIP3   OH248811   5.331   0.280   1.495  0.7137 -0.3237  0.5249
 9107TIP3    H148812   5.288   0.197   1.515  1.3207 -0.4839  1.2246
 9107TIP3    H248813   5.325   0.331   1.576 -0.7021  0.8073 -0.2481
 9108TIP3   OH248814   0.099   1.118   4.603 -0.3796 -0.0704 -0.3949
 9108TIP3    H148815   0.193   1.120   4.582 -0.4471  1.9510 -0.6729
 9108TIP3    H248816   0.071   1.030   4.578  1.6057 -0.9968  0.4625
 9109TIP3   OH248817   4.027   4.593  16.895 -0.1295 -0.1989  0.5348
 9109TIP3    H148818   4.005   4.503  16.871  0.7880 -0.3199  0.0892
 9109TIP3    H248819   3.951   4.624  16.945  0.0850 -1.6309  1.8109
 9110TIP3   OH248820   2.642   0.036   4.674  0.5637 -0.3716  0.1786
 9110TIP3    H148821   2.552   0.005   4.688  1.1040 -3.8280 -2.5218
 9110TIP3    H248822   2.687   0.017   4.755 -0.8798  0.6450  1.2835
 9111TIP3   OH248823   0.543   1.643  13.261  0.2200  0.7143  0.1510
 9111TIP3    H148824   0.595   1.693  13.325  0.8769  0.2969 -0.0478
 9111TIP3    H248825   0.452   1.669  13.279  0.3577  0.3542  1.4884
 9112TIP3   OH248826   1.574   1.996  10.838 -0.2480 -0.6099 -1.0080
 9112TIP3    H148827   1.617   1.999  10.924 -0.7430  2.0019 -0.7735
 9112TIP3    H248828   1.481   1.994  10.858 -0.5452  2.9661 -1.2863
 9113TIP3   OH248829   6.755   1.439   3.860 -0.3696 -0.1914  0.3113
 9113TIP3    H148830   6.719   1.379   3.795  1.2019 -0.1434 -0.6479
 9113TIP3    H248831   6.742   1.394   3.944  0.3612 -1.6812 -0.3425
 9114TIP3   OH248832   6.547   0.524   1.066  0.2187 -0.5820 -0.1475
 9114TIP3    H148833   6.473   0.472   1.096  0.0414 -0.0751  0.3097
 9114TIP3    H248834   6.545   0.602   1.121  1.4437 -0.8332  0.2762
 9115TIP3   OH248835   0.183   2.314   2.725  0.0607 -0.2110  0.2739
 9115TIP3    H148836   0.210   2.391   2.676 -1.1025  1.6558  2.3952
 9115TIP3    H248837   0.256   2.297   2.785  0.2077 -0.6386 -0.0191
 9116TIP3   OH248838   6.195   5.060   5.416  0.4637 -0.0046  0.4900
 9116TIP3    H148839   6.212   5.139   5.468  0.9610 -1.0053  1.8816
 9116TIP3    H248840   6.198   4.988   5.479 -0.7194 -1.0796 -0.6308
 9117TIP3   OH248841   4.156   1.350  13.161 -0.2243  0.1567 -0.7857
 9117TIP3    H148842   4.120   1.262  13.160  2.1470 -1.0570  2.5032
 9117TIP3    H248843   4.249   1.338  13.145  0.2056  1.9699  0.0740
 9118TIP3   OH248844   4.851   5.779   3.499  0.0859  0.3632  0.1169
 9118TIP3    H148845   4.845   5.868   3.464  0.7778  0.4063  0.0944
 9118TIP3    H248846   4.899   5.730   3.432  1.4268  0.4467  0.9818
 9119TIP3   OH248847   0.203   6.788   0.492 -0.2157  0.6901  0.1299
 9119TIP3    H148848   0.288   6.826   0.474 -0.1209  0.9633  1.1041
 9119TIP3    H248849   0.167   6.768   0.405  0.8489  0.5206 -0.2897
 9120TIP3   OH248850   5.594   4.969  11.815  0.7295 -0.1234 -0.1865
 9120TIP3    H148851   5.661   4.934  11.873 -0.4420 -0.5087  0.9846
 9120TIP3    H248852   5.620   4.941  11.728  1.6216 -1.0173  0.3470
 9121TIP3   OH248853   5.321   0.651   1.931 -0.1618  0.3426  0.6278
 9121TIP3    H148854   5.363   0.634   2.015 -0.0775  1.8982  0.9281
 9121TIP3    H248855   5.235   0.611   1.938 -0.0417  0.2002  1.3463
 9122TIP3   OH248856   6.016   1.340   2.488 -0.2043  0.0841  0.9414
 9122TIP3    H148857   6.026   1.359   2.394  0.7390  0.6602  1.1521
 9122TIP3    H248858   5.989   1.424   2.526 -1.6310 -0.3921  1.0497
 9123TIP3   OH248859   5.106   2.901  13.512  0.3601 -0.6470 -0.5789
 9123TIP3    H148860   5.066   2.979  13.476  0.0402 -0.6171 -0.1615
 9123TIP3    H248861   5.043   2.868  13.576  0.0769 -1.7683 -1.4143
 9124TIP3   OH248862   5.675   1.665   0.500 -0.0401  0.0494  0.1908
 9124TIP3    H148863   5.744   1.604   0.475  0.8234  1.4537 -0.9869
 9124TIP3    H248864   5.611   1.660   0.429  1.5103  2.6703 -1.5267
 9125TIP3   OH248865   4.358   3.019  13.116 -0.4635  0.1858  0.2052
 9125TIP3    H148866   4.311   3.006  13.033  1.2843  0.2275 -0.8464
 9125TIP3    H248867   4.365   2.932  13.153 -1.6702  0.2270  0.5694
 9126TIP3   OH248868   4.023   0.027  12.308  0.1394 -0.2439 -0.1162
 9126TIP3    H148869   3.997  -0.035  12.376 -1.8172 -1.7321 -2.0875
 9126TIP3    H248870   4.119   0.029  12.313  0.1371 -1.5607  1.5575
 9127TIP3   OH248871   5.810   0.886  11.427  1.1082 -0.0598 -0.5851
 9127TIP3    H148872   5.772   0.937  11.356  0.2632 -0.8738 -0.7438
 9127TIP3    H248873   5.840   0.805  11.386  0.6801 -0.5057 -0.0451
 9128TIP3   OH248874   1.649   3.180   0.891  0.4952 -1.4252  0.0536
 9128TIP3    H148875   1.630   3.227   0.810  0.6718  0.8463  1.2446
 9128TIP3    H248876   1.565   3.144   0.918  0.2046 -1.2062 -0.5513
 9129TIP3   OH248877   3.753   4.871   5.698  0.1937 -0.4444 -0.3313
 9129TIP3    H148878   3.687   4.815   5.657  0.0228  0.2637 -1.0520
 9129TIP3    H248879   3.836   4.842   5.660  0.1505 -0.4776 -0.3998
 9130TIP3   OH248880   4.065   1.568  15.098  0.0315  0.3347 -0.4202
 9130TIP3    H148881   4.049   1.517  15.178 -0.4479 -0.6052 -1.1003
 9130TIP3    H248882   4.020   1.651  15.114 -0.6753 -0.1178  0.0028
 9131TIP3   OH248883   2.362   1.289  16.478 -0.0080  0.0856  0.6548
 9131TIP3    H148884   2.276   1.309  16.514  0.9550  1.6982  2.2288
 9131TIP3    H248885   2.405   1.374  16.468  1.6664 -0.7179  0.5929
 9132TIP3   OH248886   3.078   3.777   1.209 -0.3011 -0.7993 -0.2163
 9132TIP3    H148887   3.000   3.768   1.264 -1.1247  1.4839 -0.8981
 9132TIP3    H248888   3.140   3.826   1.263 -0.7326  0.5601 -0.9232
 9133TIP3   OH248889   0.248   3.789  13.864  0.1575 -0.3428  0.2206
 9133TIP3    H148890   0.330   3.740  13.857  0.6046  0.5044 -0.7102
 9133TIP3    H248891   0.213   3.790  13.775 -0.8932 -0.7350  0.6198
 9134TIP3   OH248892   4.355   0.863  11.341  0.0368  0.3785 -0.0014
 9134TIP3    H148893   4.376   0.829  11.428  1.6348 -0.1693 -0.5644
 9134TIP3    H248894   4.357   0.959  11.351 -0.3572  0.3166  0.6833
 9135TIP3   OH248895   6.747   2.203  13.355  0.1917 -0.1538  0.3510
 9135TIP3    H148896   6.816   2.193  13.421  0.3240  0.7465  0.3539
 9135TIP3    H248897   6.778   2.153  13.279  0.3020 -0.7132  0.7564
 9136TIP3   OH248898   6.001   1.871   3.707  0.1551  0.2085  0.4330
 9136TIP3    H148899   5.953   1.793   3.735  1.7265 -0.3684  1.6949
 9136TIP3    H248900   6.077   1.837   3.660 -0.2614  1.0855 -0.9686
 9137TIP3   OH248901   2.149   6.457   0.226  0.1988 -0.2409  0.2481
 9137TIP3    H148902   2.058   6.451   0.195 -0.1938  1.6596  0.9041
 9137TIP3    H248903   2.143   6.507   0.308  1.7602 -0.8721  0.7859
 9138TIP3   OH248904   6.575   6.190  11.744  0.5947  0.0508 -0.0118
 9138TIP3    H148905   6.504   6.138  11.782  1.7056 -0.6660  1.1589
 9138TIP3    H248906   6.634   6.208  11.818  1.5504  0.7672 -0.9195
 9139TIP3   OH248907   0.334   6.356  12.831  0.4107  0.2811  0.4516
 9139TIP3    H148908   0.418   6.394  12.856  0.9579  0.9672 -2.1321
 9139TIP3    H248909   0.336   6.353  12.735 -3.0440  1.5923  0.1781
 9140TIP3   OH248910   6.388   0.365  14.091  0.6848 -0.6958 -0.0785
 9140TIP3    H148911   6.464   0.399  14.139  0.4257 -0.7809  0.4055
 9140TIP3    H248912   6.326   0.439  14.089  0.4268 -0.8990  0.3074
 9141TIP3   OH248913   2.515   2.826   0.446  0.2819  0.3117 -0.4641
 9141TIP3    H148914   2.572   2.761   0.405  1.2991  1.8347 -1.5997
 9141TIP3    H248915   2.560   2.910   0.431 -1.3891  1.3728  0.1876
 9142TIP3   OH248916   4.597   3.853   0.939 -0.3735 -0.0598 -0.2710
 9142TIP3    H148917   4.562   3.895   1.018 -0.7634  0.0999 -0.5210
 9142TIP3    H248918   4.575   3.761   0.949 -2.2699  0.2498 -1.1216
 9143TIP3   OH248919   2.164   6.332  17.117 -0.0771 -0.1762  0.2501
 9143TIP3    H148920   2.195   6.339  17.027  1.8426  0.2094  0.8802
 9143TIP3    H248921   2.182   6.241  17.142 -0.1684 -0.1615  0.3716
 9144TIP3   OH248922   0.812   4.755   4.122  0.5808  0.2961 -0.1720
 9144TIP3    H148923   0.876   4.825   4.131 -0.0406  0.7838  0.5814
 9144TIP3    H248924   0.859   4.685   4.076  1.2250  1.1699 -0.8891
 9145TIP3   OH248925   0.021   2.907   5.361  0.6447 -0.6522 -0.2384
 9145TIP3    H148926   0.048   2.817   5.339 -1.0848 -0.9953 -1.2246
 9145TIP3    H248927   0.077   2.963   5.308  1.4461 -1.1722  0.0529
 9146TIP3   OH248928   1.877   5.781  13.245 -0.4301  0.6662  0.3746
 9146TIP3    H148929   1.811   5.738  13.191 -1.9997  1.4509  1.5752
 9146TIP3    H248930   1.841   5.868  13.261 -0.2197  0.3648  2.9202
 9147TIP3   OH248931   5.925   6.602  12.722 -0.0490  0.1123 -0.1244
 9147TIP3    H148932   5.929   6.529  12.660 -1.1987 -0.1035  0.0206
 9147TIP3    H248933   6.014   6.636  12.726  0.5389 -1.3478 -0.1228
 9148TIP3   OH248934   1.136   5.774  14.087 -0.5091  0.7975  0.0124
 9148TIP3    H148935   1.106   5.747  14.000 -1.6249  0.4938  0.4757
 9148TIP3    H248936   1.218   5.819  14.071  0.6456 -1.4716 -0.9711
 9149TIP3   OH248937   0.746   6.121  12.280 -0.3803 -0.6368 -0.1535
 9149TIP3    H148938   0.676   6.086  12.225  0.1343  0.3935 -1.5209
 9149TIP3    H248939   0.753   6.059  12.353  0.1382 -3.0742 -2.1406
 9150TIP3   OH248940   4.939   5.070  12.334  0.1424 -0.1051 -0.5022
 9150TIP3    H148941   5.018   5.031  12.298  0.6036  0.0545  0.3101
 9150TIP3    H248942   4.951   5.165  12.324 -0.7296 -0.1210 -1.9651
 9151TIP3   OH248943   6.016   1.438  14.243  0.2561  0.0774  0.2287
 9151TIP3    H148944   5.953   1.500  14.280 -0.2486 -0.1847 -0.1732
 9151TIP3    H248945   6.006   1.359  14.295  0.7526  0.2533  0.6054
 9152TIP3   OH248946   6.814   4.667  16.263  0.2309  0.4170  0.0390
 9152TIP3    H148947   6.721   4.689  16.263  0.7279  2.7643 -0.9117
 9152TIP3    H248948   6.822   4.595  16.201 -1.3734 -2.3435  2.7433
 9153TIP3   OH248949   1.929   3.563   0.477  0.0537 -0.0726 -0.5013
 9153TIP3    H148950   1.872   3.615   0.419  0.0104  0.6329  0.1649
 9153TIP3    H248951   1.901   3.473   0.461 -0.2338  0.1386 -1.2857
 9154TIP3   OH248952   4.196   2.086  11.786 -0.5611 -0.6663 -0.4202
 9154TIP3    H148953   4.155   2.172  11.790 -0.3330 -0.5519 -0.4966
 9154TIP3    H248954   4.125   2.026  11.765 -0.6393 -0.4311 -0.8408
 9155TIP3   OH248955   1.816   0.394  14.072  0.1910 -0.0506  0.4644
 9155TIP3    H148956   1.818   0.309  14.115 -1.7616 -1.2359 -1.5670
 9155TIP3    H248957   1.825   0.457  14.143  1.1539 -1.9123  2.0961
 9156TIP3   OH248958   6.229   4.295  13.189  0.4076  0.4151  0.0994
 9156TIP3    H148959   6.265   4.238  13.257 -3.2339 -1.3333  0.8210
 9156TIP3    H248960   6.172   4.356  13.236  0.4779  1.4828 -1.1360
 9157TIP3   OH248961   4.232   1.203   2.571  0.0894  0.1173 -0.5953
 9157TIP3    H148962   4.287   1.125   2.580 -1.1551 -0.6300  1.5444
 9157TIP3    H248963   4.269   1.267   2.631  0.4678  0.7998 -1.5347
 9158TIP3   OH248964   6.673   5.191  16.493 -0.1721 -0.0262 -0.7101
 9158TIP3    H148965   6.637   5.106  16.468  0.4654 -0.4177 -0.3183
 9158TIP3    H248966   6.717   5.175  16.576 -1.3557  1.0215  0.1706
 9159TIP3   OH248967   4.103   0.878   5.286  0.0912  0.5427  0.0096
 9159TIP3    H148968   4.161   0.802   5.294 -2.8678 -1.8905  0.5308
 9159TIP3    H248969   4.115   0.927   5.367 -0.1301 -1.1904  1.1645
 9160TIP3   OH248970   0.558   4.651  11.770 -0.1284 -0.3923 -0.1799
 9160TIP3    H148971   0.492   4.631  11.703 -0.6501 -1.4170  0.6138
 9160TIP3    H248972   0.577   4.744  11.758 -2.6917  0.2902  0.4021
 9161TIP3   OH248973   6.275   6.011   3.449  0.0596 -0.1334 -0.6069
 9161TIP3    H148974   6.301   5.991   3.359  0.4814 -0.4906 -0.4086
 9161TIP3    H248975   6.269   5.926   3.492  1.3195  0.1063  0.0968
 9162TIP3   OH248976   4.141   2.509  16.047 -0.0593  0.5025 -0.1903
 9162TIP3    H148977   4.187   2.592  16.029  2.6348 -0.7540  0.3994
 9162TIP3    H248978   4.171   2.450  15.978 -2.0217 -0.0196 -0.6503
 9163TIP3   OH248979   3.887   0.520   5.864 -0.5828 -0.3085 -0.0960
 9163TIP3    H148980   3.885   0.611   5.891 -2.3568  0.2095 -1.7837
 9163TIP3    H248981   3.812   0.480   5.907  0.4481 -1.1349  1.0100
 9164TIP3   OH248982   1.769   3.270  14.419 -0.1230  0.1232  0.4738
 9164TIP3    H148983   1.755   3.278  14.514  0.2917 -0.5141  0.5946
 9164TIP3    H248984   1.774   3.360  14.388  3.2788  0.4581  1.6154
 9165TIP3   OH248985   2.730   1.911   0.283 -0.2334  0.5462 -0.2551
 9165TIP3    H148986   2.700   1.822   0.269 -0.7297  0.8390 -1.0854
 9165TIP3    H248987   2.773   1.909   0.369 -1.7719 -0.0976  0.5371
 9166TIP3   OH248988   2.697   0.615   1.385  0.3906  0.0101  0.3725
 9166TIP3    H148989   2.744   0.532   1.393 -0.2775 -0.4098  0.0684
 9166TIP3    H248990   2.751   0.679   1.432  0.6888 -0.6862  0.9837
 9167TIP3   OH248991   5.132   5.230  13.632  0.2421  0.1972 -0.2072
 9167TIP3    H148992   5.161   5.297  13.694 -1.5098  0.6976  0.1267
 9167TIP3    H248993   5.096   5.278  13.558 -1.9002 -0.3014  0.4452
 9168TIP3   OH248994   2.058   4.913   0.506 -0.2749  0.4124 -0.7791
 9168TIP3    H148995   1.981   4.882   0.554  0.9642 -1.0506  0.3848
 9168TIP3    H248996   2.078   4.842   0.445  1.1367 -0.0768  0.1722
 9169TIP3   OH248997   4.795   5.639   2.140  0.6343  0.4684  0.4552
 9169TIP3    H148998   4.745   5.576   2.088 -0.0087  0.0624  1.5331
 9169TIP3    H248999   4.745   5.721   2.132  0.4972  0.3885  0.4906
 9170TIP3   OH249000   6.225   0.349  10.127 -0.0796  0.1132  0.2479
 9170TIP3    H149001   6.153   0.292  10.101 -1.1758  2.0259 -1.1072
 9170TIP3    H249002   6.213   0.361  10.221 -1.5480  0.3927  0.0413
 9171TIP3   OH249003   5.541   4.314   1.409  0.2867  0.0724  0.2623
 9171TIP3    H149004   5.600   4.347   1.341  2.0244 -0.1198  1.5919
 9171TIP3    H249005   5.453   4.336   1.378  1.1494  2.1887 -0.8702
 9172TIP3   OH249006   5.289   3.035   0.239 -0.1912 -0.2798  0.8807
 9172TIP3    H149007   5.328   2.975   0.303 -0.9819 -2.1100 -0.2576
 9172TIP3    H249008   5.196   3.013   0.239 -0.6440  1.4871  0.9392
 9173TIP3   OH249009   0.539   5.432   1.755 -0.2661 -0.1122  0.7848
 9173TIP3    H149010   0.514   5.449   1.845  1.4814 -1.2419  1.5247
 9173TIP3    H249011   0.614   5.373   1.761  0.9730  1.1157 -1.3418
 9174TIP3   OH249012   0.505   1.830  12.206 -0.0551  0.0078 -0.1499
 9174TIP3    H149013   0.487   1.739  12.229  0.2092  0.1990  0.8563
 9174TIP3    H249014   0.459   1.881  12.273 -0.2755  0.6235 -0.7569
 9175TIP3   OH249015   5.258   3.144  14.679 -0.1888  0.1592 -0.4238
 9175TIP3    H149016   5.295   3.063  14.645  0.4037 -0.6185  1.9418
 9175TIP3    H249017   5.167   3.143  14.650 -0.4562 -1.8576  0.3757
 9176TIP3   OH249018   0.082   1.576  17.225 -0.4567 -0.1842 -0.1987
 9176TIP3    H149019   0.078   1.637  17.298 -0.8518 -1.5495  0.9666
 9176TIP3    H249020   0.149   1.612  17.167  0.0470  0.8002  0.9553
 9177TIP3   OH249021   2.771   6.004   5.148  0.4478 -1.1260  0.2826
 9177TIP3    H149022   2.700   5.945   5.125  0.8014 -1.0141 -1.2049
 9177TIP3    H249023   2.831   6.000   5.074  1.7129 -0.7675  1.2346
 9178TIP3   OH249024   2.036   3.652  11.184  0.2687 -0.3501  0.5452
 9178TIP3    H149025   2.043   3.654  11.089 -0.3984 -0.7958  0.4734
 9178TIP3    H249026   2.109   3.598  11.213  1.3912  1.0677  0.4109
 9179TIP3   OH249027   1.984   2.830  14.670 -0.3915  0.3966 -0.1119
 9179TIP3    H149028   2.002   2.864  14.758  0.2060  0.4786 -0.2614
 9179TIP3    H249029   1.892   2.850  14.655 -0.3912  0.7508  0.3351
 9180TIP3   OH249030   1.094   0.554  11.113  0.0793 -0.0444 -0.0595
 9180TIP3    H149031   1.066   0.510  11.193  0.7191 -0.1859  0.0941
 9180TIP3    H249032   1.125   0.483  11.056  1.4511  0.2281  0.3277
 9181TIP3   OH249033   5.305   0.427  12.937 -0.0422  0.1835 -0.0399
 9181TIP3    H149034   5.336   0.358  12.996  1.9228 -0.3871 -1.6390
 9181TIP3    H249035   5.226   0.460  12.979 -0.1191 -1.8939  1.6256
 9182TIP3   OH249036   4.780   2.559   1.825  0.5143  0.1769  0.2993
 9182TIP3    H149037   4.752   2.650   1.819 -0.3693 -0.1105 -0.2569
 9182TIP3    H249038   4.819   2.551   1.912  1.1606  1.2259  0.1180
 9183TIP3   OH249039   4.405   3.645   3.146  0.1043  0.3826  0.4036
 9183TIP3    H149040   4.485   3.610   3.187  0.2328 -0.2108 -0.3417
 9183TIP3    H249041   4.337   3.630   3.211  0.3098 -0.5461  0.4174
 9184TIP3   OH249042   5.443   4.826   5.797  0.0149  0.4035  0.4420
 9184TIP3    H149043   5.370   4.780   5.839 -0.4437  0.5309 -0.2067
 9184TIP3    H249044   5.463   4.897   5.857 -0.4912  0.4532  0.5627
 9185TIP3   OH249045   4.586   6.549  15.113 -0.9203 -0.0190  0.6125
 9185TIP3    H149046   4.510   6.527  15.167  0.7975 -1.6281  2.5521
 9185TIP3    H249047   4.651   6.581  15.175  0.2084  0.7611 -0.9152
 9186TIP3   OH249048   5.369   3.008  15.491 -0.3564  0.3166 -0.0561
 9186TIP3    H149049   5.458   3.044  15.486 -0.0099 -0.2863  1.2604
 9186TIP3    H249050   5.366   2.944  15.420  0.2209  0.4386 -0.1980
 9187TIP3   OH249051   0.186   1.869   1.708 -0.3065  0.7097  0.0930
 9187TIP3    H149052   0.269   1.848   1.751  0.0927 -0.7203 -1.3098
 9187TIP3    H249053   0.153   1.944   1.757  2.0625  1.6714  0.3763
 9188TIP3   OH249054   5.492   4.687   2.880  0.5012  0.0231  0.1297
 9188TIP3    H149055   5.454   4.683   2.968  0.0813  3.0093  0.1875
 9188TIP3    H249056   5.418   4.711   2.824  0.9223 -1.0936 -0.9374
 9189TIP3   OH249057   6.384   2.014  13.448  0.3541  0.1816 -0.3097
 9189TIP3    H149058   6.340   2.080  13.502  2.4809  0.9665  0.5886
 9189TIP3    H249059   6.457   2.061  13.408  1.1537 -1.3304 -0.6965
 9190TIP3   OH249060   5.895   2.163   4.894  0.1730 -0.4938 -0.2210
 9190TIP3    H149061   5.982   2.202   4.892 -0.1128  0.1334 -0.8750
 9190TIP3    H249062   5.898   2.102   4.968  0.5702  0.9419  1.0062
 9191TIP3   OH249063   3.771   2.939  15.472 -0.0689  0.0527  0.9859
 9191TIP3    H149064   3.795   2.992  15.396  1.0768 -0.7086  0.7875
 9191TIP3    H249065   3.850   2.939  15.527 -0.0353 -1.4456  0.9703
 9192TIP3   OH249066   1.885   1.431   0.993  0.3963 -0.3400  0.0783
 9192TIP3    H149067   1.898   1.336   0.999 -2.4334 -0.7820  0.6124
 9192TIP3    H249068   1.892   1.450   0.899 -0.6269 -1.3754 -0.2300
 9193TIP3   OH249069   3.035   3.948   0.409 -0.5992 -0.3998 -0.0344
 9193TIP3    H149070   3.122   3.982   0.430 -0.3801 -0.5831 -0.6284
 9193TIP3    H249071   2.992   3.938   0.494 -0.3100  0.3967  0.2146
 9194TIP3   OH249072   2.645   3.968  13.483  0.2175  0.0650 -0.1586
 9194TIP3    H149073   2.709   3.989  13.415  2.2986  0.4665  1.8151
 9194TIP3    H249074   2.626   4.052  13.525  0.1015 -0.3889  0.7120
 9195TIP3   OH249075   6.640   6.323  10.131 -0.2581 -0.3418  0.6152
 9195TIP3    H149076   6.604   6.254  10.186  0.6572  0.0220  1.6954
 9195TIP3    H249077   6.579   6.396  10.141 -0.5627 -0.5626  0.4289
 9196TIP3   OH249078   4.177   6.529  16.028 -0.3766  0.5032 -0.3463
 9196TIP3    H149079   4.227   6.517  15.947 -0.2191 -0.9725 -0.0454
 9196TIP3    H249080   4.104   6.468  16.020 -1.0211  1.2072  0.1121
 9197TIP3   OH249081   2.735   4.160   3.353  0.1523 -0.1176  0.3424
 9197TIP3    H149082   2.707   4.076   3.388 -0.0671  0.7334  2.3131
 9197TIP3    H249083   2.657   4.194   3.309 -0.0251 -0.5300  0.3325
 9198TIP3   OH249084   3.852   5.007   5.437 -0.1320  0.7841  0.2949
 9198TIP3    H149085   3.890   5.093   5.419  0.8720  0.2240 -0.4084
 9198TIP3    H249086   3.922   4.958   5.481 -0.1677 -0.1262 -0.6148
 9199TIP3   OH249087   1.902   3.708  12.193  0.6152  0.1717  0.7208
 9199TIP3    H149088   1.821   3.668  12.226 -0.6074 -0.0817 -2.2609
 9199TIP3    H249089   1.964   3.698  12.265 -1.0567 -2.5942  1.9840
 9200TIP3   OH249090   3.642   1.780   2.631 -0.1557  0.7681 -0.0297
 9200TIP3    H149091   3.692   1.700   2.645  1.2827  1.7651  0.7814
 9200TIP3    H249092   3.650   1.798   2.537 -2.6767 -1.3753 -0.7587
 9201TIP3   OH249093   2.163   4.516  12.429  0.4572  0.3517 -0.1012
 9201TIP3    H149094   2.188   4.561  12.510  1.5669  0.6804 -0.6201
 9201TIP3    H249095   2.119   4.583  12.377 -1.0063 -0.0652  0.5447
 9202TIP3   OH249096   5.934   0.448  16.085 -0.2987  0.4682  0.3162
 9202TIP3    H149097   5.977   0.527  16.117  0.7092  0.0938 -0.0898
 9202TIP3    H249098   5.995   0.378  16.104 -1.5852 -0.3760  1.5388
 9203TIP3   OH249099   6.251   3.882   2.216  0.2153 -0.0152  0.0669
 9203TIP3    H149100   6.222   3.959   2.167  0.4865  0.5757  0.8057
 9203TIP3    H249101   6.247   3.909   2.308  0.8660 -0.6900  0.3081
 9204TIP3   OH249102   3.179   1.141   6.640  0.5690 -0.2316 -0.8397
 9204TIP3    H149103   3.219   1.199   6.575 -0.4115  0.4578 -0.8402
 9204TIP3    H249104   3.247   1.076   6.659  1.3128  0.3045 -1.6096
 9205TIP3   OH249105   4.267   0.317  17.263 -0.1123 -0.2985  0.5538
 9205TIP3    H149106   4.219   0.398  17.245  0.9110  0.2918  0.3943
 9205TIP3    H249107   4.335   0.343  17.326 -0.1792 -1.1779  1.0080
 9206TIP3   OH249108   2.993   6.242   5.231 -0.1177 -0.0473 -0.0309
 9206TIP3    H149109   3.007   6.189   5.309 -1.4956 -0.1490  0.1750
 9206TIP3    H249110   3.016   6.185   5.158 -0.6963 -0.6128  0.2263
 9207TIP3   OH249111   4.412   4.029   4.750  0.7181 -0.9510 -0.1061
 9207TIP3    H149112   4.369   4.072   4.824  1.2659  0.1365 -0.3965
 9207TIP3    H249113   4.418   4.097   4.683  1.7609 -1.4343 -0.5276
 9208TIP3   OH249114   5.732   1.282  10.319 -0.0241  0.6246  0.3022
 9208TIP3    H149115   5.669   1.341  10.361  0.2771  0.8958  0.3742
 9208TIP3    H249116   5.816   1.303  10.360 -0.0360 -0.4055  0.9212
 9209TIP3   OH249117   2.267   2.020   1.672 -0.1793  0.5271 -0.3476
 9209TIP3    H149118   2.327   1.957   1.711 -0.4518  0.3920 -0.1366
 9209TIP3    H249119   2.195   2.027   1.736  0.1731  1.5610 -0.0491
 9210TIP3   OH249120   3.131   5.377   1.503 -0.7138  0.2566  0.3407
 9210TIP3    H149121   3.107   5.334   1.584 -2.5119 -0.0869 -0.3317
 9210TIP3    H249122   3.094   5.322   1.434  1.2244  0.2479 -0.7657
 9211TIP3   OH249123   5.384   1.250   1.223  0.4354  0.1954  0.5484
 9211TIP3    H149124   5.377   1.161   1.190  1.4640  0.0121  0.7975
 9211TIP3    H249125   5.305   1.263   1.276  1.6822 -1.6699  3.0912
 9212TIP3   OH249126   4.770   2.496  13.047  0.6078 -0.0687 -0.4803
 9212TIP3    H149127   4.705   2.488  12.978 -0.2264  0.3997  0.2267
 9212TIP3    H249128   4.732   2.560  13.108  0.7319 -1.4007  1.0549
 9213TIP3   OH249129   1.953   2.264  16.901  0.2283  0.0942 -0.1585
 9213TIP3    H149130   1.929   2.314  16.822  2.1496  1.0013 -0.2340
 9213TIP3    H249131   1.975   2.331  16.965  0.7908 -0.6627  0.4420
 9214TIP3   OH249132   4.269   6.005   2.874  0.0432  0.0379  0.0080
 9214TIP3    H149133   4.289   6.098   2.863 -2.0037  0.2909 -2.9908
 9214TIP3    H249134   4.175   6.003   2.890 -0.4954 -1.5205 -2.7609
 9215TIP3   OH249135   4.195   5.546   6.035 -0.0051 -0.5713  0.1301
 9215TIP3    H149136   4.198   5.472   6.095 -2.6545  0.3263  1.5029
 9215TIP3    H249137   4.136   5.609   6.076  2.2531  2.4551 -0.8881
 9216TIP3   OH249138   2.379   6.804   1.798 -0.6531  0.4419 -0.1240
 9216TIP3    H149139   2.310   6.757   1.751 -0.7385 -0.0634  0.4887
 9216TIP3    H249140   2.407   6.743   1.866  1.8743 -0.2440 -1.6323
 9217TIP3   OH249141   2.146   1.420  13.650  0.2246 -0.3495 -0.4914
 9217TIP3    H149142   2.182   1.499  13.610 -2.2540  1.0559 -0.2161
 9217TIP3    H249143   2.083   1.387  13.585 -0.8904 -0.3522  0.5468
 9218TIP3   OH249144   3.215   4.402  13.953  0.1317 -0.3963  0.7284
 9218TIP3    H149145   3.299   4.357  13.947  0.3848 -0.9565  4.9226
 9218TIP3    H249146   3.150   4.333  13.940  0.4036 -0.6572  0.7411
 9219TIP3   OH249147   6.527   5.563  14.464  0.0604 -0.4006  0.2578
 9219TIP3    H149148   6.550   5.593  14.376 -0.7436  4.1899  1.3256
 9219TIP3    H249149   6.611   5.536  14.503  0.4965 -1.9793 -1.6459
 9220TIP3   OH249150   1.226   4.738   1.158 -0.3454 -0.1217 -0.2882
 9220TIP3    H149151   1.196   4.720   1.247 -1.7407 -1.7086 -1.0234
 9220TIP3    H249152   1.312   4.696   1.153 -1.5170 -2.7201 -0.5091
 9221TIP3   OH249153   0.750   3.704  13.958 -0.3742 -0.0500 -0.3063
 9221TIP3    H149154   0.775   3.793  13.933 -0.4461 -0.6716 -2.9468
 9221TIP3    H249155   0.655   3.701  13.942 -0.5769 -0.3102  0.8611
 9222TIP3   OH249156   5.300   0.123   5.212 -0.0104  0.0032 -0.7307
 9222TIP3    H149157   5.345   0.107   5.295  0.2811 -1.3841 -1.1241
 9222TIP3    H249158   5.207   0.128   5.236  0.1922  1.4127 -0.1127
 9223TIP3   OH249159   4.385   1.179  13.125  0.1999  0.5870 -0.4803
 9223TIP3    H149160   4.461   1.238  13.123  0.0382  0.7636 -1.4873
 9223TIP3    H249161   4.360   1.168  13.034 -0.4781 -0.1443 -0.2165
 9224TIP3   OH249162   3.341   0.334  16.275 -0.1841 -0.5505  0.4742
 9224TIP3    H149163   3.261   0.290  16.247  0.5606 -1.0981 -0.8734
 9224TIP3    H249164   3.400   0.327  16.200 -0.4289  3.8565 -0.3760
 9225TIP3   OH249165   4.392   5.154   3.354  0.0326  0.3214 -0.1714
 9225TIP3    H149166   4.329   5.141   3.425  0.4080  0.2457  0.1501
 9225TIP3    H249167   4.351   5.219   3.297  0.8674  2.4161  1.4953
 9226TIP3   OH249168   2.568   5.093   2.556 -0.0701 -0.6215  0.3170
 9226TIP3    H149169   2.485   5.138   2.570 -0.3638 -1.0071 -0.1624
 9226TIP3    H249170   2.574   5.083   2.461  0.5947 -0.4721  0.3383
 9227TIP3   OH249171   5.601   0.691   3.490 -0.4080  0.1439 -0.9393
 9227TIP3    H149172   5.590   0.597   3.477  2.2877 -0.1450 -1.8309
 9227TIP3    H249173   5.635   0.723   3.407  1.6706  1.2924  0.2728
 9228TIP3   OH249174   4.061   3.151  14.708  0.6642 -0.2995 -0.6394
 9228TIP3    H149175   3.996   3.190  14.767  1.4157  1.5023 -0.9558
 9228TIP3    H249176   4.014   3.135  14.627  0.1169 -0.9691 -0.2044
 9229TIP3   OH249177   1.789   2.879  13.379  0.4055 -0.2671  0.6670
 9229TIP3    H149178   1.881   2.866  13.401 -0.1440 -1.3156  2.5211
 9229TIP3    H249179   1.773   2.972  13.395  1.5898  0.4196 -1.6541
 9230TIP3   OH249180   1.257   2.967   5.562  0.2095 -0.1739 -0.4224
 9230TIP3    H149181   1.254   2.997   5.653  0.7489 -0.0415 -0.4411
 9230TIP3    H249182   1.351   2.959   5.543  0.0970 -0.3402 -0.9214
 9231TIP3   OH249183   1.958   4.667  15.371 -0.1181 -0.1575  0.0581
 9231TIP3    H149184   1.879   4.718  15.392 -1.0292  0.4147 -4.0071
 9231TIP3    H249185   2.027   4.733  15.364 -0.2145 -0.1053 -0.4267
 9232TIP3   OH249186   2.391   6.220  15.536 -0.0376 -0.2686  0.2897
 9232TIP3    H149187   2.319   6.167  15.501 -0.7944  0.8959  0.0199
 9232TIP3    H249188   2.405   6.185  15.624 -1.4449 -0.0651  0.6286
 9233TIP3   OH249189   2.029   1.377   3.409 -0.2363  0.3101  1.0098
 9233TIP3    H149190   2.002   1.289   3.380  1.0398  0.4017 -0.6097
 9233TIP3    H249191   2.118   1.387   3.376  0.4475  1.4310  3.0206
 9234TIP3   OH249192   4.163   2.089  15.059  0.0465  0.1075 -0.2719
 9234TIP3    H149193   4.075   2.107  15.028 -0.3448 -1.1659  0.0581
 9234TIP3    H249194   4.159   2.000  15.093  0.9298  0.7412  1.6413
 9235TIP3   OH249195   6.246   0.217  14.285 -0.1500 -0.7192 -0.8008
 9235TIP3    H149196   6.217   0.274  14.356 -0.6287 -0.8089 -0.9170
 9235TIP3    H249197   6.299   0.273  14.229  0.4361 -0.7081 -0.2434
 9236TIP3   OH249198   4.665   4.618   5.473  0.3652  0.0382 -0.1084
 9236TIP3    H149199   4.729   4.583   5.411 -0.0141 -0.9832  0.0462
 9236TIP3    H249200   4.613   4.680   5.422  1.9392  1.4741 -0.0488
 9237TIP3   OH249201   6.747   5.124   4.046 -0.6371  0.3371 -0.5156
 9237TIP3    H149202   6.836   5.158   4.049 -1.1521  1.7376 -0.2877
 9237TIP3    H249203   6.698   5.189   3.995 -1.8574  0.4490  0.7390
 9238TIP3   OH249204   3.555   5.022   1.017 -0.0137  0.4131  0.5376
 9238TIP3    H149205   3.547   4.929   0.998  1.4078  0.5750 -1.0904
 9238TIP3    H249206   3.541   5.029   1.112 -3.3382 -0.9951  0.2875
 9239TIP3   OH249207   0.593   1.073   4.488  0.0352  0.0312  0.3542
 9239TIP3    H149208   0.659   1.132   4.523 -0.8970  1.5648 -0.3317
 9239TIP3    H249209   0.513   1.096   4.536 -0.6618  0.3612 -0.9093
 9240TIP3   OH249210   5.120   1.852   2.553  0.2823  0.3909  0.7812
 9240TIP3    H149211   5.188   1.866   2.619 -0.6579  1.8182  1.5037
 9240TIP3    H249212   5.153   1.896   2.475  1.1199 -0.7741  0.4446
 9241TIP3   OH249213   3.187   4.741  10.703  0.4819  0.5141 -0.5708
 9241TIP3    H149214   3.238   4.669  10.666  1.0201  0.5238  0.1150
 9241TIP3    H249215   3.252   4.797  10.745 -0.0406  0.8205 -0.1561
 9242TIP3   OH249216   5.371   4.967   2.215 -0.3061 -0.5122  0.3249
 9242TIP3    H149217   5.417   4.914   2.281  0.0480  0.1670  0.6401
 9242TIP3    H249218   5.300   4.911   2.184  0.4593 -1.4173  0.1599
 9243TIP3   OH249219   4.983   1.617  12.180  0.6009  0.4249 -0.4097
 9243TIP3    H149220   4.980   1.633  12.086  1.7990 -0.4127 -0.6024
 9243TIP3    H249221   4.947   1.697  12.219 -0.6005  0.4920 -1.5859
 9244TIP3   OH249222   2.751   4.614   3.874 -0.5931  0.6280  0.1173
 9244TIP3    H149223   2.775   4.573   3.791 -0.6466 -1.1766  0.9545
 9244TIP3    H249224   2.656   4.611   3.876 -0.7981  3.1979 -0.9269
 9245TIP3   OH249225   4.407   5.114  10.640  0.6689  0.4330 -0.2921
 9245TIP3    H149226   4.457   5.164  10.575 -2.4051  0.8979 -2.5482
 9245TIP3    H249227   4.455   5.032  10.649  2.9180  1.6277 -0.6570
 9246TIP3   OH249228   5.515   0.511   3.177  0.5037 -0.4933 -0.5460
 9246TIP3    H149229   5.516   0.416   3.192  0.3583 -0.7213 -1.8980
 9246TIP3    H249230   5.596   0.529   3.128  0.0788 -0.0680 -1.1084
 9247TIP3   OH249231   3.717   2.763  12.091  0.5463 -0.3438 -0.2736
 9247TIP3    H149232   3.674   2.818  12.156 -0.1453 -2.1284  0.8586
 9247TIP3    H249233   3.664   2.775  12.012 -0.9789 -1.0604  0.5895
 9248TIP3   OH249234   4.811   1.260  11.171  0.1063 -0.1748  0.0717
 9248TIP3    H149235   4.736   1.204  11.152  0.1225 -0.9130  1.9338
 9248TIP3    H249236   4.777   1.349  11.164 -0.2853 -0.4177 -1.5013
 9249TIP3   OH249237   5.751   5.255   1.229  0.0141 -0.1355  0.6254
 9249TIP3    H149238   5.845   5.262   1.244 -0.0052  1.2450  0.1886
 9249TIP3    H249239   5.732   5.161   1.240  1.9141 -0.9552 -2.1032
 9250TIP3   OH249240   2.287   0.002  13.307 -0.0139  0.5447  0.5617
 9250TIP3    H149241   2.285  -0.036  13.395  0.8416  1.0682  0.8165
 9250TIP3    H249242   2.285   0.097  13.322 -3.4721  0.6942 -0.1013
 9251TIP3   OH249243   2.494   4.037  10.737 -0.5247  0.5754  0.3196
 9251TIP3    H149244   2.562   4.085  10.784  0.5863  1.0169 -1.6094
 9251TIP3    H249245   2.411   4.070  10.772  0.2218  3.0638 -0.1059
 9252TIP3   OH249246   2.269   1.923   6.159  0.4141 -0.3210  0.0129
 9252TIP3    H149247   2.212   1.883   6.224 -0.2407 -1.5774 -1.2591
 9252TIP3    H249248   2.303   2.002   6.201  0.6948 -1.5187  2.1403
 9253TIP3   OH249249   1.105   3.891   6.876 -0.2455  0.4881  0.1684
 9253TIP3    H149250   1.118   3.950   6.802  0.6950 -1.1776 -1.0592
 9253TIP3    H249251   1.190   3.851   6.890 -0.8732 -0.6401  0.9095
 9254TIP3   OH249252   6.628   2.818   3.768  0.5203  0.4094  0.6382
 9254TIP3    H149253   6.544   2.782   3.740 -0.8510  2.2778  2.0970
 9254TIP3    H249254   6.689   2.744   3.764 -0.9877 -0.8344 -1.1317
 9255TIP3   OH249255   5.039   6.653  13.895  0.9888  0.0916  0.7211
 9255TIP3    H149256   5.044   6.629  13.802 -0.6481 -2.6646  1.2319
 9255TIP3    H249257   4.977   6.726  13.896  1.5285  0.5952 -0.4009
 9256TIP3   OH249258   0.550   5.129  13.844 -0.4278  0.1284  0.1787
 9256TIP3    H149259   0.526   5.051  13.794 -1.3173 -0.3006  1.2303
 9256TIP3    H249260   0.564   5.098  13.933 -2.7837  1.3954  1.1036
 9257TIP3   OH249261   0.248   3.934  16.264 -0.1155 -0.3587 -0.1006
 9257TIP3    H149262   0.275   3.873  16.196 -0.4204 -0.4012 -0.1840
 9257TIP3    H249263   0.330   3.969  16.299  0.0318  0.4434 -1.1857
 9258TIP3   OH249264   2.107   3.294  11.198  0.6636 -0.1992 -0.3911
 9258TIP3    H149265   2.167   3.364  11.171  0.4320  0.2162  0.1561
 9258TIP3    H249266   2.120   3.285  11.292 -0.4949  0.2598 -0.1670
 9259TIP3   OH249267   0.766   4.735   2.007 -0.1974 -0.1526  0.4072
 9259TIP3    H149268   0.771   4.715   1.913 -0.3000 -1.0512  0.5886
 9259TIP3    H249269   0.716   4.817   2.011  0.3858  0.2554 -0.3594
 9260TIP3   OH249270   1.273   3.967   4.390  0.1229 -0.1135  0.4337
 9260TIP3    H149271   1.185   3.949   4.357  0.3076  1.4304 -1.0663
 9260TIP3    H249272   1.315   3.881   4.393 -0.8974 -0.6790 -0.4978
 9261TIP3   OH249273   2.624   3.841  16.280 -0.7298  0.5978  0.5746
 9261TIP3    H149274   2.610   3.910  16.214 -3.0989 -0.8392 -0.5637
 9261TIP3    H249275   2.665   3.770  16.232 -3.0318 -0.7003  0.3937
 9262TIP3   OH249276   4.622   4.569  13.236 -0.2419  0.7023  0.1817
 9262TIP3    H149277   4.546   4.528  13.278 -1.4845 -0.7081 -3.1651
 9262TIP3    H249278   4.674   4.496  13.203  0.7104  1.7221 -0.6553
 9263TIP3   OH249279   4.300   3.866   0.115  0.2068 -0.3475  0.9487
 9263TIP3    H149280   4.375   3.872   0.174  0.1658 -1.6524  1.1710
 9263TIP3    H249281   4.331   3.812   0.043 -0.0031  0.5417  0.1674
 9264TIP3   OH249282   3.570   5.076  12.021 -0.3809 -0.5974  0.0457
 9264TIP3    H149283   3.598   5.126  11.945 -1.4282 -0.4930 -0.2848
 9264TIP3    H249284   3.478   5.099  12.032 -0.6564 -1.8151  0.3872
 9265TIP3   OH249285   3.354   3.525   3.683  0.1430 -0.4167  0.4084
 9265TIP3    H149286   3.438   3.547   3.724 -0.4753  0.3334  1.3151
 9265TIP3    H249287   3.369   3.440   3.642  0.8727 -1.0918  1.9813
 9266TIP3   OH249288   4.900   4.426  13.616  0.3098 -0.1665 -0.8146
 9266TIP3    H149289   4.811   4.408  13.647  0.2504  0.0842 -0.8306
 9266TIP3    H249290   4.951   4.349  13.641  0.5454  0.5433  1.0384
 9267TIP3   OH249291   0.660   6.122  11.131  0.4520 -0.2470 -0.2021
 9267TIP3    H149292   0.619   6.114  11.044  0.3889  1.0276 -0.3100
 9267TIP3    H249293   0.735   6.063  11.127 -1.3927 -2.7302  0.0421
 9268TIP3   OH249294   2.538   1.775  16.561 -0.0303 -0.2828  0.0843
 9268TIP3    H149295   2.610   1.742  16.507  1.0573  2.1454 -0.0856
 9268TIP3    H249296   2.473   1.705  16.559  0.8565 -1.1709 -2.6274
 9269TIP3   OH249297   5.729   1.817  12.408  0.1545 -0.2474  0.0128
 9269TIP3    H149298   5.799   1.834  12.470  1.1069  1.4412 -1.4309
 9269TIP3    H249299   5.750   1.732  12.370  0.8842 -0.1816  0.2632
 9270TIP3   OH249300   0.326   6.459   6.301  0.2914  0.1768 -0.0040
 9270TIP3    H149301   0.236   6.464   6.334 -0.8600 -0.1685 -2.8520
 9270TIP3    H249302   0.364   6.544   6.324 -1.4205  1.1053 -0.4282
 9271TIP3   OH249303   3.582   1.629   3.346 -0.1472 -0.8372 -0.3624
 9271TIP3    H149304   3.575   1.724   3.340  2.0023 -0.6900 -1.2496
 9271TIP3    H249305   3.622   1.612   3.431 -1.8443 -1.0947  0.4422
 9272TIP3   OH249306   0.693   6.757   0.856  0.0833 -0.2519  1.1074
 9272TIP3    H149307   0.702   6.779   0.949  0.2219 -1.3449  1.3632
 9272TIP3    H249308   0.743   6.825   0.810 -0.3046  0.5179  1.7948
 9273TIP3   OH249309   1.393   4.657   0.859  0.3359 -0.8389 -0.2650
 9273TIP3    H149310   1.434   4.576   0.890  1.5747  0.3682  1.3562
 9273TIP3    H249311   1.464   4.707   0.821 -0.6138 -0.9043 -2.3054
 9274TIP3   OH249312   5.914   1.236  10.979  0.0523  0.3255  0.3386
 9274TIP3    H149313   5.839   1.295  10.984 -1.1607 -1.0920 -0.5007
 9274TIP3    H249314   5.928   1.207  11.070  0.0933  1.1853  0.6120
 9275TIP3   OH249315   5.901   1.872   0.337  0.2323 -0.0655  0.4370
 9275TIP3    H149316   5.914   1.872   0.432 -1.7939  0.3193  0.7545
 9275TIP3    H249317   5.984   1.839   0.302  0.2570 -2.4774  2.4507
 9276TIP3   OH249318   6.477   0.954  13.440  0.1460  0.2786  0.7130
 9276TIP3    H149319   6.384   0.958  13.418  0.4369 -0.4424 -0.7483
 9276TIP3    H249320   6.514   0.892  13.377  1.2511 -1.0907  2.5976
 9277TIP3   OH249321   0.020   1.471  14.789 -0.3465 -0.2133  0.0794
 9277TIP3    H149322  -0.031   1.530  14.734  0.1228  0.4945  0.3872
 9277TIP3    H249323   0.105   1.514  14.800 -0.2145 -0.6293  0.8498
 9278TIP3   OH249324   5.051   3.392   0.207  0.4024  0.1352 -0.1964
 9278TIP3    H149325   5.103   3.384   0.286  0.0683  0.1257  0.0244
 9278TIP3    H249326   5.019   3.482   0.208  0.6372  0.2228 -0.4702
 9279TIP3   OH249327   3.121   0.486   6.251  0.0371 -0.4117  0.5995
 9279TIP3    H149328   3.133   0.556   6.316  0.5864 -3.1869  3.7718
 9279TIP3    H249329   3.027   0.469   6.251 -0.4709  1.7848 -2.0351
 9280TIP3   OH249330   3.084   1.602   6.230  0.4338  0.4432 -0.4878
 9280TIP3    H149331   3.087   1.697   6.217 -2.9421  0.7747  0.1270
 9280TIP3    H249332   3.100   1.590   6.324 -0.9618  0.6414 -0.2019
 9281TIP3   OH249333   2.951   6.495   3.628 -0.1310 -0.2995  0.3069
 9281TIP3    H149334   3.000   6.551   3.568 -0.9991  2.3756  1.9272
 9281TIP3    H249335   2.861   6.499   3.596 -0.2153 -0.7539  0.4783
 9282TIP3   OH249336   1.361   1.982   2.580 -0.0371 -1.0727 -0.5379
 9282TIP3    H149337   1.440   1.943   2.617  0.4985 -0.8428 -1.4113
 9282TIP3    H249338   1.340   1.927   2.505 -0.0890 -0.5074 -0.9416
 9283TIP3   OH249339   1.752   1.507  11.959 -0.1334 -0.7090 -1.1588
 9283TIP3    H149340   1.734   1.491  12.052  1.4289  0.7976 -0.5429
 9283TIP3    H249341   1.810   1.436  11.933  1.7848  0.4169 -0.1405
 9284TIP3   OH249342   6.056   5.580  13.781  0.1800 -0.2350 -0.2765
 9284TIP3    H149343   6.034   5.492  13.812  0.6168 -0.7519 -1.3963
 9284TIP3    H249344   6.116   5.614  13.848 -0.5685 -0.4897  0.5446
 9285TIP3   OH249345   6.069   5.780   1.604  0.6232 -0.4560 -0.1292
 9285TIP3    H149346   6.128   5.711   1.634 -0.3265 -1.4048 -0.3807
 9285TIP3    H249347   6.020   5.740   1.532 -0.9836 -0.0170  0.6734
 9286TIP3   OH249348   4.487   0.719   3.004  0.2238  0.6267 -0.0671
 9286TIP3    H149349   4.579   0.694   3.000  0.2030  0.6846 -2.4601
 9286TIP3    H249350   4.461   0.701   3.094  2.6800  1.0652  0.8241
 9287TIP3   OH249351   4.688   0.214  14.778  0.8886 -0.0129  0.1964
 9287TIP3    H149352   4.645   0.266  14.846 -0.7660  1.4896 -1.8326
 9287TIP3    H249353   4.690   0.125  14.812 -0.0517  0.6493  2.1041
 9288TIP3   OH249354   2.021   0.729   1.938  0.2772  0.0302  0.0645
 9288TIP3    H149355   1.929   0.744   1.915  0.5486  0.3410 -0.9004
 9288TIP3    H249356   2.019   0.653   1.996 -0.4196 -1.2580 -1.5607
 9289TIP3   OH249357   1.960   6.117   3.591  0.0711  0.5405 -0.2891
 9289TIP3    H149358   1.999   6.029   3.596 -0.5800  0.1495 -1.5669
 9289TIP3    H249359   2.015   6.171   3.648  1.3065 -0.4135 -0.5224
 9290TIP3   OH249360   6.496   3.759  12.845  0.1203  0.2011  0.4612
 9290TIP3    H149361   6.477   3.827  12.780  0.3868  1.6214  1.8162
 9290TIP3    H249362   6.483   3.676  12.798  1.0931  1.1617 -1.6105
 9291TIP3   OH249363   4.829   2.555   1.145  0.5782 -0.0532 -0.5323
 9291TIP3    H149364   4.841   2.649   1.128  2.8327 -0.7110 -3.2229
 9291TIP3    H249365   4.744   2.535   1.105  1.0698  0.4619 -1.8875
 9292TIP3   OH249366   0.158   1.160  14.333 -0.4668 -0.3363 -0.2405
 9292TIP3    H149367   0.167   1.240  14.281 -0.1732 -0.6434 -0.6671
 9292TIP3    H249368   0.214   1.175  14.409 -1.0521  0.1960  0.0949
 9293TIP3   OH249369   4.429   3.505  16.972  0.2312 -0.0051 -0.4190
 9293TIP3    H149370   4.378   3.459  17.038 -1.0511 -2.7197 -3.0466
 9293TIP3    H249371   4.363   3.543  16.913  1.3004  1.1318 -0.9186
 9294TIP3   OH249372   2.948   5.269   0.609 -0.0599  0.7728 -0.8832
 9294TIP3    H149373   3.030   5.274   0.660 -0.2599  1.6355 -0.6266
 9294TIP3    H249374   2.918   5.179   0.621  0.0397  0.8748  0.3263
 9295TIP3   OH249375   2.457   5.524   4.107 -0.3664  0.2725  0.1758
 9295TIP3    H149376   2.483   5.534   4.015 -0.5644 -0.1917  0.0658
 9295TIP3    H249377   2.362   5.511   4.103 -0.6663  2.1396  0.5838
 9296TIP3   OH249378   6.082   5.904   1.849 -0.1253  0.1118 -0.0841
 9296TIP3    H149379   6.137   5.836   1.889 -2.6076 -1.9015  0.1688
 9296TIP3    H249380   6.089   5.888   1.755 -0.8010 -0.5916 -0.0183
 9297TIP3   OH249381   2.614   4.762   4.357 -0.5747 -0.0549 -0.0288
 9297TIP3    H149382   2.620   4.706   4.280  0.2916 -0.6592  0.4507
 9297TIP3    H249383   2.703   4.796   4.369 -0.1649 -1.5589  1.8188
 9298TIP3   OH249384   4.902   6.338   3.712  0.4289 -0.1764  0.3614
 9298TIP3    H149385   4.979   6.366   3.662  0.0057  3.0400  1.3152
 9298TIP3    H249386   4.930   6.343   3.803 -0.7805  0.5712  0.6942
 9299TIP3   OH249387   4.346   2.144   4.009 -0.1162  0.5877  0.1486
 9299TIP3    H149388   4.268   2.090   4.018  0.1529 -0.0033 -0.8374
 9299TIP3    H249389   4.326   2.224   4.057 -1.6948  0.8158 -0.8065
 9300TIP3   OH249390   3.261   3.427  15.677  0.0632 -0.0375  0.0352
 9300TIP3    H149391   3.180   3.413  15.628  0.7422 -3.1335 -0.4329
 9300TIP3    H249392   3.245   3.386  15.762  0.6598  0.6600  0.4956
 9301TIP3   OH249393   1.563   5.538   1.425 -0.4490  0.0647  0.2509
 9301TIP3    H149394   1.520   5.478   1.364  0.7130 -0.5629  0.0184
 9301TIP3    H249395   1.505   5.542   1.500 -0.6613 -1.1679  0.1603
 9302TIP3   OH249396   2.265   3.115   6.079 -0.1145  0.8013 -0.1257
 9302TIP3    H149397   2.192   3.167   6.113 -0.5404  0.5754 -0.6773
 9302TIP3    H249398   2.296   3.165   6.003  0.9052  1.3651  0.6360
 9303TIP3   OH249399   6.546   2.509   1.287  0.3905 -0.3009  0.1406
 9303TIP3    H149400   6.610   2.555   1.341  1.8767 -1.0512 -0.9165
 9303TIP3    H249401   6.549   2.418   1.318  0.3093 -0.4710 -0.3513
 9304TIP3   OH249402   1.806   4.324  14.589 -0.0308  0.0298 -0.5413
 9304TIP3    H149403   1.718   4.356  14.611 -0.7527 -0.5890 -2.3107
 9304TIP3    H249404   1.854   4.326  14.672 -2.1524 -0.9776  0.8047
 9305TIP3   OH249405   3.165   4.206  10.386  0.1110  0.4695  0.1523
 9305TIP3    H149406   3.115   4.254  10.320 -0.0694  1.3252  0.8908
 9305TIP3    H249407   3.245   4.257  10.397 -0.8073  1.6109  2.1647
 9306TIP3   OH249408   3.726   1.866  16.861  0.2332  0.0952 -0.1924
 9306TIP3    H149409   3.802   1.893  16.913  0.2054 -1.4100  0.7206
 9306TIP3    H249410   3.660   1.843  16.926 -0.3644 -0.3462 -0.9393
 9307TIP3   OH249411   4.270   1.299  11.754 -0.2282  0.4106 -0.1545
 9307TIP3    H149412   4.187   1.322  11.797  0.5820 -2.7196  3.6083
 9307TIP3    H249413   4.336   1.307  11.823  2.1169 -0.2894 -2.1739
 9308TIP3   OH249414   5.062   0.070  15.074  0.2069  0.3463 -0.0258
 9308TIP3    H149415   4.999   0.016  15.121  0.3125  0.5863  0.3973
 9308TIP3    H249416   5.084   0.019  14.995 -1.2279  0.6876 -0.6694
 9309TIP3   OH249417   4.928   1.667   2.660 -0.4908  0.1891  0.1018
 9309TIP3    H149418   4.887   1.740   2.613  2.7010  0.3482 -2.8251
 9309TIP3    H249419   4.901   1.589   2.610 -1.3059 -0.3116  1.2854
 9310TIP3   OH249420   5.139   4.320  16.836 -0.3314  0.0180  0.1982
 9310TIP3    H149421   5.111   4.295  16.924  0.1877  0.5003  0.5060
 9310TIP3    H249422   5.199   4.393  16.849  1.3945 -1.2319 -0.4024
 9311TIP3   OH249423   6.022   3.679   5.514 -0.7079  0.3472 -0.1765
 9311TIP3    H149424   5.934   3.676   5.551 -0.9921  0.2844 -0.8518
 9311TIP3    H249425   6.017   3.742   5.442 -0.7045 -1.0902 -1.4956
 9312TIP3   OH249426   0.188   0.628  16.113  0.4988  0.4927 -0.1806
 9312TIP3    H149427   0.094   0.620  16.097  0.1014 -1.6482  2.5295
 9312TIP3    H249428   0.195   0.693  16.183  0.7422 -1.1832  1.4101
 9313TIP3   OH249429   6.435   3.892  16.648 -0.6503  0.6683  0.2163
 9313TIP3    H149430   6.340   3.889  16.637 -0.7846 -1.9899  1.2304
 9313TIP3    H249431   6.463   3.802  16.630  1.5682  1.2029  0.7686
 9314TIP3   OH249432   1.627   4.450   1.400 -0.2507 -0.0767 -0.1498
 9314TIP3    H149433   1.551   4.502   1.374 -0.7730  0.2845  1.9173
 9314TIP3    H249434   1.605   4.361   1.374 -0.8887  0.1903 -0.5501
 9315TIP3   OH249435   5.752   0.293  10.391  0.1623  0.3350 -0.5267
 9315TIP3    H149436   5.828   0.242  10.420 -0.2447 -0.1662 -0.3364
 9315TIP3    H249437   5.790   0.368  10.345  0.7775  0.2583 -0.1487
 9316TIP3   OH249438   4.936   0.567   1.395 -0.5008 -0.3217 -0.2570
 9316TIP3    H149439   5.002   0.574   1.464 -1.4374 -0.6543  0.6940
 9316TIP3    H249440   4.862   0.619   1.426 -0.6373  0.1964 -1.3904
 9317TIP3   OH249441   2.985   2.260   4.461 -0.4641 -0.6560  0.0499
 9317TIP3    H149442   3.014   2.304   4.382  1.0357 -0.3838  0.7169
 9317TIP3    H249443   2.936   2.184   4.430 -0.5834 -0.1223 -1.1171
 9318TIP3   OH249444   1.021   0.055  11.465  0.1069  0.7615  0.2575
 9318TIP3    H149445   0.999  -0.025  11.417  3.3933 -0.6688  0.9242
 9318TIP3    H249446   1.058   0.114  11.399  0.9306  0.3577  0.3587
 9319TIP3   OH249447   2.943   3.386  16.419  0.0752  0.0663  0.2323
 9319TIP3    H149448   3.008   3.383  16.489  1.1753 -1.0777 -0.7827
 9319TIP3    H249449   2.988   3.431  16.347 -1.0463  1.2540  0.2426
 9320TIP3   OH249450   6.095   0.878  11.205  0.9406  0.0770 -0.4410
 9320TIP3    H149451   6.039   0.830  11.265  0.2840 -1.0329 -1.8862
 9320TIP3    H249452   6.044   0.884  11.124  1.0852  3.0147 -0.4399
 9321TIP3   OH249453   6.575   2.351  16.376 -0.0478  0.4080 -0.3777
 9321TIP3    H149454   6.504   2.294  16.406  0.2892  0.8681  1.4124
 9321TIP3    H249455   6.533   2.435  16.360 -0.0833  0.4005 -0.3266
 9322TIP3   OH249456   0.980   4.561  12.849  0.9084 -0.6658 -0.1718
 9322TIP3    H149457   0.911   4.502  12.879  0.2201 -0.4433 -1.2827
 9322TIP3    H249458   1.005   4.609  12.928 -0.6371 -0.3275  0.1539
 9323TIP3   OH249459   2.910   1.372   2.961 -0.4289  0.5153 -0.2414
 9323TIP3    H149460   2.973   1.405   3.025  0.9460 -0.1168 -1.1978
 9323TIP3    H249461   2.946   1.287   2.935 -1.7374  0.1050 -0.7705
 9324TIP3   OH249462   0.190   4.371   3.306  0.1473  0.2987 -0.1597
 9324TIP3    H149463   0.127   4.389   3.376 -1.6467  0.7842 -1.8402
 9324TIP3    H249464   0.227   4.285   3.329 -1.8656 -0.4868  0.3810
 9325TIP3   OH249465   3.388   4.059  11.782 -0.3155 -0.3269 -0.2112
 9325TIP3    H149466   3.458   3.994  11.791 -0.4219 -0.1287  3.3365
 9325TIP3    H249467   3.307   4.007  11.780 -0.2993 -0.3982  0.7075
 9326TIP3   OH249468   1.585   5.269  10.923 -0.0310  0.8268  0.4753
 9326TIP3    H149469   1.564   5.178  10.944  2.3874 -0.5973 -2.5909
 9326TIP3    H249470   1.517   5.295  10.860  0.5615  0.3290 -0.3806
 9327TIP3   OH249471   6.005   2.684   2.291  0.2136 -0.2062  0.3203
 9327TIP3    H149472   5.915   2.655   2.276 -0.2231  0.0149  2.3357
 9327TIP3    H249473   6.036   2.711   2.204 -1.7849  0.0671 -0.3558
 9328TIP3   OH249474   3.407   6.670   2.267 -0.3706  0.3336 -0.1371
 9328TIP3    H149475   3.374   6.710   2.186 -0.5234  0.4961  0.0038
 9328TIP3    H249476   3.366   6.721   2.337 -1.7382 -0.9843  0.0772
 9329TIP3   OH249477   2.643   1.276   2.509 -0.0513 -0.0686 -0.2885
 9329TIP3    H149478   2.738   1.285   2.514 -0.0296 -0.2696 -0.3175
 9329TIP3    H249479   2.614   1.354   2.461  0.1472 -0.2393 -0.6921
 9330TIP3   OH249480   5.625   5.437  15.904 -0.1762  0.7510 -0.0256
 9330TIP3    H149481   5.601   5.498  15.974  1.9345  0.7061  0.8153
 9330TIP3    H249482   5.697   5.385  15.941  0.0131 -0.2735 -1.7369
 9331TIP3   OH249483   2.777   0.807   3.270 -0.1316  0.1584  0.3848
 9331TIP3    H149484   2.749   0.764   3.351  0.2007 -0.4180  0.1956
 9331TIP3    H249485   2.816   0.890   3.300  0.8374 -0.4688  0.9036
 9332TIP3   OH249486   3.317   0.069   5.051  0.3295 -0.4956 -0.4663
 9332TIP3    H149487   3.340   0.114   5.132 -0.0530 -0.8185 -0.1719
 9332TIP3    H249488   3.232   0.106   5.026  0.2427 -0.6988 -0.4814
 9333TIP3   OH249489   3.907   5.869  12.280  0.1356 -0.6275 -0.0365
 9333TIP3    H149490   3.990   5.906  12.248 -0.3049  0.2009 -0.2618
 9333TIP3    H249491   3.905   5.780  12.245 -0.4946  0.3309 -2.7158
 9334TIP3   OH249492   0.829   2.316   6.496  0.3217  0.2611 -0.5497
 9334TIP3    H149493   0.866   2.386   6.549 -0.8064 -0.0549  0.7248
 9334TIP3    H249494   0.896   2.297   6.431  1.8561  0.5544  0.8729
 9335TIP3   OH249495   0.240   0.060  15.799  0.5896 -0.8141  0.1782
 9335TIP3    H149496   0.333   0.072  15.781  0.4719 -0.3959 -0.1438
 9335TIP3    H249497   0.209   0.146  15.828  0.2961 -0.9465  0.2680
 9336TIP3   OH249498   5.742   2.452   5.346 -0.5340  0.0275 -0.4837
 9336TIP3    H149499   5.652   2.484   5.352 -0.5138  0.3855 -1.7618
 9336TIP3    H249500   5.737   2.361   5.377 -1.4494 -0.1310 -1.0599
 9337TIP3   OH249501   5.402   0.127  10.911  0.0298 -0.3177 -0.0983
 9337TIP3    H149502   5.494   0.152  10.896  0.1160  0.4299  1.5599
 9337TIP3    H249503   5.407   0.035  10.937  0.1856 -0.5969 -1.0461
 9338TIP3   OH249504   5.991   0.748   3.970 -0.3650  0.2184  0.3472
 9338TIP3    H149505   5.992   0.844   3.966  1.2632  0.2649  0.9815
 9338TIP3    H249506   6.004   0.728   4.063  0.3782 -0.6033  0.0811
 9339TIP3   OH249507   1.806   2.064   0.379 -0.6154 -0.5108 -0.1119
 9339TIP3    H149508   1.716   2.039   0.401 -0.2542 -1.1542  0.6649
 9339TIP3    H249509   1.807   2.160   0.387 -0.2861 -0.6768  3.7799
 9340TIP3   OH249510   1.694   3.948  14.182 -0.0068  0.0774  0.4404
 9340TIP3    H149511   1.737   3.889  14.244 -1.6197 -0.6641  0.9306
 9340TIP3    H249512   1.746   4.028  14.184  0.9488 -0.5412  1.4782
 9341TIP3   OH249513   6.364   1.676   2.833 -0.4074 -0.3293 -0.0783
 9341TIP3    H149514   6.434   1.613   2.847 -0.9978 -1.1025 -0.5295
 9341TIP3    H249515   6.316   1.677   2.916 -1.4398 -1.8165 -0.6109
 9342TIP3   OH249516   0.808   3.704   1.915  0.2199  0.3788  0.3478
 9342TIP3    H149517   0.879   3.751   1.873  0.3512  2.0469  2.2715
 9342TIP3    H249518   0.738   3.769   1.925 -0.2569 -0.2812  1.5449
 9343TIP3   OH249519   0.100   0.334   5.001  0.5097  0.4127 -0.0623
 9343TIP3    H149520   0.072   0.339   4.910 -2.2545 -3.5010  0.3216
 9343TIP3    H249521   0.042   0.395   5.047  0.6211  0.9934 -0.6901
 9344TIP3   OH249522   4.088   5.271   1.686 -0.6287 -0.2573 -0.0811
 9344TIP3    H149523   4.005   5.274   1.734 -0.5259 -1.1776  0.1854
 9344TIP3    H249524   4.062   5.265   1.594 -0.8476  0.1810 -0.0478
 9345TIP3   OH249525   5.826   6.504  15.670 -0.4698 -0.0719  0.5449
 9345TIP3    H149526   5.822   6.595  15.701  0.4216  0.5420 -1.0414
 9345TIP3    H249527   5.792   6.453  15.744 -0.9022  1.5240  1.5149
 9346TIP3   OH249528   2.586   0.715  15.780 -0.0228 -0.5576 -0.1027
 9346TIP3    H149529   2.535   0.750  15.853 -1.3386 -0.9098 -0.8409
 9346TIP3    H249530   2.677   0.734  15.804 -0.5508  1.2442  0.6035
 9347TIP3   OH249531   4.568   4.275   6.214 -0.1566  0.0728 -0.6801
 9347TIP3    H149532   4.519   4.200   6.246  0.8438 -0.5378 -0.5443
 9347TIP3    H249533   4.653   4.269   6.258 -0.1952  1.5050 -0.3581
 9348TIP3   OH249534   4.343   6.189  16.033 -0.0733 -0.0810 -0.0200
 9348TIP3    H149535   4.427   6.149  16.053 -0.0293 -0.3528 -0.7314
 9348TIP3    H249536   4.327   6.249  16.106  0.9870  0.3774 -0.1495
 9349TIP3   OH249537   0.572   4.357   3.014  0.3811  0.1557  0.0251
 9349TIP3    H149538   0.541   4.429   3.068 -1.1293  0.4810 -1.2228
 9349TIP3    H249539   0.562   4.279   3.069 -1.1849  0.4704  0.2240
 9350TIP3   OH249540   2.166   5.030  16.986  0.7347 -0.3766  0.0950
 9350TIP3    H149541   2.178   5.026  16.891  1.1213  0.8296  0.0647
 9350TIP3    H249542   2.115   4.952  17.008 -0.9188  0.2417 -1.3373
 9351TIP3   OH249543   4.352   1.006  15.289  0.0268  0.3468 -0.8582
 9351TIP3    H149544   4.435   0.990  15.333 -1.1452 -0.3633  1.2469
 9351TIP3    H249545   4.288   1.015  15.360 -2.1860 -1.9597 -2.3555
 9352TIP3   OH249546   1.467   3.893  12.512 -0.3037  0.4285 -0.0422
 9352TIP3    H149547   1.389   3.940  12.542  1.1042  2.6546  0.3316
 9352TIP3    H249548   1.497   3.942  12.436  0.2713 -0.9226 -0.7213
 9353TIP3   OH249549   6.262   4.269   4.482 -0.2850 -0.5520  0.0221
 9353TIP3    H149550   6.273   4.189   4.533 -0.2216 -1.4020 -1.2640
 9353TIP3    H249551   6.318   4.256   4.405 -0.3365  0.6983 -0.2481
 9354TIP3   OH249552   2.448   1.195   1.648 -0.2768 -0.0451 -0.0293
 9354TIP3    H149553   2.372   1.248   1.672  0.4990  0.9296  0.3156
 9354TIP3    H249554   2.476   1.227   1.563 -1.0454 -1.3172 -0.7964
 9355TIP3   OH249555   0.574   0.109  13.425  0.2386 -0.1615  0.1455
 9355TIP3    H149556   0.528   0.087  13.343 -1.5642 -0.3409  1.1477
 9355TIP3    H249557   0.536   0.193  13.451 -0.0155 -0.6366  1.3486
 9356TIP3   OH249558   5.665   3.607  12.239 -0.3644 -0.0572 -0.4365
 9356TIP3    H149559   5.657   3.699  12.213 -1.0491  0.8087  2.4703
 9356TIP3    H249560   5.608   3.560  12.178 -2.8056  1.9426  0.1333
 9357TIP3   OH249561   5.812   3.424   4.954 -0.6751  0.4057  0.5671
 9357TIP3    H149562   5.781   3.488   5.017 -0.0455 -0.6944  2.0453
 9357TIP3    H249563   5.894   3.460   4.921  1.3935 -0.9284  3.7509
 9358TIP3   OH249564   0.280   0.744   3.530  0.2282  0.0774 -0.3058
 9358TIP3    H149565   0.306   0.698   3.449 -2.4419 -1.0636 -0.6179
 9358TIP3    H249566   0.207   0.799   3.504  1.4476  2.2967  0.7276
 9359TIP3   OH249567   5.487   0.660  13.642 -0.1459 -0.4211 -0.2394
 9359TIP3    H149568   5.556   0.708  13.596  0.5041 -1.9363 -0.8921
 9359TIP3    H249569   5.485   0.699  13.730  0.0888  1.0475 -0.8609
 9360TIP3   OH249570   5.450   4.579  15.674 -0.0269 -0.2143  0.1438
 9360TIP3    H149571   5.422   4.495  15.709 -2.6364  0.1967 -0.7526
 9360TIP3    H249572   5.537   4.562  15.637  0.1968 -2.0673  1.4094
 9361TIP3   OH249573   2.372   0.564   4.957 -0.1716  0.4171  0.5011
 9361TIP3    H149574   2.287   0.596   4.987 -0.5980  1.1383 -1.3283
 9361TIP3    H249575   2.403   0.632   4.897  0.8288 -0.7061 -0.3123
 9362TIP3   OH249576   0.054   5.241  13.830  0.6479  0.0602  0.2765
 9362TIP3    H149577   0.002   5.166  13.802 -0.9089  1.6871 -1.4554
 9362TIP3    H249578   0.008   5.276  13.906  2.1408 -1.4482  1.9756
 9363TIP3   OH249579   0.982   5.624  16.211 -0.3449  0.4949 -0.1065
 9363TIP3    H149580   1.019   5.713  16.216 -2.2804  1.4305 -1.3947
 9363TIP3    H249581   1.053   5.568  16.241  0.8116  2.4985  1.1716
 9364TIP3   OH249582   2.023   4.062  14.615  0.6071  0.0409 -0.0013
 9364TIP3    H149583   2.019   3.966  14.620  0.5911  0.0284 -0.2342
 9364TIP3    H249584   1.952   4.086  14.556  1.1269  0.1359 -0.6011
 9365TIP3   OH249585   3.076   6.717  13.927 -0.1503  0.1703 -0.6334
 9365TIP3    H149586   3.031   6.696  13.845 -1.7725  0.3980  0.1544
 9365TIP3    H249587   3.084   6.812  13.927 -0.0307  0.1611 -0.5850
 9366TIP3   OH249588   1.624   6.447  13.286  0.2600  0.5220 -0.2934
 9366TIP3    H149589   1.601   6.412  13.200 -0.0890  0.4788 -0.1815
 9366TIP3    H249590   1.670   6.376  13.330 -0.1001  0.3397 -0.2141
 9367TIP3   OH249591   0.344   1.537  17.082  0.2850  0.0561 -0.2802
 9367TIP3    H149592   0.375   1.469  17.022  0.1329 -0.1000 -0.1835
 9367TIP3    H249593   0.399   1.529  17.160 -0.3128 -0.5483  0.0911
 9368TIP3   OH249594   2.943   2.414  13.266  0.2620 -0.2968 -0.4105
 9368TIP3    H149595   2.959   2.494  13.215  0.4188 -0.7694 -1.1137
 9368TIP3    H249596   2.972   2.436  13.354  1.2418  0.1040 -0.8169
 9369TIP3   OH249597   4.465   0.189   4.957 -0.5686  0.1669 -0.0627
 9369TIP3    H149598   4.513   0.214   4.878 -0.1957 -0.1963  0.0455
 9369TIP3    H249599   4.533   0.172   5.022 -0.7940 -1.4382 -0.2163
 9370TIP3   OH249600   4.677   1.297  12.482 -0.2232  0.7621  0.3807
 9370TIP3    H149601   4.731   1.220  12.499  0.7957  1.2419 -0.5458
 9370TIP3    H249602   4.737   1.360  12.441 -0.8774  2.2715  1.6304
 9371TIP3   OH249603   1.692   0.651  15.163 -0.0437  0.0958  0.1211
 9371TIP3    H149604   1.618   0.671  15.105 -1.7194 -1.1258  1.7179
 9371TIP3    H249605   1.752   0.600  15.108 -1.8162 -1.4715 -0.4762
 9372TIP3   OH249606   5.049   4.474  16.531 -0.0070 -0.0575 -0.8525
 9372TIP3    H149607   5.140   4.483  16.557 -0.3196 -0.7307  0.5388
 9372TIP3    H249608   5.009   4.558  16.554 -0.6580 -1.1517  2.6554
 9373TIP3   OH249609   5.025   2.916   1.623  0.2160  0.2695 -0.7441
 9373TIP3    H149610   5.051   2.825   1.638  1.0734  0.6599  0.3020
 9373TIP3    H249611   5.098   2.968   1.658 -0.5922  1.3650 -0.6271
 9374TIP3   OH249612   6.763   0.296  11.393 -0.0455 -0.6033  0.3125
 9374TIP3    H149613   6.832   0.343  11.439  1.1289 -1.1570 -0.8360
 9374TIP3    H249614   6.805   0.217  11.360 -0.5796  0.1319 -2.3908
 9375TIP3   OH249615   0.997   2.286   0.556  0.7560  0.8645  0.0651
 9375TIP3    H149616   0.959   2.198   0.558 -0.3378  1.2740 -1.2827
 9375TIP3    H249617   1.039   2.292   0.471  0.5841  1.7451  0.0368
 9376TIP3   OH249618   2.153   1.700   6.690 -0.9700 -0.2966  0.1692
 9376TIP3    H149619   2.234   1.648   6.691 -1.2383 -0.7135  1.0648
 9376TIP3    H249620   2.111   1.678   6.607 -0.8043 -1.0957  0.2905
 9377TIP3   OH249621   0.585   1.381  12.045  0.4210 -0.0038  0.4400
 9377TIP3    H149622   0.668   1.360  12.002  0.5089  1.2239 -0.0522
 9377TIP3    H249623   0.568   1.308  12.104  0.5773 -1.5123 -1.2848
 9378TIP3   OH249624   5.780   1.944  11.733 -0.0695 -0.3698 -0.7272
 9378TIP3    H149625   5.809   2.034  11.740  0.2507 -0.5222 -0.0838
 9378TIP3    H249626   5.767   1.915  11.823  2.2430 -1.7486 -0.7756
 9379TIP3   OH249627   0.384   3.563  10.517  0.1395  0.0895  0.0983
 9379TIP3    H149628   0.341   3.563  10.602 -0.5334 -0.2320 -0.2331
 9379TIP3    H249629   0.313   3.573  10.454  0.3007 -2.2883 -0.5565
 9380TIP3   OH249630   5.401   0.443  16.137  0.3094 -0.7253 -0.0024
 9380TIP3    H149631   5.471   0.462  16.075  0.6001  0.3154  0.6074
 9380TIP3    H249632   5.382   0.350  16.126  0.3084 -0.5492 -1.6677
 9381TIP3   OH249633   4.313   0.119   6.224 -0.0989  0.3877 -0.3013
 9381TIP3    H149634   4.375   0.180   6.185 -0.5856  0.6363 -0.6850
 9381TIP3    H249635   4.330   0.036   6.179  1.1049  0.0127  0.7666
 9382TIP3   OH249636   1.203   0.529  14.105 -0.5526  0.3891 -0.1856
 9382TIP3    H149637   1.193   0.611  14.057 -1.0591  1.6265  1.9196
 9382TIP3    H249638   1.243   0.554  14.188 -1.7509 -1.3406  0.9844
 9383TIP3   OH249639   4.187   1.095   4.906  0.5643  0.6465 -0.2344
 9383TIP3    H149640   4.141   1.157   4.848  0.5800 -0.9173 -2.0058
 9383TIP3    H249641   4.183   1.012   4.860  1.6473 -0.4293  1.5068
 9384TIP3   OH249642   3.525   4.837  12.128 -0.0232 -0.0582  0.3288
 9384TIP3    H149643   3.531   4.930  12.107  2.2386  0.0987  1.4331
 9384TIP3    H249644   3.488   4.835  12.216 -0.0522 -0.2078  0.3139
 9385TIP3   OH249645   6.111   0.581  11.482 -0.2774 -0.2904  0.3469
 9385TIP3    H149646   6.020   0.555  11.467 -0.8551  1.9569 -0.5155
 9385TIP3    H249647   6.157   0.558  11.402 -0.6118  0.5404 -0.1011
 9386TIP3   OH249648   0.322   2.945   4.300  0.4392 -0.6401 -0.2374
 9386TIP3    H149649   0.287   2.935   4.389  0.6563  0.8919  0.0571
 9386TIP3    H249650   0.275   3.020   4.264 -0.3784 -1.8654 -1.8352
 9387TIP3   OH249651   4.249   0.910   5.575  0.6377  0.6191  0.2328
 9387TIP3    H149652   4.262   0.868   5.660  2.2045  1.1456  0.2820
 9387TIP3    H249653   4.335   0.943   5.551  0.5674 -0.7045 -2.2211
 9388TIP3   OH249654   3.202   1.180   6.283  0.0414 -0.5123 -0.1873
 9388TIP3    H149655   3.217   1.205   6.192 -1.1612 -0.6805 -0.4482
 9388TIP3    H249656   3.273   1.221   6.331 -0.2405  0.9669 -0.9821
 9389TIP3   OH249657   1.026   1.627  16.779 -0.1120  0.7165  0.3499
 9389TIP3    H149658   1.073   1.618  16.696  1.6210  1.4722  1.1951
 9389TIP3    H249659   0.975   1.546  16.786  1.2155 -0.2563 -0.5466
 9390TIP3   OH249660   6.356   2.599   2.305 -0.5150  0.3206 -0.1661
 9390TIP3    H149661   6.347   2.507   2.281 -2.1043 -0.0418  1.5516
 9390TIP3    H249662   6.310   2.606   2.389  1.7733  2.1511  1.0508
 9391TIP3   OH249663   3.876   4.456  13.841  0.4961  0.0083 -0.3825
 9391TIP3    H149664   3.943   4.433  13.905 -1.7170  0.2763  2.2361
 9391TIP3    H249665   3.828   4.529  13.882  0.2711  1.6912 -3.3669
 9392TIP3   OH249666   2.649   0.441   0.432 -0.1769  0.1936 -0.6176
 9392TIP3    H149667   2.690   0.462   0.348 -1.4627 -2.9757 -2.2334
 9392TIP3    H249668   2.722   0.424   0.491  0.7937  0.3738 -1.7353
 9393TIP3   OH249669   4.208   1.543   5.325  0.0784  0.1335  0.2148
 9393TIP3    H149670   4.124   1.533   5.370  0.2060  3.2965  1.4064
 9393TIP3    H249671   4.273   1.509   5.386 -0.0573  1.1118  0.9173
 9394TIP3   OH249672   4.359   6.323   0.924 -0.4095  0.0715 -0.2633
 9394TIP3    H149673   4.436   6.374   0.948  0.2216 -0.5151 -0.9673
 9394TIP3    H249674   4.355   6.254   0.990 -0.5362  0.3027 -0.0280
 9395TIP3   OH249675   1.449   4.749  12.814 -0.0919 -0.4994  0.1290
 9395TIP3    H149676   1.382   4.755  12.883  1.2264  1.4884  1.3320
 9395TIP3    H249677   1.526   4.715  12.859  0.8659  1.0653 -0.2771
 9396TIP3   OH249678   3.776   1.925  12.770 -0.0624 -0.2690 -0.1850
 9396TIP3    H149679   3.781   1.851  12.830  0.4743 -0.1893 -0.1233
 9396TIP3    H249680   3.694   1.968  12.791 -0.1222 -0.5399  0.1433
 9397TIP3   OH249681   1.619   0.035  15.840  0.0418 -0.3409 -0.5186
 9397TIP3    H149682   1.690  -0.010  15.793  1.0836  0.2903  0.4015
 9397TIP3    H249683   1.539  -0.011  15.813  1.0102 -2.4992  0.0449
 9398TIP3   OH249684   0.926   3.528  15.931 -0.3553  0.2089 -0.1114
 9398TIP3    H149685   0.848   3.476  15.950  0.4279 -1.0750 -0.3081
 9398TIP3    H249686   0.998   3.479  15.970  0.4453  1.0141 -0.5354
 9399TIP3   OH249687   4.288   3.414   1.230 -0.2274  0.3803  0.6380
 9399TIP3    H149688   4.258   3.501   1.205 -0.6105  0.3170  0.8776
 9399TIP3    H249689   4.228   3.354   1.185 -2.0374  0.2673  3.0078
 9400TIP3   OH249690   0.755   0.325   4.603  0.0590  0.3640  0.3934
 9400TIP3    H149691   0.710   0.320   4.519 -1.6472 -0.0650  1.2796
 9400TIP3    H249692   0.801   0.242   4.611 -1.0775 -0.2677  0.5507
 9401TIP3   OH249693   0.841   2.475  14.404 -0.0619 -0.0789  0.3435
 9401TIP3    H149694   0.748   2.496  14.400  0.3923  1.9763 -0.3419
 9401TIP3    H249695   0.876   2.505  14.320  1.3212 -0.3134  0.8125
 9402TIP3   OH249696   1.862   0.029   5.270  0.2827  0.0861  0.0193
 9402TIP3    H149697   1.955   0.053   5.262  0.4955 -1.1221 -1.8528
 9402TIP3    H249698   1.853   0.000   5.361  1.6909  0.4503  0.3059
 9403TIP3   OH249699   1.992   6.782  16.487 -0.0856 -0.3959 -0.4529
 9403TIP3    H149700   1.985   6.840  16.563  0.4695  1.0932 -1.5014
 9403TIP3    H249701   2.063   6.721  16.509  0.8660  0.7648 -0.2447
 9404TIP3   OH249702   0.602   5.672  11.432  0.3046 -1.0290 -0.4352
 9404TIP3    H149703   0.544   5.737  11.472 -1.9696 -2.3357 -1.4125
 9404TIP3    H249704   0.650   5.721  11.365  0.1994  0.0528  0.2435
 9405TIP3   OH249705   4.091   1.988  12.826  0.1237 -0.0046  0.2087
 9405TIP3    H149706   4.132   1.988  12.912 -0.7110  1.6115  0.6413
 9405TIP3    H249707   4.002   2.019  12.842 -1.3796 -3.3747 -0.6918
 9406TIP3   OH249708   1.962   2.166   5.659 -0.2524  0.0468  0.0904
 9406TIP3    H149709   1.972   2.255   5.692  0.8888 -0.7398  2.0701
 9406TIP3    H249710   1.915   2.176   5.576 -0.6732  2.4148  0.5398
 9407TIP3   OH249711   0.653   5.472  11.195  0.3034 -0.1369 -0.2970
 9407TIP3    H149712   0.637   5.512  11.280  0.4538 -1.4222  0.3508
 9407TIP3    H249713   0.573   5.489  11.145  0.3981  1.0347 -0.0826
 9408TIP3   OH249714   0.798   1.731  15.669  0.2256  0.4120 -0.3928
 9408TIP3    H149715   0.786   1.643  15.634  2.0121 -1.0439  2.2847
 9408TIP3    H249716   0.710   1.762  15.688 -0.3883 -1.3714 -0.1198
 9409TIP3   OH249717   2.120   6.387  11.746 -0.2276  0.5268  0.0121
 9409TIP3    H149718   2.144   6.335  11.823 -0.3428  1.4264  0.6674
 9409TIP3    H249719   2.060   6.453  11.779 -0.3945  0.8345 -0.8867
 9410TIP3   OH249720   1.150   6.313  14.370  0.2883  0.1483 -0.1414
 9410TIP3    H149721   1.134   6.318  14.276  0.9668 -1.4168 -0.3705
 9410TIP3    H249722   1.210   6.239  14.380 -1.9035 -1.5202  1.7864
 9411TIP3   OH249723   0.481   5.536  10.671  0.1609 -0.0730 -0.1714
 9411TIP3    H149724   0.480   5.619  10.719  0.6140  1.0067 -1.9707
 9411TIP3    H249725   0.565   5.535  10.627  0.1963 -1.5508 -0.1071
 9412TIP3   OH249726   6.168   1.451   3.222  0.6167  0.0654  0.2627
 9412TIP3    H149727   6.253   1.429   3.183  0.3375 -0.9684  0.2121
 9412TIP3    H249728   6.112   1.472   3.147  0.4558 -0.6046  0.1857
 9413TIP3   OH249729   3.017   2.795  15.619  0.4675  0.2881  0.1439
 9413TIP3    H149730   3.061   2.866  15.571 -0.4521  0.5086 -0.3830
 9413TIP3    H249731   3.027   2.718  15.563 -1.1277  0.6750 -0.7375
 9414TIP3   OH249732   5.056   4.004  10.302  0.3418  0.1665  0.6177
 9414TIP3    H149733   4.963   4.004  10.279  0.1124  3.1994  1.0730
 9414TIP3    H249734   5.070   3.922  10.349 -2.2507 -0.0890  1.0735
 9415TIP3   OH249735   4.320   3.811  13.273  0.2908  0.0716 -0.1127
 9415TIP3    H149736   4.252   3.869  13.307  1.0231  1.1756 -0.4896
 9415TIP3    H249737   4.296   3.724  13.306 -1.2906  0.4274 -0.2325
 9416TIP3   OH249738   4.796   0.660   5.971  0.1586  0.4077 -0.4010
 9416TIP3    H149739   4.794   0.568   5.999 -0.5554  0.7260  0.6401
 9416TIP3    H249740   4.788   0.710   6.052 -1.3775  1.3859 -1.1167
 9417TIP3   OH249741   3.973   4.307   6.880 -0.0932  0.2422 -0.0402
 9417TIP3    H149742   3.883   4.301   6.848 -0.0407  0.2468 -0.1879
 9417TIP3    H249743   4.001   4.395   6.857  0.2526 -0.0566 -0.7900
 9418TIP3   OH249744   0.389   1.161   3.504  0.2041  0.1141  0.1294
 9418TIP3    H149745   0.301   1.167   3.540 -0.6523  0.4805 -1.9370
 9418TIP3    H249746   0.419   1.252   3.498 -0.2869  0.1976 -1.4813
 9419TIP3   OH249747   0.161   2.604   2.287 -0.0873 -0.0065 -0.1303
 9419TIP3    H149748   0.196   2.535   2.230  1.4207  0.1100  0.5835
 9419TIP3    H249749   0.107   2.558   2.351 -1.5393 -0.1694 -1.4311
 9420TIP3   OH249750   4.869   5.141  13.286 -0.6028  0.1564  0.0874
 9420TIP3    H149751   4.793   5.150  13.228 -0.4749  1.3536  0.0629
 9420TIP3    H249752   4.835   5.165  13.372 -0.3887  0.1066  0.1837
 9421TIP3   OH249753   2.126   4.548   1.369 -0.5050  0.4040 -0.2378
 9421TIP3    H149754   2.134   4.629   1.318 -0.2951  0.4989 -0.0539
 9421TIP3    H249755   2.051   4.504   1.330  0.1442  0.0831 -1.1638
 9422TIP3   OH249756   1.859   0.459   5.831  0.1177 -0.2473 -0.2385
 9422TIP3    H149757   1.772   0.493   5.851  0.3341  0.0780  0.1748
 9422TIP3    H249758   1.877   0.489   5.743  0.5054  1.1392  0.2963
 9423TIP3   OH249759   0.803   1.009  10.814 -0.2917 -0.5969 -0.5841
 9423TIP3    H149760   0.875   1.053  10.859  0.0056 -2.8613  1.3341
 9423TIP3    H249761   0.725   1.054  10.845  0.1763  1.3325 -2.0358
 9424TIP3   OH249762   1.675   1.282   0.596  0.0096 -0.2862 -0.0777
 9424TIP3    H149763   1.635   1.299   0.681 -0.3271  4.4161 -0.8793
 9424TIP3    H249764   1.769   1.295   0.610  0.2382 -1.9255  0.0032
 9425TIP3   OH249765   3.380   6.688  16.258 -0.2083  0.1171  0.4902
 9425TIP3    H149766   3.314   6.745  16.298 -0.7796 -1.0333  1.2415
 9425TIP3    H249767   3.370   6.605  16.304 -0.2061 -0.9645 -1.3653
 9426TIP3   OH249768   6.017   4.023  15.965 -0.5102  0.1153  0.6454
 9426TIP3    H149769   6.104   4.048  15.935 -0.0620 -0.3978  1.4552
 9426TIP3    H249770   6.007   4.069  16.049 -2.3208  2.7152 -0.8287
 9427TIP3   OH249771   6.723   2.435   5.764 -0.3845  0.0338 -0.3767
 9427TIP3    H149772   6.649   2.480   5.724  0.8946  1.1522 -1.5799
 9427TIP3    H249773   6.745   2.365   5.703  0.6766  0.8608 -0.9914
 9428TIP3   OH249774   1.446   3.094   0.300  0.2849  0.1913  0.4122
 9428TIP3    H149775   1.403   3.125   0.379  1.6183  1.9780  0.5038
 9428TIP3    H249776   1.495   3.170   0.267  1.1335 -0.9634 -1.1852
 9429TIP3   OH249777   1.150   3.947   3.900 -0.2642 -0.2964 -0.2386
 9429TIP3    H149778   1.070   4.000   3.897 -0.8883 -1.2270 -0.3800
 9429TIP3    H249779   1.220   4.011   3.915 -0.9118  0.6461 -1.0592
 9430TIP3   OH249780   6.190   3.729  16.411 -0.0730  0.1388  0.2540
 9430TIP3    H149781   6.119   3.790  16.392 -1.5445 -1.7752 -0.7557
 9430TIP3    H249782   6.199   3.732  16.507 -1.8103  0.1479  0.4512
 9431TIP3   OH249783   1.235   3.205   2.437 -0.9210  0.0596 -0.0245
 9431TIP3    H149784   1.204   3.295   2.433  0.8647  0.6755 -1.5768
 9431TIP3    H249785   1.291   3.195   2.360 -0.1271 -2.0136  0.7301
 9432TIP3   OH249786   2.888   1.204   4.312 -0.3290 -0.2782 -0.6266
 9432TIP3    H149787   2.794   1.200   4.330 -0.2323 -1.4403 -0.2962
 9432TIP3    H249788   2.923   1.124   4.350  0.8399  0.2520 -0.5404
 9433TIP3   OH249789   5.473   0.838  16.761 -0.6662 -0.5043 -0.3394
 9433TIP3    H149790   5.472   0.903  16.831 -1.5676  0.7617 -1.4612
 9433TIP3    H249791   5.563   0.808  16.757 -0.2292  0.6557  0.2663
 9434TIP3   OH249792   0.183   3.578  15.703 -0.0812 -0.3316  0.5046
 9434TIP3    H149793   0.212   3.666  15.730 -1.6386 -0.3418  2.5275
 9434TIP3    H249794   0.088   3.583  15.709 -0.2420 -1.8493 -0.5110
 9435TIP3   OH249795   2.577   1.471  13.562  0.0662  0.1471 -0.8680
 9435TIP3    H149796   2.502   1.445  13.508 -0.8969  1.6650 -0.3346
 9435TIP3    H249797   2.580   1.405  13.631 -0.9146  0.1470 -0.8023
 9436TIP3   OH249798   4.482   2.339  15.833  0.1109 -0.2814 -0.4949
 9436TIP3    H149799   4.551   2.399  15.861  0.4913 -0.8453 -0.1838
 9436TIP3    H249800   4.507   2.255  15.873  0.9769 -1.2780 -2.9040
 9437TIP3   OH249801   4.254   4.120  17.242 -0.3793  0.6759 -0.3462
 9437TIP3    H149802   4.192   4.053  17.270  0.6773  0.2442  1.0774
 9437TIP3    H249803   4.304   4.078  17.172  0.1896 -0.0066  0.4464
 9438TIP3   OH249804   3.749   2.294   4.300 -0.3866 -0.0542  0.1318
 9438TIP3    H149805   3.754   2.202   4.327 -2.6173 -0.6790 -1.3091
 9438TIP3    H249806   3.671   2.299   4.245 -0.2654  2.7029  0.0514
 9439TIP3   OH249807   2.669   4.953   1.477  0.1672 -0.1688  0.0512
 9439TIP3    H149808   2.576   4.936   1.486 -0.0750  1.0559  0.0337
 9439TIP3    H249809   2.703   4.877   1.429 -1.1998  0.3258 -1.8466
 9440TIP3   OH249810   6.101   4.574  17.029  0.6443  0.5104 -0.0203
 9440TIP3    H149811   6.050   4.573  17.110 -0.0328  2.4183 -0.3518
 9440TIP3    H249812   6.179   4.625  17.052  1.1170 -0.1196 -0.2205
 9441TIP3   OH249813   6.236   4.473   3.451 -1.0202 -0.7022  0.4426
 9441TIP3    H149814   6.319   4.515   3.476 -2.3772  2.1180  0.6328
 9441TIP3    H249815   6.250   4.443   3.362 -0.0892  0.7700  0.0525
 9442TIP3   OH249816   5.761   6.313   1.378  0.1562  0.2452 -0.2885
 9442TIP3    H149817   5.714   6.320   1.296 -0.6538  1.8314  0.2624
 9442TIP3    H249818   5.769   6.403   1.410  1.2884 -0.2262  0.9133
 9443TIP3   OH249819   4.631   1.714   6.329  0.0814 -0.0834 -0.2297
 9443TIP3    H149820   4.701   1.653   6.352  0.3927 -0.2968 -1.6678
 9443TIP3    H249821   4.550   1.666   6.346  0.3281 -1.0431 -1.6727
 9444TIP3   OH249822   2.604   1.249  17.014 -0.2967  0.4548  0.4590
 9444TIP3    H149823   2.598   1.159  16.983 -0.6074  0.1621  1.3209
 9444TIP3    H249824   2.664   1.292  16.953 -0.0129 -0.3776  0.1373
 9445TIP3   OH249825   6.151   3.952  16.653 -0.0936 -0.0780 -0.1705
 9445TIP3    H149826   6.079   4.013  16.644 -0.4548 -0.6259 -1.0965
 9445TIP3    H249827   6.113   3.876  16.697  0.6758  0.8717  2.3091
 9446TIP3   OH249828   4.439   2.144   6.676 -0.4441 -0.5264  0.4008
 9446TIP3    H149829   4.481   2.066   6.638  1.2311 -0.1618  1.3941
 9446TIP3    H249830   4.441   2.129   6.771 -1.8807 -0.1208  0.5201
 9447TIP3   OH249831   0.909   2.795  14.139  0.3444  0.2142  0.0980
 9447TIP3    H149832   0.888   2.812  14.231 -3.2262 -1.6589 -0.1687
 9447TIP3    H249833   0.869   2.867  14.091  1.9489  1.0336 -0.0619
 9448TIP3   OH249834   5.885   2.818   2.965 -0.8643  0.7029 -0.3200
 9448TIP3    H149835   5.819   2.763   2.923  0.4891 -0.6899 -0.6918
 9448TIP3    H249836   5.879   2.902   2.918 -0.8792 -0.1183 -1.8611
 9449TIP3   OH249837   6.449   2.848  11.882  0.5997 -0.7084  0.2608
 9449TIP3    H149838   6.378   2.784  11.881 -0.2378  0.2041 -0.0399
 9449TIP3    H249839   6.406   2.932  11.899  1.4573  0.0195 -0.9708
 9450TIP3   OH249840   0.899   4.211   5.769 -0.1942  0.3835 -0.6240
 9450TIP3    H149841   0.946   4.274   5.715 -2.1465  2.4745 -0.0559
 9450TIP3    H249842   0.934   4.223   5.857  0.8689 -0.8749 -0.8374
 9451TIP3   OH249843   2.907   1.560   1.978 -0.3682  0.2059  0.0756
 9451TIP3    H149844   2.835   1.568   2.041  0.0458  1.4283  0.4197
 9451TIP3    H249845   2.895   1.473   1.940 -0.5844 -0.6259  1.9043
 9452TIP3   OH249846   5.992   3.305  14.515  0.0240  0.1945  0.1322
 9452TIP3    H149847   5.912   3.255  14.532  2.1431 -2.7803  2.7886
 9452TIP3    H249848   5.994   3.317  14.421 -2.7186 -1.1666 -0.1929
 9453TIP3   OH249849   6.738   0.743   5.214  0.5548 -0.3195  0.9187
 9453TIP3    H149850   6.792   0.768   5.140 -1.7076  1.5185 -0.2535
 9453TIP3    H249851   6.765   0.802   5.284  0.0481  0.6679  0.3079
 9454TIP3   OH249852   4.415   5.641  16.399  0.4331  0.2349 -0.2003
 9454TIP3    H149853   4.345   5.578  16.415  1.2103 -0.6131 -0.1129
 9454TIP3    H249854   4.369   5.723  16.382 -0.6336 -0.5635 -1.3496
 9455TIP3   OH249855   3.916   3.565   3.625  0.3282 -0.5789 -1.0682
 9455TIP3    H149856   3.939   3.518   3.544  1.6233  0.0847 -1.1096
 9455TIP3    H249857   4.001   3.583   3.667 -0.2657  0.0538 -0.1110
 9456TIP3   OH249858   2.555   5.973  17.218 -0.2490  0.3432  0.1510
 9456TIP3    H149859   2.628   5.938  17.167 -0.8599 -0.9086  0.1080
 9456TIP3    H249860   2.589   5.982  17.307  0.3517  1.0801 -0.1377
 9457TIP3   OH249861   0.162   5.075   3.296  0.3501 -0.0982 -0.0895
 9457TIP3    H149862   0.154   5.011   3.226 -1.2984 -0.0676  0.0348
 9457TIP3    H249863   0.235   5.043   3.349  1.2848 -0.3979 -1.5031
 9458TIP3   OH249864   5.753   3.912  10.911  0.0504  0.2272 -0.0625
 9458TIP3    H149865   5.744   4.008  10.908  2.0225  0.4134 -1.5635
 9458TIP3    H249866   5.810   3.891  10.837  0.8295 -1.9878  1.1030
 9459TIP3   OH249867   0.697   2.623  10.899 -0.5717  0.6993  0.2102
 9459TIP3    H149868   0.678   2.585  10.985 -0.6878 -3.2939 -1.3563
 9459TIP3    H249869   0.634   2.694  10.890  0.8475  2.7625  4.1596
 9460TIP3   OH249870   2.003   4.178  16.889 -0.4246 -0.0526 -0.1343
 9460TIP3    H149871   2.043   4.203  16.972 -2.1194 -0.4147  0.8318
 9460TIP3    H249872   1.913   4.210  16.895 -0.9382 -1.1741 -1.3100
 9461TIP3   OH249873   5.221   0.286  14.757  0.2391 -0.1664 -0.6025
 9461TIP3    H149874   5.212   0.206  14.705 -0.7674 -0.5385  0.1107
 9461TIP3    H249875   5.139   0.293  14.805  1.0443  0.2998  0.7592
 9462TIP3   OH249876   6.748   0.734   2.815 -0.4907  0.0888 -0.1077
 9462TIP3    H149877   6.771   0.647   2.849 -0.4971  0.4978  0.9519
 9462TIP3    H249878   6.688   0.716   2.742 -0.7431 -0.7824  0.3051
 9463TIP3   OH249879   2.946   2.395  16.518 -1.0091  0.3708  0.2226
 9463TIP3    H149880   3.022   2.347  16.487  0.5238  1.9348  1.3438
 9463TIP3    H249881   2.871   2.349  16.481  0.2913 -3.0476  1.4821
 9464TIP3   OH249882   1.663   6.705   0.835 -0.3967 -0.2900  0.1856
 9464TIP3    H149883   1.608   6.657   0.896  0.6970 -1.7089  0.1089
 9464TIP3    H249884   1.685   6.642   0.766  0.3546  0.5686 -0.3969
 9465TIP3   OH249885   1.576   3.101  16.252 -0.2271  0.1307  0.0940
 9465TIP3    H149886   1.613   3.045  16.320 -0.8477  0.5617  0.8064
 9465TIP3    H249887   1.652   3.145  16.214  0.1036  0.0973  0.7000
 9466TIP3   OH249888   3.809   5.231  15.278  0.4704 -0.5050 -0.1942
 9466TIP3    H149889   3.801   5.323  15.254 -1.2369 -0.5202  0.1906
 9466TIP3    H249890   3.803   5.184  15.195 -2.4661 -0.4125 -0.1300
 9467TIP3   OH249891   2.556   6.230   5.563 -0.2300 -0.1079 -0.0937
 9467TIP3    H149892   2.474   6.268   5.593  0.3974 -0.0803  1.7391
 9467TIP3    H249893   2.606   6.305   5.529 -0.9072 -0.1215 -1.1675
 9468TIP3   OH249894   5.834   3.117   2.358  0.2313  0.3532  0.5448
 9468TIP3    H149895   5.875   3.191   2.403  2.3362  0.6792 -1.7124
 9468TIP3    H249896   5.886   3.041   2.383  0.6245  0.3317 -0.3128
 9469TIP3   OH249897   2.737   0.928   0.152  0.0213  0.0536 -0.3060
 9469TIP3    H149898   2.643   0.914   0.155  0.1657 -1.0309 -0.2041
 9469TIP3    H249899   2.769   0.893   0.235  0.5744 -0.1311 -0.5917
 9470TIP3   OH249900   5.835   3.587  15.840  0.0466  0.0093  0.1789
 9470TIP3    H149901   5.877   3.673  15.837  1.0905 -0.5065 -0.3746
 9470TIP3    H249902   5.758   3.597  15.784 -1.6674  1.4793  2.5886
 9471TIP3   OH249903   0.656   5.262  16.488 -0.0531 -0.1232 -0.2610
 9471TIP3    H149904   0.599   5.264  16.565  2.0208  1.4968  1.3624
 9471TIP3    H249905   0.647   5.350  16.449  2.9473  1.0606  1.4149
 9472TIP3   OH249906   2.542   5.794   4.086 -0.4414 -0.0168 -0.0604
 9472TIP3    H149907   2.580   5.708   4.098 -0.7299 -0.3216 -1.1799
 9472TIP3    H249908   2.601   5.854   4.131  0.6063 -0.6298 -0.5955
 9473TIP3   OH249909   2.958   1.203   2.237 -0.4374 -0.1584 -0.2148
 9473TIP3    H149910   2.975   1.207   2.143  1.5659 -1.3430  0.0344
 9473TIP3    H249911   3.038   1.165   2.274 -1.3874 -0.2183  1.9151
 9474TIP3   OH249912   6.548   1.949   5.733 -0.5432  0.0989  0.3525
 9474TIP3    H149913   6.486   2.018   5.758  0.3536  0.3585  2.0247
 9474TIP3    H249914   6.495   1.886   5.685 -2.5088 -0.4255  2.9801
 9475TIP3   OH249915   1.935   0.144  12.512  0.2109 -0.1005  0.2514
 9475TIP3    H149916   1.895   0.123  12.428  0.3324 -0.8614  0.3691
 9475TIP3    H249917   1.985   0.224  12.496 -0.7546  0.4510 -0.0815
 9476TIP3   OH249918   4.398   1.943  11.147 -0.2686  0.1670 -0.4402
 9476TIP3    H149919   4.413   1.971  11.056  1.4297  0.0380 -0.2439
 9476TIP3    H249920   4.308   1.912  11.148  0.6262 -3.3033 -3.0870
 9477TIP3   OH249921   5.421   4.926   1.792  0.2185 -0.2941 -0.3715
 9477TIP3    H149922   5.408   5.020   1.784  0.3914 -0.2209  0.1652
 9477TIP3    H249923   5.507   4.917   1.832 -0.2340 -0.6413  0.5736
 9478TIP3   OH249924   5.937   5.979  12.064 -0.2497  0.3237 -0.4674
 9478TIP3    H149925   5.894   5.929  11.995  0.6129  0.0463 -0.8072
 9478TIP3    H249926   5.978   5.914  12.120  1.7823  0.6292 -1.4992
 9479TIP3   OH249927   5.021   2.598   3.969  0.5902 -0.3436  0.0300
 9479TIP3    H149928   5.115   2.613   3.976  0.6509 -1.1034  1.1324
 9479TIP3    H249929   4.989   2.669   3.913  1.8132 -0.0981 -0.3836
 9480TIP3   OH249930   4.454   3.937   3.618  0.5919 -0.1383 -0.7030
 9480TIP3    H149931   4.504   4.011   3.583 -0.2479  0.1052 -1.4399
 9480TIP3    H249932   4.410   3.972   3.695  3.1693 -0.9162  1.2762
 9481TIP3   OH249933   5.767   4.891   5.512 -0.4432 -0.0232  0.2052
 9481TIP3    H149934   5.861   4.878   5.499 -0.4445 -0.9536  0.9922
 9481TIP3    H249935   5.755   4.986   5.510  0.3989  0.0772 -0.6292
 9482TIP3   OH249936   1.138   2.293   2.075 -0.7184 -0.8704  0.5261
 9482TIP3    H149937   1.140   2.224   2.142 -0.0980 -1.2094  0.1645
 9482TIP3    H249938   1.066   2.350   2.103  0.1706 -0.4363  2.0452
 9483TIP3   OH249939   3.180   1.105  12.586 -0.1134 -0.0893 -0.3078
 9483TIP3    H149940   3.194   1.015  12.615 -0.8795 -0.5025 -1.1740
 9483TIP3    H249941   3.147   1.097  12.497 -1.2743  0.9981 -0.0090
 9484TIP3   OH249942   2.461   6.738  17.083 -0.8015  0.9492 -0.1576
 9484TIP3    H149943   2.528   6.753  17.150 -2.0345  1.9019  0.9223
 9484TIP3    H249944   2.484   6.654  17.044  1.3062  1.4783 -0.1849
 9485TIP3   OH249945   0.911   5.230  13.125  0.1356 -0.3064  0.1520
 9485TIP3    H149946   0.894   5.178  13.046  2.6055  0.4621 -1.0078
 9485TIP3    H249947   0.909   5.321  13.095  0.7091  0.0197  1.0531
 9486TIP3   OH249948   0.151   3.751  16.431 -0.7373 -0.1290  0.2423
 9486TIP3    H149949   0.176   3.829  16.382 -2.1184 -0.0746 -0.4177
 9486TIP3    H249950   0.147   3.682  16.364  0.2727 -0.7381  0.7859
 9487TIP3   OH249951   5.084   2.369   3.293  0.0788  0.4964  0.0501
 9487TIP3    H149952   5.074   2.315   3.371 -1.3398  0.5326 -0.0683
 9487TIP3    H249953   5.048   2.454   3.318  0.2975  0.7300 -0.4185
 9488TIP3   OH249954   6.453   3.405  14.984  0.0899  0.0218 -0.2021
 9488TIP3    H149955   6.376   3.461  14.988 -0.1828  0.0322 -3.1808
 9488TIP3    H249956   6.418   3.316  14.981  0.3289 -0.1114  0.7918
 9489TIP3   OH249957   4.347   6.452   5.125  0.0930 -0.5293 -0.6054
 9489TIP3    H149958   4.376   6.363   5.102  2.1540  0.0973 -0.6234
 9489TIP3    H249959   4.412   6.509   5.085 -0.3586  0.9359  0.6606
 9490TIP3   OH249960   5.998   6.612  13.654  0.0896 -0.1181 -0.1942
 9490TIP3    H149961   6.046   6.684  13.614 -0.4294  1.0123  1.1564
 9490TIP3    H249962   6.020   6.536  13.600  1.4264  0.8441 -1.0616
 9491TIP3   OH249963   0.246   1.533   3.534 -0.0277 -0.2390 -0.4843
 9491TIP3    H149964   0.254   1.546   3.629 -0.3233 -0.5580 -0.4116
 9491TIP3    H249965   0.167   1.479   3.525 -0.2662  0.1918 -0.9443
 9492TIP3   OH249966   4.620   0.360   3.024 -0.5438  0.2183 -0.3382
 9492TIP3    H149967   4.647   0.447   3.055  0.9370 -0.2234 -0.3062
 9492TIP3    H249968   4.674   0.344   2.947  0.4700 -1.3540  0.6233
 9493TIP3   OH249969   4.003   4.260  14.409  0.1199 -0.1783 -0.2309
 9493TIP3    H149970   4.001   4.347  14.450  1.1040 -0.6756  0.9563
 9493TIP3    H249971   4.089   4.256  14.368  1.2325 -1.5391  2.0299
 9494TIP3   OH249972   1.720   1.768  12.929 -0.8349 -0.0338 -0.0999
 9494TIP3    H149973   1.736   1.833  12.860  2.1496  0.3719  0.8389
 9494TIP3    H249974   1.785   1.788  12.996 -1.7685 -2.2125  1.5634
 9495TIP3   OH249975   0.172   1.460  12.275 -0.2954  0.2495  0.2835
 9495TIP3    H149976   0.079   1.439  12.283 -0.3272 -0.1255 -0.9236
 9495TIP3    H249977   0.216   1.389  12.323 -0.5323 -1.1591 -1.4576
 9496TIP3   OH249978   6.739   1.282  16.189 -0.2969 -0.2120  0.1104
 9496TIP3    H149979   6.712   1.340  16.260 -0.6681  0.2817 -0.4245
 9496TIP3    H249980   6.770   1.341  16.120  1.8746 -0.7482  0.5664
 9497TIP3   OH249981   6.274   5.349   3.377  0.1233 -0.2085  0.3348
 9497TIP3    H149982   6.255   5.400   3.456 -0.6897 -0.8902  0.6007
 9497TIP3    H249983   6.337   5.283   3.405  0.0450 -0.2778  0.3492
 9498TIP3   OH249984   0.055   2.931  15.993 -0.2861 -0.3955  0.2350
 9498TIP3    H149985   0.120   2.964  15.931 -1.9212  0.4514 -1.1146
 9498TIP3    H249986   0.068   2.982  16.073  0.3174  0.1877 -0.2302
 9499TIP3   OH249987   6.108   6.504  11.898  0.2188  0.1867 -0.4438
 9499TIP3    H149988   6.190   6.476  11.940 -0.1993 -0.4453 -0.0302
 9499TIP3    H249989   6.068   6.423  11.868 -0.8059  0.3690  0.3743
 9500TIP3   OH249990   4.192   3.842  14.735 -0.4474  0.4270 -0.2973
 9500TIP3    H149991   4.126   3.877  14.794 -0.0590  0.9633 -0.1791
 9500TIP3    H249992   4.271   3.892  14.754  0.1842 -0.6419  0.0240
 9501TIP3   OH249993   5.969   5.847  12.304 -0.5579 -0.0941 -0.0957
 9501TIP3    H149994   5.970   5.797  12.386 -0.8129 -0.2023 -0.1580
 9501TIP3    H249995   5.878   5.873  12.293 -0.7791 -1.1409 -0.9885
 9502TIP3   OH249996   6.364   3.443  17.172  0.3825 -0.3028  0.3166
 9502TIP3    H149997   6.427   3.462  17.242  1.0542 -1.5099  0.0693
 9502TIP3    H249998   6.381   3.352  17.149 -1.4828 -0.6625  0.2403
 9503TIP3   OH249999   5.465   5.050   3.994 -0.1031  0.3252 -0.1302
 9503TIP3    H150000   5.392   4.988   4.007 -0.6574  1.1941  1.0509
 9503TIP3    H250001   5.530   5.000   3.945  0.3225 -1.8778  2.4461
 9504TIP3   OH250002   3.205   6.011   3.406 -0.3401 -0.2625 -0.7311
 9504TIP3    H150003   3.120   5.971   3.386 -1.1067  0.5791  0.7755
 9504TIP3    H250004   3.268   5.939   3.392 -1.3926 -1.2073 -0.7935
 9505TIP3   OH250005   0.929   3.220   0.034 -0.4661  0.3152 -0.4161
 9505TIP3    H150006   0.854   3.231  -0.024 -0.7401  1.3112  0.0962
 9505TIP3    H250007   0.899   3.157   0.100 -1.4838  1.8893  0.7220
 9506TIP3   OH250008   1.382   5.364   3.386  0.4982  0.2518  0.3979
 9506TIP3    H150009   1.370   5.343   3.479  0.9541 -1.2395  0.1479
 9506TIP3    H250010   1.308   5.320   3.342  1.0976 -0.3067 -0.0777
 9507TIP3   OH250011   0.588   5.829  15.544 -0.2997  0.3496 -0.0306
 9507TIP3    H150012   0.549   5.815  15.458 -1.9212  1.5335  0.4575
 9507TIP3    H250013   0.631   5.746  15.565 -1.1463 -0.4552 -1.3269
 9508TIP3   OH250014   2.899   1.881  15.176 -0.0838 -0.0306 -0.4687
 9508TIP3    H150015   2.883   1.794  15.212  0.0731 -0.9088 -2.4195
 9508TIP3    H250016   2.938   1.866  15.090  0.5078  1.9820 -0.6209
 9509TIP3   OH250017   4.937   6.350  15.556  0.6360  0.3516 -0.6241
 9509TIP3    H150018   4.942   6.293  15.478 -1.7360  1.2439 -1.5366
 9509TIP3    H250019   4.930   6.289  15.629  1.0071 -0.5374 -1.3051
 9510TIP3   OH250020   1.980   1.820   3.069  0.2862 -0.0402 -0.1450
 9510TIP3    H150021   2.008   1.802   2.980  0.6135  2.6966 -0.6763
 9510TIP3    H250022   1.897   1.868   3.059  0.6076  0.7905  0.9643
 9511TIP3   OH250023   4.706   5.284   5.169 -0.9845 -0.2365 -0.8105
 9511TIP3    H150024   4.646   5.359   5.168 -0.0579  0.5315 -1.6962
 9511TIP3    H250025   4.723   5.266   5.077 -0.4735 -0.9516 -0.5846
 9512TIP3   OH250026   4.196   4.162  15.742  0.7895  0.3162 -0.0791
 9512TIP3    H150027   4.161   4.132  15.826 -0.6176  0.4839 -0.5788
 9512TIP3    H250028   4.286   4.130  15.741  0.7807  0.1547  1.4083
 9513TIP3   OH250029   2.120   0.470  13.263 -0.0087 -0.4117  0.1900
 9513TIP3    H150030   2.114   0.405  13.333  2.6868 -3.1564 -1.8678
 9513TIP3    H250031   2.213   0.493  13.260 -0.3034  0.7430 -1.5588
 9514TIP3   OH250032   0.080   6.063  12.818 -0.4297 -0.4495 -0.1097
 9514TIP3    H150033   0.037   6.011  12.885 -0.5480  0.0357  0.1930
 9514TIP3    H250034   0.106   5.999  12.751  2.6520 -1.5121  1.8589
 9515TIP3   OH250035   3.644   4.525   0.688 -0.1604 -0.3701  0.4373
 9515TIP3    H150036   3.726   4.478   0.671  0.2471  0.1053  1.0148
 9515TIP3    H250037   3.667   4.618   0.681 -0.6919 -0.2333  0.4358
 9516TIP3   OH250038   2.877   5.248   4.198 -0.5491 -0.0339 -0.2840
 9516TIP3    H150039   2.941   5.177   4.188 -0.4975  0.0421 -0.5111
 9516TIP3    H250040   2.839   5.235   4.285  0.4826  0.5098  0.2630
 9517TIP3   OH250041   6.347   0.873   1.932  0.1671  0.4403 -0.0224
 9517TIP3    H150042   6.393   0.943   1.887  0.0180  0.9727  0.6310
 9517TIP3    H250043   6.259   0.873   1.895 -0.1670  1.3333  0.7285
 9518TIP3   OH250044   2.872   4.545   4.474  0.4297  0.8800  0.3914
 9518TIP3    H150045   2.879   4.627   4.426  1.1335  0.5391 -0.1051
 9518TIP3    H250046   2.831   4.484   4.413  0.3467  0.7373  0.5895
 9519TIP3   OH250047   5.613   0.136  16.383  0.1705 -0.3179  0.3094
 9519TIP3    H150048   5.640   0.052  16.347  0.9423 -0.7053  1.7350
 9519TIP3    H250049   5.662   0.201  16.333 -2.7880 -0.3601 -3.0802
 9520TIP3   OH250050   0.962   5.314  14.179 -0.0206 -0.3771 -0.5944
 9520TIP3    H150051   0.898   5.308  14.108 -0.0389 -2.0486 -0.4713
 9520TIP3    H250052   0.966   5.408  14.200 -1.8869 -0.1544 -1.0855
 9521TIP3   OH250053   6.642   6.450  16.645  0.4720  0.6161 -0.5965
 9521TIP3    H150054   6.576   6.480  16.707  1.3123  1.4112 -0.0636
 9521TIP3    H250055   6.609   6.365  16.614 -0.7273  0.9466 -0.2621
 9522TIP3   OH250056   3.365   2.763  12.411 -0.6856  0.7067  0.5509
 9522TIP3    H150057   3.425   2.804  12.472  0.8492  1.7281 -1.5017
 9522TIP3    H250058   3.289   2.738  12.464  1.0711  0.3176  3.0519
 9523TIP3   OH250059   6.323   6.639   1.836 -0.2894  0.1087 -0.4011
 9523TIP3    H150060   6.352   6.725   1.867  1.8179 -1.2269  1.6632
 9523TIP3    H250061   6.231   6.652   1.812 -0.5279  2.5572  1.4544
 9524TIP3   OH250062   4.357   0.071   1.360  0.6908  0.2239  0.8289
 9524TIP3    H150063   4.437   0.031   1.325  0.5034  0.6678 -0.1227
 9524TIP3    H250064   4.290   0.049   1.296  0.3193  0.9575  0.9604
 9525TIP3   OH250065   4.633   0.106   4.662  0.6228  0.1475  0.4250
 9525TIP3    H150066   4.651   0.114   4.569  0.0800  0.8657  0.3693
 9525TIP3    H250067   4.540   0.085   4.667  1.2032 -2.7042  0.7315
 9526TIP3   OH250068   1.274   5.761  11.856  0.0828 -0.7694 -0.3929
 9526TIP3    H150069   1.321   5.678  11.842 -0.5565 -1.3418  0.6532
 9526TIP3    H250070   1.211   5.740  11.925  1.3254  1.1331  1.4258
 9527TIP3   OH250071   4.874   0.118  11.991  0.4072  0.1479  0.5812
 9527TIP3    H150072   4.922   0.192  11.953 -1.8819  0.6954 -1.5180
 9527TIP3    H250073   4.865   0.142  12.084  0.5766  2.0445  0.1641
 9528TIP3   OH250074   5.623   6.083   3.951 -0.1633 -0.4226  0.2394
 9528TIP3    H150075   5.589   6.149   3.890 -0.6240  0.2209  1.1756
 9528TIP3    H250076   5.645   6.009   3.895  0.7269  0.6422 -0.9001
 9529TIP3   OH250077   0.504   4.779  15.392 -0.3101  0.9895  0.1989
 9529TIP3    H150078   0.596   4.764  15.371 -0.8858 -1.8953 -0.7806
 9529TIP3    H250079   0.484   4.864  15.353  1.8267  1.5069  0.1254
 9530TIP3   OH250080   5.126   6.027   0.780 -0.5122 -0.6453  0.0844
 9530TIP3    H150081   5.032   6.037   0.792 -0.6007 -1.1229 -0.1960
 9530TIP3    H250082   5.156   5.985   0.861  0.2710  3.8349  2.5075
 9531TIP3   OH250083   5.644   6.071  15.093  0.1063 -0.7414  0.0015
 9531TIP3    H150084   5.578   6.008  15.065  0.9575 -2.1333  1.0253
 9531TIP3    H250085   5.669   6.118  15.013 -2.2007 -0.0546 -0.3851
 9532TIP3   OH250086   3.111   1.430  14.643 -0.1965 -0.7105  0.1475
 9532TIP3    H150087   3.166   1.363  14.684  0.1486 -0.1070  0.6939
 9532TIP3    H250088   3.157   1.451  14.562 -0.8163 -1.8204 -0.5072
 9533TIP3   OH250089   2.975   2.220   3.898 -0.3628 -0.1352 -0.0399
 9533TIP3    H150090   3.002   2.135   3.862  0.1205 -0.1129  0.2585
 9533TIP3    H250091   2.886   2.205   3.930 -0.8994 -0.0942 -1.4225
 9534TIP3   OH250092   0.284   3.710   5.776 -0.3401 -0.0071  0.0168
 9534TIP3    H150093   0.235   3.732   5.697 -1.1061 -2.0918 -0.1538
 9534TIP3    H250094   0.375   3.709   5.748 -0.6432 -1.2946 -1.0332
 9535TIP3   OH250095   2.848   1.122   3.158  0.0798  0.1322 -0.5213
 9535TIP3    H150096   2.854   1.153   3.249  0.7468 -0.4164 -0.3718
 9535TIP3    H250097   2.771   1.167   3.123 -0.3763  0.1213  0.4099
 9536TIP3   OH250098   3.560   6.008  13.930  0.4895 -0.2475 -0.3340
 9536TIP3    H150099   3.530   5.948  13.862  1.8918  0.3661 -1.5609
 9536TIP3    H250100   3.488   6.011  13.993 -1.3944  0.0766 -2.3684
 9537TIP3   OH250101   5.631   3.166  16.548 -0.3183  0.0508  0.0894
 9537TIP3    H150102   5.639   3.099  16.616 -2.2424  0.1904  0.4967
 9537TIP3    H250103   5.670   3.244  16.587 -0.5881 -0.1059  0.6755
 9538TIP3   OH250104   0.396   2.276   0.846  0.2654 -0.6954 -0.5355
 9538TIP3    H150105   0.475   2.283   0.900  0.0821 -1.6930 -0.1126
 9538TIP3    H250106   0.353   2.361   0.855  0.4588 -0.6938  0.5311
 9539TIP3   OH250107   4.344   4.112  16.441  0.0239  0.4297  0.0501
 9539TIP3    H150108   4.276   4.046  16.458  1.6158 -1.3896 -0.2119
 9539TIP3    H250109   4.381   4.132  16.527  0.0619  0.3678  0.0487
 9540TIP3   OH250110   2.646   2.759   3.742  0.1768  0.2470  0.7092
 9540TIP3    H150111   2.658   2.777   3.835  1.3554 -1.2347  0.8948
 9540TIP3    H250112   2.603   2.674   3.739  0.9696 -0.1497 -0.0715
 9541TIP3   OH250113   5.679   0.356  10.976  0.4270 -0.0622 -0.3218
 9541TIP3    H150114   5.680   0.445  10.940  1.5434 -0.2659 -0.8374
 9541TIP3    H250115   5.689   0.300  10.899 -1.1132 -0.6786 -0.0908
 9542TIP3   OH250116   3.147   2.078  10.742 -0.2783 -0.0238 -0.2596
 9542TIP3    H150117   3.186   2.164  10.757  0.2871 -0.1788 -0.7903
 9542TIP3    H250118   3.170   2.027  10.819 -2.8486  1.0394  1.3293
 9543TIP3   OH250119   0.026   1.036  17.254 -0.1521  0.1708 -0.2690
 9543TIP3    H150120   0.115   1.072  17.255  0.4244 -0.7629 -3.7602
 9543TIP3    H250121   0.037   0.945  17.281 -0.2283  0.3297  0.3043
 9544TIP3   OH250122   6.144   3.232   3.698  0.0580 -0.2437  0.2020
 9544TIP3    H150123   6.235   3.204   3.688  0.0154 -1.2981  2.2958
 9544TIP3    H250124   6.145   3.290   3.774 -0.7974  0.9346 -0.6594
 9545TIP3   OH250125   3.221   3.570   1.569  0.5017 -0.0005 -0.4117
 9545TIP3    H150126   3.221   3.500   1.504  0.7195  1.3447 -1.9131
 9545TIP3    H250127   3.132   3.606   1.565 -0.0078 -0.9680  1.2734
 9546TIP3   OH250128   5.751   3.434   2.123 -0.1924 -0.1816  0.1566
 9546TIP3    H150129   5.677   3.382   2.152 -1.3800 -0.0119 -2.3463
 9546TIP3    H250130   5.803   3.374   2.070  0.9799 -0.0275  1.0875
 9547TIP3   OH250131   4.453   5.195  13.936  0.1691  0.6007 -0.0673
 9547TIP3    H150132   4.397   5.133  13.983  0.5131 -0.3627 -0.8833
 9547TIP3    H250133   4.512   5.231  14.003 -1.4221  1.6688  0.8096
 9548TIP3   OH250134   1.439   1.813  14.104 -0.8984  0.0665 -0.3183
 9548TIP3    H150135   1.474   1.749  14.166 -0.3131 -0.7376 -1.4323
 9548TIP3    H250136   1.516   1.842  14.054 -1.4687  0.0550 -1.2281
 9549TIP3   OH250137   0.919   1.463   2.662  0.0343 -0.1650  0.3289
 9549TIP3    H150138   0.910   1.536   2.601  0.7782  0.2737  0.7136
 9549TIP3    H250139   0.851   1.478   2.728 -0.9439 -0.7902 -0.5224
 9550TIP3   OH250140   2.250   2.657  15.342 -0.4854 -0.0078  0.3380
 9550TIP3    H150141   2.247   2.669  15.437 -1.9874 -1.2553  0.4819
 9550TIP3    H250142   2.332   2.610  15.327 -0.4002 -0.1138  1.0563
 9551TIP3   OH250143   1.428   4.977   2.724 -0.3782 -0.4426  0.3828
 9551TIP3    H150144   1.471   4.922   2.789  0.6070 -0.5717 -0.3653
 9551TIP3    H250145   1.475   5.060   2.728 -1.0306 -0.0697  0.5944
 9552TIP3   OH250146   6.567   5.103   1.764  0.0135 -0.0150  0.4563
 9552TIP3    H150147   6.485   5.110   1.812  0.0740  1.1161  0.4032
 9552TIP3    H250148   6.605   5.190   1.767  0.8507 -0.3439 -0.1694
 9553TIP3   OH250149   5.441   1.948   4.714  0.6076  0.3808 -0.3314
 9553TIP3    H150150   5.506   1.883   4.688  0.3974  0.3183 -0.7101
 9553TIP3    H250151   5.492   2.019   4.753  0.8671  0.1463 -0.2404
 9554TIP3   OH250152   5.761   1.908  12.015  0.1488  0.3164  0.0991
 9554TIP3    H150153   5.815   1.846  12.063  0.3634 -0.5004 -1.1584
 9554TIP3    H250154   5.818   1.984  12.001  1.0628 -0.5910 -1.3416
 9555TIP3   OH250155   6.382   6.105  11.014  0.3165  0.6008 -0.1826
 9555TIP3    H150156   6.371   6.082  10.921 -0.4979 -0.5545  0.1860
 9555TIP3    H250157   6.430   6.032  11.052  0.8623  1.1823  0.2723
 9556TIP3   OH250158   1.521   1.656  11.943  0.7088 -0.1438  0.0825
 9556TIP3    H150159   1.558   1.741  11.917  0.1259  0.7741  2.0496
 9556TIP3    H250160   1.582   1.592  11.906  1.1188  1.0844 -1.5502
 9557TIP3   OH250161   3.395   4.203  14.707  0.1939  0.0634 -0.8456
 9557TIP3    H150162   3.395   4.217  14.801 -1.2882 -1.7888 -0.5127
 9557TIP3    H250163   3.382   4.290  14.669 -0.8790  0.6056  0.7115
 9558TIP3   OH250164   1.297   5.375  12.494 -0.3831  0.4475  0.0079
 9558TIP3    H150165   1.378   5.371  12.445 -0.3662  1.9188 -0.1289
 9558TIP3    H250166   1.307   5.309  12.563  0.4189 -0.2140 -0.7198
 9559TIP3   OH250167   5.606   3.751  16.378  0.1991 -0.0070  0.1158
 9559TIP3    H150168   5.646   3.828  16.338  2.4831 -2.0731 -1.8345
 9559TIP3    H250169   5.514   3.775  16.388  0.9703  3.2999  0.5324
 9560TIP3   OH250170   4.756   1.516   5.959 -0.1758 -0.0387 -0.1467
 9560TIP3    H150171   4.770   1.571   5.882 -1.0274 -0.1887 -0.4131
 9560TIP3    H250172   4.683   1.558   6.005 -2.6107 -2.3042 -1.6649
 9561TIP3   OH250173   2.787   3.992   0.051 -0.2543 -0.2610 -0.6228
 9561TIP3    H150174   2.730   3.915   0.055  2.0357 -1.9964  2.0635
 9561TIP3    H250175   2.869   3.963   0.091  0.5340  3.7519  1.1026
 9562TIP3   OH250176   6.458   0.327   4.872 -0.2076  0.0720 -0.2290
 9562TIP3    H150177   6.500   0.407   4.840  1.6554 -0.4704  0.6931
 9562TIP3    H250178   6.460   0.335   4.967 -0.5547 -0.8104 -0.1344
 9563TIP3   OH250179   0.363   2.455  11.602  0.4926 -0.5346  0.4014
 9563TIP3    H150180   0.325   2.390  11.544  0.2480  1.9720 -2.4993
 9563TIP3    H250181   0.289   2.510  11.629  1.2447  1.4060 -1.2389
 9564TIP3   OH250182   1.583   0.379  13.724 -0.3598  0.3075  0.2068
 9564TIP3    H150183   1.560   0.420  13.640 -1.0541 -0.0395  0.2252
 9564TIP3    H250184   1.499   0.365  13.768 -0.2043 -1.7074 -0.0511
 9565TIP3   OH250185   4.402   0.436   2.470  0.3398  0.4062 -0.2217
 9565TIP3    H150186   4.472   0.433   2.535  0.1771 -0.8591 -0.0841
 9565TIP3    H250187   4.445   0.422   2.386  0.6608  2.8243 -0.5316
 9566TIP3   OH250188   3.358   2.650   1.029  0.1000 -0.1288  0.3636
 9566TIP3    H150189   3.277   2.599   1.022 -1.1374  1.8956 -1.5103
 9566TIP3    H250190   3.407   2.630   0.950  1.4392 -1.2087  1.4061
 9567TIP3   OH250191   0.184   3.112  15.235 -0.3557 -0.0433 -0.2664
 9567TIP3    H150192   0.091   3.118  15.214 -0.7517  1.2106  1.5959
 9567TIP3    H250193   0.187   3.081  15.326  0.7620  4.1553  1.3591
 9568TIP3   OH250194   1.422   6.528   2.117  0.4021  0.4537  0.3397
 9568TIP3    H150195   1.494   6.568   2.069 -0.4241  1.6229  0.0316
 9568TIP3    H250196   1.349   6.590   2.108 -1.4149 -1.7321 -1.4365
 9569TIP3   OH250197   3.775   6.710  16.892 -0.1054  0.2206 -0.2809
 9569TIP3    H150198   3.712   6.682  16.827 -2.3850  1.7941  1.1213
 9569TIP3    H250199   3.727   6.710  16.975  2.6069 -1.5412  1.4891
 9570TIP3   OH250200   1.749   4.464   3.958 -0.0269 -0.1155  0.5985
 9570TIP3    H150201   1.729   4.375   3.987  1.2408 -0.9496 -0.9121
 9570TIP3    H250202   1.687   4.519   4.005 -0.0616 -1.6558  2.5112
 9571TIP3   OH250203   4.541   2.866   4.717  0.2438 -0.0480  0.4872
 9571TIP3    H150204   4.576   2.954   4.704 -0.9486  0.2418 -1.1652
 9571TIP3    H250205   4.515   2.863   4.809  1.0029  1.0536  0.7474
 9572TIP3   OH250206   6.189   6.566  15.049 -0.6632  0.3841  0.3554
 9572TIP3    H150207   6.191   6.476  15.017 -1.3830 -0.2481  1.9961
 9572TIP3    H250208   6.250   6.613  14.991  1.8113 -1.6821  1.0679
 9573TIP3   OH250209   6.037   5.947   1.319 -0.1583  0.2869 -0.2331
 9573TIP3    H150210   5.999   5.941   1.231 -0.5076 -2.1158  0.0070
 9573TIP3    H250211   6.091   5.868   1.327  1.5518  1.5109  0.9922
 9574TIP3   OH250212   0.779   3.782  13.573 -0.2018 -0.7229  0.3703
 9574TIP3    H150213   0.775   3.718  13.502  0.0308  0.6772 -0.9550
 9574TIP3    H250214   0.688   3.791  13.603  0.0239 -3.3186  2.1930
 9575TIP3   OH250215   1.903   5.909  16.893 -0.0021 -0.2183 -0.0196
 9575TIP3    H150216   1.969   5.864  16.945 -1.9886 -1.7639  1.2928
 9575TIP3    H250217   1.925   6.002  16.903  1.2491 -0.6223  1.3681
 9576TIP3   OH250218   6.092   2.967  11.540  0.1383 -0.4037 -0.2206
 9576TIP3    H150219   6.175   3.005  11.511 -0.1528  0.7310  0.3762
 9576TIP3    H250220   6.028   2.997  11.475 -0.2576  0.9445  0.7561
 9577TIP3   OH250221   4.401   3.218  15.719 -0.2020 -0.7004  0.2552
 9577TIP3    H150222   4.460   3.151  15.686 -0.8629 -0.6946 -0.9981
 9577TIP3    H250223   4.458   3.283  15.760  0.7062 -0.4951 -1.2812
 9578TIP3   OH250224   4.342   3.501  14.476  0.1946 -0.0193 -0.3951
 9578TIP3    H150225   4.354   3.470  14.386  0.7092 -1.5466  0.1695
 9578TIP3    H250226   4.431   3.521  14.506 -0.1293  2.2472 -0.7815
 9579TIP3   OH250227   1.917   4.787  16.909  0.5788  0.0676 -0.2921
 9579TIP3    H150228   1.913   4.765  17.002 -0.4123 -0.6725 -0.4902
 9579TIP3    H250229   2.006   4.765  16.883  0.1631 -2.1372 -0.0588
 9580TIP3   OH250230   3.564   5.910   0.195  0.4145  0.1681  0.1092
 9580TIP3    H150231   3.525   5.987   0.153 -0.5444 -0.5049 -0.2774
 9580TIP3    H250232   3.489   5.857   0.221  1.0302 -1.6614 -1.5569
 9581TIP3   OH250233   4.814   3.115   3.544  0.0276  0.4119  0.7281
 9581TIP3    H150234   4.827   3.032   3.498 -0.6250  1.1815 -0.9292
 9581TIP3    H250235   4.759   3.092   3.619  0.7223 -0.8085  0.9020
 9582TIP3   OH250236   0.626   2.902   6.193  0.3086  0.6097 -0.0588
 9582TIP3    H150237   0.573   2.859   6.260  1.6707  0.3594  0.8842
 9582TIP3    H250238   0.692   2.837   6.169  0.8161  1.2649 -0.4785
 9583TIP3   OH250239   2.200   2.538   1.426 -0.6537 -0.1051 -0.4280
 9583TIP3    H150240   2.296   2.544   1.426 -0.6446 -0.2253  0.0395
 9583TIP3    H250241   2.171   2.627   1.445 -0.6072 -0.3129  0.7086
 9584TIP3   OH250242   2.606   0.132  14.223 -0.0250  0.3377  0.0348
 9584TIP3    H150243   2.683   0.148  14.278  0.0780 -0.0697  0.0136
 9584TIP3    H250244   2.633   0.159  14.135 -0.4629  1.7894  0.3106
 9585TIP3   OH250245   6.569   1.572   3.000 -0.2822 -0.4926  0.0439
 9585TIP3    H150246   6.636   1.520   3.044  0.8252 -0.6802 -1.7328
 9585TIP3    H250247   6.611   1.657   2.985  0.4060 -1.2044 -2.8107
 9586TIP3   OH250248   4.241   5.027  14.514 -0.0373 -0.4586  0.5256
 9586TIP3    H150249   4.317   4.998  14.565 -0.2332 -0.1817  0.9856
 9586TIP3    H250250   4.165   4.998  14.565 -0.2423  1.1410  1.1957
 9587TIP3   OH250251   4.165   2.981  16.493 -0.2128  0.1841 -0.5940
 9587TIP3    H150252   4.108   3.029  16.433 -0.2720  1.1573  0.2236
 9587TIP3    H250253   4.185   2.899  16.446 -1.1635  0.4241 -1.4570
 9588TIP3   OH250254   2.611   1.356   3.248  0.3491  0.0842  0.3651
 9588TIP3    H150255   2.702   1.386   3.246  0.0538  1.5559  3.1056
 9588TIP3    H250256   2.604   1.293   3.177  3.3301  0.4060 -0.3296
 9589TIP3   OH250257   4.818   6.595   1.185 -0.5214 -0.5566 -0.2391
 9589TIP3    H150258   4.786   6.516   1.228 -0.1330 -0.5419  0.0805
 9589TIP3    H250259   4.885   6.630   1.244 -1.7228  0.8367  0.3712
 9590TIP3   OH250260   3.548   3.737   5.639 -0.0324 -0.0365  0.0627
 9590TIP3    H150261   3.552   3.807   5.574 -0.8043 -0.4890 -0.4978
 9590TIP3    H250262   3.584   3.660   5.593 -3.2621 -1.1234 -0.9371
 9591TIP3   OH250263   0.667   0.438  10.584 -0.6596  0.2463  0.1352
 9591TIP3    H150264   0.616   0.396  10.515 -0.4161 -0.4957  0.3942
 9591TIP3    H250265   0.661   0.532  10.565  1.1668 -0.0176 -2.1740
 9592TIP3   OH250266   0.020   4.350  14.996  0.3431  0.3924  0.6597
 9592TIP3    H150267   0.028   4.275  14.937 -0.3634  1.3686 -0.7144
 9592TIP3    H250268   0.108   4.388  14.999  0.3598  0.4057  0.1254
 9593TIP3   OH250269   2.989   4.484   3.083  0.8123 -0.1070 -0.4050
 9593TIP3    H150270   2.958   4.574   3.085 -0.5553 -0.5662  1.1049
 9593TIP3    H250271   2.998   4.463   2.990 -2.0937  0.5144 -0.8998
 9594TIP3   OH250272   2.457   3.543  13.165 -0.1731  0.2059  0.4654
 9594TIP3    H150273   2.372   3.571  13.132  0.1741 -0.4550 -1.0356
 9594TIP3    H250274   2.440   3.458  13.205 -0.1917 -0.0055  0.0133
 9595TIP3   OH250275   3.656   2.098   2.816  0.4624 -0.4365  0.0168
 9595TIP3    H150276   3.734   2.149   2.841  0.5253 -0.5518  0.0578
 9595TIP3    H250277   3.668   2.082   2.722  0.7327 -0.8696  0.1207
 9596TIP3   OH250278   1.560   5.602   6.774 -0.4650 -0.2231  0.4183
 9596TIP3    H150279   1.547   5.510   6.752 -1.0181 -0.5912  2.1353
 9596TIP3    H250280   1.593   5.642   6.694 -1.8776 -1.5533 -0.8642
 9597TIP3   OH250281   1.529   4.539   6.706 -0.1522 -0.3519  0.8250
 9597TIP3    H150282   1.618   4.505   6.708 -0.5658 -1.5284 -0.1428
 9597TIP3    H250283   1.504   4.538   6.614 -1.1380  0.0808  1.0721
 9598TIP3   OH250284   3.985   1.128  17.244 -0.2949 -0.1308  0.4344
 9598TIP3    H150285   3.928   1.092  17.312 -0.0165 -0.9266  0.2646
 9598TIP3    H250286   3.930   1.190  17.196 -0.8022 -0.3490  0.7300
 9599TIP3   OH250287   4.537   0.364  14.962 -0.4813  0.0048 -0.1102
 9599TIP3    H150288   4.450   0.324  14.968 -0.6378  0.4979  1.1554
 9599TIP3    H250289   4.556   0.394  15.051  0.4242  1.0800 -0.6460
 9600TIP3   OH250290   2.093   6.794  15.227 -0.2236  0.1039 -0.2945
 9600TIP3    H150291   2.175   6.843  15.217  0.0288 -0.5987 -2.0761
 9600TIP3    H250292   2.041   6.846  15.288  0.9947  1.2957 -0.2297
 9601TIP3   OH250293   0.901   5.746   2.063 -0.1187  0.0673  0.3464
 9601TIP3    H150294   0.887   5.683   1.993  0.1604  0.1778  0.1889
 9601TIP3    H250295   0.929   5.693   2.138  0.4003  0.0299  0.1307
 9602TIP3   OH250296   5.703   5.893   5.753 -0.0753 -0.2493  0.1683
 9602TIP3    H150297   5.694   5.972   5.807  0.1341  0.6530 -1.0810
 9602TIP3    H250298   5.746   5.829   5.810  2.3563  1.4424  0.3545
 9603TIP3   OH250299   5.775   2.918   5.507  0.3514  0.0634  0.5265
 9603TIP3    H150300   5.852   2.975   5.506  0.5816 -0.1243 -2.5844
 9603TIP3    H250301   5.810   2.830   5.492 -0.3885 -0.1266 -0.1623
 9604TIP3   OH250302   2.555   0.163   1.664  0.1591  0.3240 -0.2014
 9604TIP3    H150303   2.546   0.254   1.694  1.8749  0.3296  0.3761
 9604TIP3    H250304   2.472   0.122   1.689  0.3570  1.0742  1.9041
 9605TIP3   OH250305   2.590   1.739  13.904  0.2085  0.3775 -0.2350
 9605TIP3    H150306   2.533   1.759  13.830  0.2856  2.7622  0.2776
 9605TIP3    H250307   2.573   1.809  13.967  2.2697  0.0496  0.7690
 9606TIP3   OH250308   5.643   6.179   4.223 -0.3999 -0.1258 -0.3646
 9606TIP3    H150309   5.720   6.131   4.253  0.5267  0.7350 -1.2835
 9606TIP3    H250310   5.620   6.138   4.139 -1.2159 -0.6552  0.1056
 9607TIP3   OH250311   0.278   0.366  16.879 -0.0656  0.2348  0.2101
 9607TIP3    H150312   0.362   0.407  16.900  0.2223  0.2609 -0.8927
 9607TIP3    H250313   0.265   0.387  16.786  0.1088 -2.1578 -0.4289
 9608TIP3   OH250314   0.669   3.113   4.684 -0.4069  0.5880 -0.0631
 9608TIP3    H150315   0.625   3.030   4.665 -1.6397  1.1618  0.2252
 9608TIP3    H250316   0.747   3.087   4.734  1.4588 -0.7173 -3.2934
 9609TIP3   OH250317   2.635   3.992   1.500 -0.0714 -0.1599 -0.3883
 9609TIP3    H150318   2.678   3.933   1.562 -1.1774 -0.7172 -0.1192
 9609TIP3    H250319   2.647   3.951   1.415  0.0596 -0.2319 -0.3358
 9610TIP3   OH250320   6.629   4.114  12.274  0.2405 -0.4951  0.1979
 9610TIP3    H150321   6.633   4.070  12.359 -1.7281 -1.2836 -0.0700
 9610TIP3    H250322   6.674   4.055  12.214 -0.3598 -1.0338  0.2754
 9611TIP3   OH250323   0.753   5.106   3.833 -0.3730 -0.3453  0.2082
 9611TIP3    H150324   0.733   5.150   3.915  0.1803 -1.1559  0.7939
 9611TIP3    H250325   0.808   5.032   3.858  0.6810 -0.0045 -1.0017
 9612TIP3   OH250326   6.729   5.204  17.251 -0.5473  0.2265  0.2183
 9612TIP3    H150327   6.736   5.293  17.218 -0.7549 -0.5671 -2.1197
 9612TIP3    H250328   6.815   5.186  17.290 -0.0451  0.9880 -0.5062
 9613TIP3   OH250329   6.678   1.657  15.816  0.2541 -0.4928  0.0247
 9613TIP3    H150330   6.709   1.747  15.822 -0.1878 -0.3115 -0.3246
 9613TIP3    H250331   6.583   1.663  15.823  0.1371 -0.8184 -1.0312
 9614TIP3   OH250332   3.240   6.121  15.618 -0.8822 -0.4934  0.0084
 9614TIP3    H150333   3.250   6.204  15.571 -2.8401 -0.2196 -0.0251
 9614TIP3    H250334   3.295   6.060  15.571  0.0873  0.6344 -0.3725
 9615TIP3   OH250335   1.315   0.384   5.307  0.2870 -0.0575 -0.0448
 9615TIP3    H150336   1.347   0.473   5.296  0.0740 -0.0687 -0.8107
 9615TIP3    H250337   1.348   0.337   5.231  0.6722 -0.7220  0.5163
 9616TIP3   OH250338   1.423   6.037   4.441 -0.5809 -0.2609 -0.9110
 9616TIP3    H150339   1.482   6.081   4.381  0.7569 -0.8230 -0.0671
 9616TIP3    H250340   1.457   6.060   4.528 -0.2691 -2.3045 -0.4417
 9617TIP3   OH250341   3.098   0.552   3.909  0.5294  0.4604 -0.4525
 9617TIP3    H150342   3.132   0.551   3.998  0.3695  0.6829 -0.3900
 9617TIP3    H250343   3.076   0.460   3.891 -1.0515  0.6500  0.3541
 9618TIP3   OH250344   4.789   1.747  13.364 -0.1469 -0.3510  0.0706
 9618TIP3    H150345   4.744   1.799  13.430 -0.1330  1.4303 -1.2561
 9618TIP3    H250346   4.798   1.660  13.403 -4.4387 -0.7706  0.5699
 9619TIP3   OH250347   2.852   0.299   2.170 -0.0417 -0.7739  0.1310
 9619TIP3    H150348   2.882   0.354   2.098 -1.5606  0.3807  0.3198
 9619TIP3    H250349   2.815   0.360   2.234 -1.4382 -1.9631  0.5386
 9620TIP3   OH250350   5.951   2.051   1.849 -0.4413 -0.2489  0.1444
 9620TIP3    H150351   5.924   1.961   1.868 -1.9986 -0.1686 -1.4451
 9620TIP3    H250352   6.040   2.042   1.814 -0.8379 -1.2754 -0.6624
 9621TIP3   OH250353   0.645   0.555  15.255 -0.0009  0.1875  0.0527
 9621TIP3    H150354   0.559   0.577  15.220 -0.3036  0.7744  1.0974
 9621TIP3    H250355   0.629   0.543  15.349  1.1641  0.9201  0.3580
 9622TIP3   OH250356   3.849   3.310  15.617 -0.1743 -0.1848  0.3075
 9622TIP3    H150357   3.942   3.332  15.619 -0.0964 -0.5043  0.1541
 9622TIP3    H250358   3.805   3.392  15.641  0.1591 -0.1289  0.7543
 9623TIP3   OH250359   3.289   6.105   1.810  0.0413 -0.4082 -0.3574
 9623TIP3    H150360   3.220   6.163   1.781  0.5682  1.0512  1.1567
 9623TIP3    H250361   3.325   6.068   1.729 -0.5497  1.1013 -1.3519
 9624TIP3   OH250362   1.594   5.844   3.139  0.0750 -0.4064  0.3693
 9624TIP3    H150363   1.681   5.806   3.152 -0.0780 -0.6609  0.6729
 9624TIP3    H250364   1.540   5.803   3.207 -0.0470  0.5210  0.8446
 9625TIP3   OH250365   5.581   3.202   3.171  0.7532  0.3765 -0.4083
 9625TIP3    H150366   5.675   3.184   3.169  1.0763  1.9170 -2.4291
 9625TIP3    H250367   5.542   3.126   3.126  0.5706 -1.8596  3.1141
 9626TIP3   OH250368   2.792   4.399  14.263 -0.0503 -0.6204 -0.3531
 9626TIP3    H150369   2.797   4.371  14.172 -1.2862 -0.8204 -0.3772
 9626TIP3    H250370   2.814   4.321  14.314 -2.9268 -1.6043 -0.4344
 9627TIP3   OH250371   5.309   2.349  12.202 -0.2298  0.0077 -0.0916
 9627TIP3    H150372   5.357   2.349  12.285  0.2965  2.2502 -0.3256
 9627TIP3    H250373   5.338   2.269  12.158  0.9461 -0.2546  1.0776
 9628TIP3   OH250374   5.325   6.669  11.383  0.4090  0.6034  0.5203
 9628TIP3    H150375   5.318   6.627  11.468  1.7934 -0.6016  0.0908
 9628TIP3    H250376   5.406   6.719  11.388  1.1136 -0.3940 -0.4262
 9629TIP3   OH250377   4.837   6.135  13.492 -0.2050 -0.2825 -0.4229
 9629TIP3    H150378   4.801   6.047  13.498  1.0322 -0.7617  0.5670
 9629TIP3    H250379   4.773   6.191  13.535 -0.5544 -0.8582 -0.1872
 9630TIP3   OH250380   4.891   0.442  11.260 -0.7622 -0.1797  0.1100
 9630TIP3    H150381   4.862   0.372  11.319 -0.1638  0.3589  1.0831
 9630TIP3    H250382   4.864   0.522  11.304 -0.0829  0.2428 -0.2316
 9631TIP3   OH250383   5.443   0.495   3.870 -0.3272 -0.4805 -0.2733
 9631TIP3    H150384   5.529   0.465   3.898  0.2539 -1.0843 -2.5466
 9631TIP3    H250385   5.391   0.495   3.951  1.7739 -0.0271  1.1602
 9632TIP3   OH250386   2.813   0.786   4.456 -0.2095  0.3435 -0.1050
 9632TIP3    H150387   2.887   0.810   4.401  1.4044 -1.4011  1.1821
 9632TIP3    H250388   2.817   0.691   4.462 -1.1676  0.3669  1.8516
 9633TIP3   OH250389   3.082   6.397   0.076 -0.1462  0.0245 -0.7683
 9633TIP3    H150390   3.024   6.472   0.081 -0.6949 -0.3864 -0.8405
 9633TIP3    H250391   3.148   6.422   0.011 -1.2948 -0.1969 -2.0595
 9634TIP3   OH250392   4.908   6.591  14.944 -0.2727  0.0621 -0.0840
 9634TIP3    H150393   4.907   6.576  15.039 -1.7837  0.9493  0.0610
 9634TIP3    H250394   5.001   6.603  14.923  0.0584  0.1778  1.3364
 9635TIP3   OH250395   2.496   6.112   2.586 -0.2364 -0.2501 -0.2401
 9635TIP3    H150396   2.511   6.184   2.525 -0.3514 -0.1907 -0.1976
 9635TIP3    H250397   2.584   6.085   2.613 -0.2217  0.9294  0.9851
 9636TIP3   OH250398   6.337   5.039  16.556 -0.2773  0.8183  0.2874
 9636TIP3    H150399   6.329   5.094  16.479 -0.2536 -2.6980 -2.4932
 9636TIP3    H250400   6.409   5.077  16.606  0.1405  2.8911 -1.7282
 9637TIP3   OH250401   6.787   3.656   2.858 -0.2273 -0.2795  0.1956
 9637TIP3    H150402   6.693   3.674   2.863  0.1642  1.6994  2.6616
 9637TIP3    H250403   6.799   3.574   2.905 -0.5604  0.5448  1.8014
 9638TIP3   OH250404   2.829   4.328  11.571  0.0525  0.0355  0.2303
 9638TIP3    H150405   2.833   4.411  11.619 -1.8319  0.5281 -0.3619
 9638TIP3    H250406   2.736   4.317  11.550  0.5231 -1.2210 -1.4327
 9639TIP3   OH250407   2.346   6.180  16.450  0.0251  0.4910  0.1360
 9639TIP3    H150408   2.414   6.117  16.425 -0.2250 -0.7101  2.1607
 9639TIP3    H250409   2.272   6.125  16.475 -0.5718  1.6373  0.9651
 9640TIP3   OH250410   0.783   5.792  12.172  0.2874  0.0264  0.6459
 9640TIP3    H150411   0.720   5.725  12.146 -0.6077  0.7371  0.8978
 9640TIP3    H250412   0.781   5.791  12.268  1.7311 -0.8990  0.6968
 9641TIP3   OH250413   3.097   6.292  14.669 -0.0514 -0.0423  0.2173
 9641TIP3    H150414   3.112   6.230  14.597  0.1508 -0.2192  0.4113
 9641TIP3    H250415   3.013   6.266  14.705 -0.1747  0.0742  0.0164
 9642TIP3   OH250416   6.258   1.035  14.846  0.1228  0.6873  0.3172
 9642TIP3    H150417   6.273   0.987  14.765  0.0460  0.4341  0.4520
 9642TIP3    H250418   6.175   1.081  14.831  0.6506  1.5082 -0.1519
 9643TIP3   OH250419   6.670   2.658   4.455  0.4987 -0.9023  0.5317
 9643TIP3    H150420   6.763   2.635   4.457  1.2150  1.1916 -2.2107
 9643TIP3    H250421   6.666   2.744   4.495 -0.1068 -0.6183 -0.1228
 9644TIP3   OH250422   1.631   6.311  16.142 -0.4240  0.3001 -0.1724
 9644TIP3    H150423   1.589   6.376  16.198 -0.8935 -0.2570  0.1309
 9644TIP3    H250424   1.579   6.312  16.061 -0.4393  0.2947 -0.1620
 9645TIP3   OH250425   0.297   6.542  13.196 -0.7186 -0.1888  0.4946
 9645TIP3    H150426   0.357   6.605  13.237 -1.3814 -0.0575  1.2961
 9645TIP3    H250427   0.347   6.461  13.190 -0.3458  0.0080  0.8573
 9646TIP3   OH250428   1.907   0.297  11.653  0.4340 -0.4832 -0.3696
 9646TIP3    H150429   1.835   0.339  11.606 -0.1051 -0.4750  0.4464
 9646TIP3    H250430   1.874   0.283  11.742  2.1653  1.4804  0.6818
 9647TIP3   OH250431   0.901   1.405  16.884 -0.0627  0.0323  0.0467
 9647TIP3    H150432   0.940   1.389  16.970  1.5173  0.5016 -0.5303
 9647TIP3    H250433   0.859   1.323  16.860 -0.8563  0.0236  1.4220
 9648TIP3   OH250434   3.102   3.085  15.610  0.4916 -0.0463 -0.1933
 9648TIP3    H150435   3.058   3.152  15.558  2.0239  0.6387 -0.6547
 9648TIP3    H250436   3.195   3.103  15.599  0.9052  0.3426  3.0805
 9649TIP3   OH250437   4.537   2.558   5.323  0.0975 -0.2324  0.1840
 9649TIP3    H150438   4.519   2.623   5.256 -1.2691 -1.4788 -0.7308
 9649TIP3    H250439   4.516   2.603   5.406 -2.5528  0.0011 -0.5317
 9650TIP3   OH250440   0.347   5.625   1.055  0.3354  0.0917 -0.6466
 9650TIP3    H150441   0.415   5.691   1.041 -0.4805  0.9624 -0.6128
 9650TIP3    H250442   0.273   5.674   1.091 -0.7250 -0.6252 -1.7628
 9651TIP3   OH250443   1.626   3.191   0.074 -0.6658  0.1665  0.7257
 9651TIP3    H150444   1.663   3.103   0.083 -1.4724 -0.2227  0.3966
 9651TIP3    H250445   1.616   3.204  -0.020  0.6215  1.1361  0.7039
 9652TIP3   OH250446   5.177   5.427  13.819 -0.3497 -0.2126  0.1508
 9652TIP3    H150447   5.198   5.521  13.815 -1.8617  0.1800  0.6337
 9652TIP3    H250448   5.082   5.425  13.831 -0.3859 -1.8279 -0.2579
 9653TIP3   OH250449   4.986   4.715   5.091  0.5441  0.7108 -0.0153
 9653TIP3    H150450   4.902   4.684   5.126  0.6381 -0.7564 -0.9744
 9653TIP3    H250451   5.052   4.675   5.147  0.6492  2.8200  1.4845
 9654TIP3   OH250452   4.132   5.002  12.702  0.1211 -0.7635 -0.0178
 9654TIP3    H150453   4.070   5.075  12.710  0.6023 -0.4712  1.2542
 9654TIP3    H250454   4.214   5.036  12.739  0.1940 -2.1068  1.1568
 9655TIP3   OH250455   4.382   1.329   5.971  0.4410  0.0772 -0.5158
 9655TIP3    H150456   4.351   1.286   6.051 -0.2760 -0.8518 -1.2732
 9655TIP3    H250457   4.473   1.302   5.962  0.8281  0.9501  0.4723
 9656TIP3   OH250458   2.053   3.859   3.754  0.0325  0.4703 -0.6375
 9656TIP3    H150459   2.018   3.786   3.701  1.6115 -0.9250  0.1306
 9656TIP3    H250460   2.142   3.870   3.721  0.2228  1.2159  0.1237
 9657TIP3   OH250461   3.921   3.139  17.104  0.3014  0.0227 -0.1452
 9657TIP3    H150462   3.826   3.129  17.107  0.4686 -1.6797  0.5871
 9657TIP3    H250463   3.945   3.112  17.015  0.2068 -0.7351  0.0554
 9658TIP3   OH250464   5.373   5.030   6.318 -0.2328 -0.5175 -0.2593
 9658TIP3    H150465   5.373   4.997   6.407  1.5337 -0.6258 -0.2624
 9658TIP3    H250466   5.315   5.106   6.320  2.1075  1.3390  1.7330
 9659TIP3   OH250467   5.593   0.334  14.046 -0.4724  0.0407  0.4326
 9659TIP3    H150468   5.555   0.284  14.118  0.9832 -0.9563  0.5552
 9659TIP3    H250469   5.528   0.329  13.976 -0.4810 -1.9262  0.5079
 9660TIP3   OH250470   1.603   6.472  16.346 -0.2845 -0.1508  0.5844
 9660TIP3    H150471   1.643   6.557  16.367 -0.6314  0.0015  0.6537
 9660TIP3    H250472   1.658   6.408  16.391 -1.2379  0.1936  2.3681
 9661TIP3   OH250473   4.416   3.018  16.149 -0.6898  0.5036  0.7001
 9661TIP3    H150474   4.327   2.981  16.148 -0.2028 -0.7802  1.9078
 9661TIP3    H250475   4.473   2.942  16.159  0.7289  1.0944 -2.1463
 9662TIP3   OH250476   6.657   6.132   3.525 -0.1438  0.2865 -0.4282
 9662TIP3    H150477   6.727   6.173   3.474 -0.3009 -0.4023 -1.2147
 9662TIP3    H250478   6.665   6.039   3.506  1.0569 -0.2700  2.3850
 9663TIP3   OH250479   1.751   2.282   1.712  0.3861  0.0221  0.0836
 9663TIP3    H150480   1.663   2.276   1.676  0.3216 -0.2906  0.2958
 9663TIP3    H250481   1.742   2.255   1.803  0.5282  0.9227  0.3789
 9664TIP3   OH250482   2.950   2.920  13.208  0.2135  0.2368  0.0715
 9664TIP3    H150483   2.926   2.902  13.117 -0.2201  0.9886  0.0311
 9664TIP3    H250484   2.868   2.944  13.251  0.3376 -0.5951  0.7865
 9665TIP3   OH250485   0.964   6.444   4.426  0.0877 -0.7415 -0.0815
 9665TIP3    H150486   0.911   6.495   4.365 -2.7825 -2.1690  1.0213
 9665TIP3    H250487   1.043   6.422   4.376 -1.1509 -0.0688 -2.5199
 9666TIP3   OH250488   4.172   2.957  12.931 -0.5180  0.3084  0.1578
 9666TIP3    H150489   4.110   2.963  12.858  1.3160  1.6887 -1.3941
 9666TIP3    H250490   4.120   2.924  13.004 -2.4310 -1.2664 -1.7693
 9667TIP3   OH250491   6.414   0.876   0.694 -0.1428 -0.9223 -0.2051
 9667TIP3    H150492   6.497   0.858   0.737 -0.7345 -0.6780  1.0814
 9667TIP3    H250493   6.386   0.792   0.658  0.1705 -1.2221  0.2519
 9668TIP3   OH250494   1.547   6.667   0.361  0.3504  0.0879  0.1898
 9668TIP3    H150495   1.631   6.643   0.322  0.8280  0.2173  1.1238
 9668TIP3    H250496   1.538   6.609   0.437 -1.1519 -1.0234 -0.7646
 9669TIP3   OH250497   3.615   5.738   2.839 -0.1900 -0.3519  0.0910
 9669TIP3    H150498   3.656   5.654   2.814  0.2283 -0.4407  1.0273
 9669TIP3    H250499   3.582   5.723   2.927 -0.3163  0.4091  0.1783
 9670TIP3   OH250500   0.413   2.579   0.912  0.0561 -0.1767  0.0342
 9670TIP3    H150501   0.494   2.551   0.956  0.3697  0.3134 -0.2211
 9670TIP3    H250502   0.443   2.623   0.832 -0.4195  0.9607  0.4626
 9671TIP3   OH250503   6.654   1.396   1.945  0.0645  0.6410  0.9701
 9671TIP3    H150504   6.559   1.404   1.943 -0.2230 -1.9157 -0.4848
 9671TIP3    H250505   6.671   1.323   2.004  1.0071  0.2255  0.2177
 9672TIP3   OH250506   2.086   5.725   1.670 -0.3697  0.3675  0.1051
 9672TIP3    H150507   2.070   5.758   1.758 -0.8181  0.7736 -0.1216
 9672TIP3    H250508   2.173   5.686   1.674  0.0687  1.3655  0.4437
 9673TIP3   OH250509   3.722   3.638  16.948  0.4883 -0.1816 -0.2155
 9673TIP3    H150510   3.666   3.699  16.996  0.1024 -0.3668 -0.4202
 9673TIP3    H250511   3.726   3.561  17.005  2.0705  0.5197  0.6670
 9674TIP3   OH250512   4.298   5.675   0.918  0.3235 -0.1436  0.2686
 9674TIP3    H150513   4.294   5.613   0.845  0.9405 -0.5151  0.5485
 9674TIP3    H250514   4.212   5.669   0.959  0.4729 -1.0424  0.4764
 9675TIP3   OH250515   3.146   1.169  13.807  0.1286 -0.0642 -0.0928
 9675TIP3    H150516   3.056   1.136  13.802  0.1801 -0.0934 -1.0122
 9675TIP3    H250517   3.139   1.262  13.783  0.2977  0.0084  0.1374
 9676TIP3   OH250518   0.473   2.998   0.138  0.6991 -0.1471 -0.1078
 9676TIP3    H150519   0.457   3.019   0.046  0.4292  0.2338  0.0214
 9676TIP3    H250520   0.452   3.079   0.184 -2.5743 -1.2966  0.6650
 9677TIP3   OH250521   3.620   5.890  14.713 -0.1817  0.5413  0.0803
 9677TIP3    H150522   3.702   5.886  14.665 -0.5772 -0.0555 -0.5727
 9677TIP3    H250523   3.584   5.977  14.693  1.5102  1.9561  2.5189
 9678TIP3   OH250524   2.862   4.345  16.077 -0.2277 -0.4259 -0.4840
 9678TIP3    H150525   2.895   4.431  16.105 -0.7693 -0.1632 -0.6505
 9678TIP3    H250526   2.919   4.282  16.123  1.0824  0.0172 -1.4449
 9679TIP3   OH250527   5.092   2.193   4.627 -0.3972  0.3299 -0.1638
 9679TIP3    H150528   5.101   2.140   4.548 -2.8223 -2.0631  0.9804
 9679TIP3    H250529   5.153   2.154   4.689 -1.1739 -0.2741  0.2436
 9680TIP3   OH250530   2.926   6.129  13.526  0.2503 -0.1046  0.5651
 9680TIP3    H150531   2.854   6.068  13.509  2.5370 -2.9281  0.4081
 9680TIP3    H250532   2.937   6.126  13.621  1.3332 -1.1952  0.4283
 9681TIP3   OH250533   6.174   6.502   4.990  0.0830 -0.0288  0.4875
 9681TIP3    H150534   6.135   6.545   5.067  0.6738  0.1215  0.7114
 9681TIP3    H250535   6.257   6.548   4.977  0.2520 -0.4380  0.1103
 9682TIP3   OH250536   3.228   3.806  13.309 -0.1750  0.2719  0.0659
 9682TIP3    H150537   3.157   3.800  13.373 -0.4800  0.7152 -0.2278
 9682TIP3    H250538   3.219   3.894  13.272 -0.0978 -0.0445 -0.7079
 9683TIP3   OH250539   1.431   1.692  11.638  0.3847  0.1442 -0.1477
 9683TIP3    H150540   1.383   1.720  11.716  0.1207 -0.2244 -0.1717
 9683TIP3    H250541   1.518   1.731  11.648  0.3487  0.1187  0.3254
 9684TIP3   OH250542   1.104   2.649  15.284  0.3898  0.4016 -0.0953
 9684TIP3    H150543   1.112   2.621  15.192  0.5951  0.3479 -0.0615
 9684TIP3    H250544   1.134   2.740  15.283  0.5213  0.3585 -0.0574
 9685TIP3   OH250545   1.762   3.488   6.250 -1.1234 -0.4762  0.1104
 9685TIP3    H150546   1.789   3.577   6.228 -1.9083 -0.0693  0.7386
 9685TIP3    H250547   1.841   3.435   6.238 -0.7085  0.2583 -0.4998
 9686TIP3   OH250548   4.080   3.156   2.287 -0.3863 -0.3115 -0.2316
 9686TIP3    H150549   4.144   3.227   2.281 -0.0464 -0.2895  2.5653
 9686TIP3    H250550   4.031   3.161   2.205  1.1691  1.6411 -1.1111
 9687TIP3   OH250551   2.099   3.534   2.016  0.5041 -0.4995  0.3466
 9687TIP3    H150552   2.165   3.465   2.013 -1.4487 -2.4387 -0.5537
 9687TIP3    H250553   2.092   3.566   1.926  1.3888  0.9670  0.7488
 9688TIP3   OH250554   3.911   0.583  11.682 -0.1372  0.6103  0.3103
 9688TIP3    H150555   3.857   0.607  11.607  2.0533  1.4321 -1.1066
 9688TIP3    H250556   3.997   0.623  11.664  1.1975 -1.2645  2.0320
 9689TIP3   OH250557   3.345   0.032   2.459 -0.3630  0.2769 -0.0744
 9689TIP3    H150558   3.396   0.035   2.540  0.0910 -0.7169 -0.2991
 9689TIP3    H250559   3.341   0.123   2.430  2.6114  0.2777 -0.8253
 9690TIP3   OH250560   2.995   4.401  14.778  0.2759 -0.4891 -0.4060
 9690TIP3    H150561   2.935   4.475  14.778 -1.5379 -1.8826 -1.4674
 9690TIP3    H250562   3.023   4.392  14.687  1.3855 -0.4370 -0.0833
 9691TIP3   OH250563   3.454   1.191   5.711  0.2750 -0.0109 -0.5797
 9691TIP3    H150564   3.505   1.214   5.633  0.1814 -1.7482 -1.1830
 9691TIP3    H250565   3.383   1.136   5.678 -2.4045  2.7599  0.1652
 9692TIP3   OH250566   4.397   3.665  12.462  0.4835 -0.1338 -0.4676
 9692TIP3    H150567   4.360   3.640  12.547  1.3577  0.5366  0.1351
 9692TIP3    H250568   4.431   3.583  12.426 -0.1872 -0.4804 -0.3275
 9693TIP3   OH250569   6.109   6.599   1.214  0.2901 -0.8191  0.6647
 9693TIP3    H150570   6.042   6.603   1.146 -0.3880 -1.6281  1.2702
 9693TIP3    H250571   6.162   6.522   1.191 -1.0115 -2.1629  1.9891
 9694TIP3   OH250572   6.767   6.011  13.947  0.6949 -0.4781  0.5806
 9694TIP3    H150573   6.751   5.918  13.966 -2.1036 -0.3837 -0.7041
 9694TIP3    H250574   6.723   6.058  14.017 -1.9967 -0.1998 -1.1469
 9695TIP3   OH250575   6.719   4.182   2.282 -0.1535 -0.1975  0.0097
 9695TIP3    H150576   6.770   4.213   2.207 -2.5828  2.1145 -0.8514
 9695TIP3    H250577   6.768   4.107   2.315  2.7126  0.6626 -1.8889
 9696TIP3   OH250578   1.473   2.793   1.756 -0.2087  0.9272 -0.2156
 9696TIP3    H150579   1.513   2.727   1.813  0.5054  2.0720  0.6554
 9696TIP3    H250580   1.445   2.862   1.816 -2.3794  0.7375 -0.9426
 9697TIP3   OH250581   1.461   3.524  14.351  0.0153 -0.8433  0.5979
 9697TIP3    H150582   1.462   3.520  14.446  2.4041  1.6928  0.7953
 9697TIP3    H250583   1.374   3.558  14.329  0.0298  0.1688  1.9936
 9698TIP3   OH250584   5.670   6.484  13.202  0.0131  0.3404 -0.2012
 9698TIP3    H150585   5.745   6.424  13.202  0.8319  1.3172  0.4403
 9698TIP3    H250586   5.705   6.566  13.169 -1.2209  0.3526 -1.5638
 9699TIP3   OH250587   1.027   1.293   5.737  0.2051 -0.2748 -0.3968
 9699TIP3    H150588   1.076   1.253   5.809  0.6696 -0.2633 -0.6995
 9699TIP3    H250589   1.052   1.386   5.740  0.1900 -0.2653 -0.5437
 9700TIP3   OH250590   4.824   4.281  16.989  0.5911 -0.0626 -0.4225
 9700TIP3    H150591   4.889   4.223  16.951 -0.4004  0.2725 -2.8068
 9700TIP3    H250592   4.747   4.226  17.003  1.0468 -0.2637  1.5667
 9701TIP3   OH250593   0.367   2.335  12.072 -0.2176 -0.2073 -0.0808
 9701TIP3    H150594   0.364   2.431  12.069 -0.3705 -0.2330 -1.5338
 9701TIP3    H250595   0.451   2.315  12.115  0.2336  0.5815 -0.5812
 9702TIP3   OH250596   1.810   2.384   0.111 -0.0566 -0.5928 -0.3239
 9702TIP3    H150597   1.802   2.323   0.038  3.9319 -0.4627 -1.0750
 9702TIP3    H250598   1.902   2.410   0.112 -0.6891  2.3128  2.4953
 9703TIP3   OH250599   5.945   1.421   1.032 -0.3933  0.3552  0.0889
 9703TIP3    H150600   5.982   1.370   0.960  1.4587  0.7740  0.6981
 9703TIP3    H250601   5.872   1.469   0.993  1.0443  1.1735 -1.7164
 9704TIP3   OH250602   1.718   1.478   5.029  0.4769 -0.3660 -0.3776
 9704TIP3    H150603   1.753   1.551   4.977 -1.1581  1.5071  0.9798
 9704TIP3    H250604   1.633   1.459   4.990  0.4901 -0.9206 -0.1451
 9705TIP3   OH250605   3.811   2.866   3.716  0.0501  0.2288 -0.4484
 9705TIP3    H150606   3.895   2.913   3.710 -0.2572  1.1380  1.4900
 9705TIP3    H250607   3.750   2.921   3.667 -0.1228  1.4902  1.0899
 9706TIP3   OH250608   6.129   3.293  16.685 -0.5884  0.4641  0.1367
 9706TIP3    H150609   6.163   3.278  16.597 -1.0154 -1.4739  0.2527
 9706TIP3    H250610   6.066   3.365  16.674 -1.5799 -0.5566 -1.4317
 9707TIP3   OH250611   2.865   5.863  13.895  0.5637 -0.2655 -0.0617
 9707TIP3    H150612   2.900   5.804  13.962  2.5465 -0.5301 -1.2245
 9707TIP3    H250613   2.786   5.819  13.863  0.2890 -0.7411  1.2144
 9708TIP3   OH250614   6.652   4.687   0.870 -0.3674  0.0438 -0.0939
 9708TIP3    H150615   6.695   4.744   0.933  0.1504 -0.0611 -0.3407
 9708TIP3    H250616   6.710   4.611   0.864  0.6363  0.8849 -2.1230
 9709TIP3   OH250617   2.642   6.686   1.612 -0.6262 -0.3089 -0.2502
 9709TIP3    H150618   2.728   6.673   1.573 -0.9915  1.1374 -1.6682
 9709TIP3    H250619   2.631   6.782   1.615 -1.8996 -0.4513  0.5424
 9710TIP3   OH250620   5.608   1.641  15.450  0.4757  0.1591 -0.1430
 9710TIP3    H150621   5.623   1.558  15.495  3.1642 -0.2624 -1.6119
 9710TIP3    H250622   5.624   1.707  15.518 -1.3072 -0.4336  0.9331
 9711TIP3   OH250623   5.881   5.780  17.195  0.3106  0.0518  0.3139
 9711TIP3    H150624   5.965   5.778  17.149 -0.5223  1.3605 -1.3390
 9711TIP3    H250625   5.872   5.870  17.226 -1.1679  0.3545 -0.8929
 9712TIP3   OH250626   1.621   6.481   3.322 -0.0247  0.4282  0.5830
 9712TIP3    H150627   1.667   6.399   3.304  1.4923  1.0341  1.4566
 9712TIP3    H250628   1.538   6.474   3.275  0.2306 -1.4444  0.3647
 9713TIP3   OH250629   0.936   3.651  12.149 -0.2145  0.3926  0.4935
 9713TIP3    H150630   1.011   3.710  12.142 -0.4758  0.5217 -2.9923
 9713TIP3    H250631   0.865   3.697  12.106 -0.9985 -1.5614 -0.4469
 9714TIP3   OH250632   1.853   0.278   4.025  0.3719 -0.2223 -0.1725
 9714TIP3    H150633   1.893   0.236   4.101 -2.2330 -0.8872  0.9542
 9714TIP3    H250634   1.799   0.348   4.062 -1.5643 -1.0506 -1.2473
 9715TIP3   OH250635   1.097   4.414  14.773 -0.0551 -0.4079 -0.2493
 9715TIP3    H150636   1.035   4.364  14.721  1.6408 -2.1910 -0.6805
 9715TIP3    H250637   1.076   4.506  14.755 -2.0184 -0.9524 -0.9588
 9716TIP3   OH250638   5.973   4.481  16.778  0.6936  0.7815 -0.3507
 9716TIP3    H150639   6.027   4.405  16.754  0.6569  0.3043  0.9805
 9716TIP3    H250640   6.002   4.503  16.866  0.2477  1.9299 -0.4795
 9717TIP3   OH250641   3.716   3.829   2.707 -0.4843  0.1781 -0.0237
 9717TIP3    H150642   3.651   3.855   2.772 -0.5067 -0.8038  0.3620
 9717TIP3    H250643   3.735   3.909   2.659 -0.9483  0.7746  0.7679
 9718TIP3   OH250644   3.670   6.006  15.775  0.5898  0.0014 -0.7823
 9718TIP3    H150645   3.590   6.052  15.799 -0.2877 -0.8394 -2.0100
 9718TIP3    H250646   3.644   5.914  15.768  2.0470 -0.5599  0.4411
 9719TIP3   OH250647   3.810   0.991   6.489 -0.4824  0.2480 -0.2734
 9719TIP3    H150648   3.732   1.000   6.544 -1.0168  0.2926 -1.0320
 9719TIP3    H250649   3.810   0.898   6.464 -0.5724  0.3626 -0.6913
 9720TIP3   OH250650   3.895   3.302  14.866 -0.2769 -0.4498 -0.4545
 9720TIP3    H150651   3.804   3.297  14.893 -0.1076  1.4174  0.6389
 9720TIP3    H250652   3.944   3.315  14.948  0.6362  1.5936 -1.2523
 9721TIP3   OH250653   5.194   1.124   4.854 -0.2573 -0.1351 -0.2383
 9721TIP3    H150654   5.262   1.168   4.906  0.5303 -2.0569  0.4193
 9721TIP3    H250655   5.115   1.134   4.907 -0.0782  0.4248 -0.0648
 9722TIP3   OH250656   6.681   6.461   0.550  0.0287  0.1432  0.0436
 9722TIP3    H150657   6.676   6.504   0.635  0.2268  1.8664 -0.7808
 9722TIP3    H250658   6.707   6.371   0.570 -0.1694  0.4489  1.8029
 9723TIP3   OH250659   4.709   3.230  13.449 -0.2538 -0.2001  0.4558
 9723TIP3    H150660   4.655   3.154  13.428 -1.1093  0.2937  0.7595
 9723TIP3    H250661   4.670   3.301  13.397 -0.9841  0.5343  1.9245
 9724TIP3   OH250662   0.113   1.995   3.483  0.9176  0.2737 -0.0670
 9724TIP3    H150663   0.195   1.955   3.455  0.3879 -1.4419  0.7358
 9724TIP3    H250664   0.055   1.986   3.407  0.9236 -0.1143 -0.0257
 9725TIP3   OH250665   1.022   3.154   3.840  0.0605 -0.0339 -0.2630
 9725TIP3    H150666   1.042   3.065   3.869 -0.7791 -0.4358 -0.8689
 9725TIP3    H250667   1.097   3.206   3.868  0.4710 -0.8956  0.2748
 9726TIP3   OH250668   4.500   1.105  11.562  0.0112  0.0872  0.4298
 9726TIP3    H150669   4.444   1.116  11.485  0.3138  2.5642  0.4697
 9726TIP3    H250670   4.468   1.025  11.604 -2.1457  0.3104 -0.6446
 9727TIP3   OH250671   1.726   5.940  15.757 -0.1808 -0.1916 -0.2377
 9727TIP3    H150672   1.782   6.017  15.768  0.6402 -0.9107  0.7575
 9727TIP3    H250673   1.671   5.961  15.682  0.7450  0.9405 -0.6252
 9728TIP3   OH250674   4.893   3.917  16.330  0.3909  0.9059 -0.7485
 9728TIP3    H150675   4.874   3.829  16.362 -5.5522  1.9788 -0.1650
 9728TIP3    H250676   4.910   3.969  16.408  0.6505  0.8989 -0.7982
 9729TIP3   OH250677   3.659   5.546   0.390 -0.4157  0.5985  0.6117
 9729TIP3    H150678   3.747   5.572   0.363 -0.1939 -0.4099  0.3202
 9729TIP3    H250679   3.603   5.566   0.314 -0.4654  1.3582  0.8446
 9730TIP3   OH250680   6.788   6.071  11.148  0.2030  0.2393 -0.1097
 9730TIP3    H150681   6.867   6.121  11.166  1.1424 -1.0730 -0.4903
 9730TIP3    H250682   6.816   5.998  11.093 -1.7602  1.3295 -2.7884
 9731TIP3   OH250683   4.474   1.678   0.527 -0.1264 -0.3746 -0.1076
 9731TIP3    H150684   4.493   1.665   0.434 -1.2882  1.3794 -0.6363
 9731TIP3    H250685   4.499   1.769   0.544 -0.5637 -0.4731  1.1386
 9732TIP3   OH250686   3.836   0.869  14.937  0.0823  0.2962 -0.3939
 9732TIP3    H150687   3.832   0.775  14.954 -1.0912  0.2031 -1.1440
 9732TIP3    H250688   3.834   0.909  15.025  0.3957 -0.3578 -0.0830
 9733TIP3   OH250689   4.037   2.082  17.256 -0.7661  0.3094  0.5909
 9733TIP3    H150690   4.115   2.130  17.285 -1.3818  0.8832  1.3484
 9733TIP3    H250691   4.021   2.017  17.325 -0.5731 -0.2547  0.1086
 9734TIP3   OH250692   1.504   6.160   1.301 -0.3611  0.3591 -0.6546
 9734TIP3    H150693   1.581   6.216   1.296 -0.3895  0.5151  0.4095
 9734TIP3    H250694   1.535   6.074   1.271  0.4601  0.2023  0.6010
 9735TIP3   OH250695   3.279   6.029   0.328 -0.5168  0.2104 -0.3748
 9735TIP3    H150696   3.213   6.041   0.396  0.3970  0.5049  0.4698
 9735TIP3    H250697   3.278   5.935   0.309 -0.0821 -0.0320  0.7609
 9736TIP3   OH250698   4.987   3.480  13.551  0.4183 -0.3130 -0.0051
 9736TIP3    H150699   4.960   3.559  13.598  2.3846 -0.1275  0.9476
 9736TIP3    H250700   4.950   3.489  13.464  2.5195  2.9145 -0.7184
 9737TIP3   OH250701   5.536   2.510  13.201 -0.3654 -0.1281 -0.4754
 9737TIP3    H150702   5.571   2.427  13.235 -0.9442  0.0794  0.6947
 9737TIP3    H250703   5.450   2.486  13.165 -2.2083  0.4349  3.0864
 9738TIP3   OH250704   4.465   1.611  10.914  0.6263 -0.2084  0.2148
 9738TIP3    H150705   4.434   1.700  10.898 -1.7769 -1.2497 -1.4439
 9738TIP3    H250706   4.474   1.605  11.009 -1.2046  1.1879  0.5180
 9739TIP3   OH250707   3.175   0.884   2.699  0.0688  0.3773 -0.4789
 9739TIP3    H150708   3.110   0.840   2.644  0.4975  0.0929 -0.7607
 9739TIP3    H250709   3.176   0.833   2.780  1.3940 -0.8551 -1.2300
 9740TIP3   OH250710   1.035   1.670  15.769  0.2527 -0.5023  0.1356
 9740TIP3    H150711   1.044   1.574  15.773  0.1934 -0.5030  0.2584
 9740TIP3    H250712   0.946   1.684  15.737  0.1429 -0.4862  0.4497
 9741TIP3   OH250713   6.643   4.338   5.999 -0.1131  0.0346  0.2865
 9741TIP3    H150714   6.664   4.357   6.090  0.0359 -0.2356  0.3098
 9741TIP3    H250715   6.559   4.383   5.983  0.5848  1.3324  0.1137
 9742TIP3   OH250716   1.624   4.620  14.943 -0.1414  0.5691  0.2081
 9742TIP3    H150717   1.684   4.614  15.017  0.7654 -0.6633 -0.5865
 9742TIP3    H250718   1.673   4.666  14.876 -1.0016  1.7883  0.3867
 9743TIP3   OH250719   0.247   4.443  11.156  0.3752 -0.1231 -0.0123
 9743TIP3    H150720   0.314   4.503  11.121 -0.8745  0.1487 -2.1301
 9743TIP3    H250721   0.232   4.380  11.085 -0.4393 -1.1716  1.0584
 9744TIP3   OH250722   5.108   1.591  12.930  0.1648  0.0312 -0.0066
 9744TIP3    H150723   5.156   1.576  13.011 -0.6133 -0.2583  0.4068
 9744TIP3    H250724   5.078   1.504  12.903  0.1673  0.1619 -0.4475
 9745TIP3   OH250725   4.619   3.239   1.416 -0.9586  0.5072  0.2051
 9745TIP3    H150726   4.653   3.210   1.501 -2.1582  0.3056  0.6253
 9745TIP3    H250727   4.691   3.290   1.378 -0.1381 -0.0250  1.0110
 9746TIP3   OH250728   3.266   6.084  12.631  0.0325  0.3776  0.3487
 9746TIP3    H150729   3.205   6.148  12.594  0.0848  0.2042 -0.0385
 9746TIP3    H250730   3.211   6.010  12.656 -0.1487  0.9104  1.5898
 9747TIP3   OH250731   3.148   2.644   2.287 -0.2412  0.5154 -0.5822
 9747TIP3    H150732   3.161   2.600   2.203 -0.7328  0.0196 -0.4015
 9747TIP3    H250733   3.237   2.665   2.317 -0.0174 -0.0596 -0.8256
 9748TIP3   OH250734   2.910   0.931   3.515  0.1892  0.4263  0.9516
 9748TIP3    H150735   2.906   1.023   3.491 -0.1861 -0.2287 -1.7582
 9748TIP3    H250736   2.997   0.902   3.488 -0.0783 -0.2639  0.7956
 9749TIP3   OH250737   5.809   6.696   2.124 -0.3138 -0.2934  0.2206
 9749TIP3    H150738   5.832   6.775   2.075  2.1509 -0.7005  0.5519
 9749TIP3    H250739   5.751   6.727   2.194  0.5028  1.2263  0.2797
 9750TIP3   OH250740   5.842   4.617   4.647  0.3007  0.3682  0.1058
 9750TIP3    H150741   5.788   4.551   4.691 -1.1948  0.9133 -0.8315
 9750TIP3    H250742   5.853   4.584   4.558 -1.5500  1.9171 -0.7590
 9751TIP3   OH250743   3.575   4.572  11.428  0.3076 -0.0455 -0.7569
 9751TIP3    H150744   3.494   4.598  11.471 -0.4220 -0.3491 -1.9146
 9751TIP3    H250745   3.625   4.653  11.420 -0.6400  0.4690 -1.6133
 9752TIP3   OH250746   4.145   2.078   1.029  0.0379 -0.5305 -0.0506
 9752TIP3    H150747   4.180   2.059   0.942  0.4407  0.3197 -0.0892
 9752TIP3    H250748   4.071   2.137   1.012  0.5374  0.1821  0.2174
 9753TIP3   OH250749   4.028   5.206   2.581  0.5307  0.4346  0.5607
 9753TIP3    H150750   4.027   5.289   2.629 -0.5612  0.7599  0.0063
 9753TIP3    H250751   4.058   5.229   2.493  0.5929  0.1823  0.5166
 9754TIP3   OH250752   4.662   5.084  12.213  0.3333 -0.1328 -0.6637
 9754TIP3    H150753   4.605   5.052  12.283 -1.2724  1.7185 -1.0227
 9754TIP3    H250754   4.750   5.059  12.240 -0.4529 -1.4548  0.8633
 9755TIP3   OH250755   0.298   4.745  11.310  0.3213 -0.0278  0.8500
 9755TIP3    H150756   0.236   4.803  11.267  2.6269  0.4587 -2.2200
 9755TIP3    H250757   0.344   4.801  11.373  0.8195  0.9158 -0.3020
 9756TIP3   OH250758   0.494   6.521   4.432  0.4477 -0.4435 -0.0756
 9756TIP3    H150759   0.526   6.509   4.342  0.1621 -0.3107 -0.1942
 9756TIP3    H250760   0.470   6.613   4.437 -0.0788 -0.5828 -0.0365
 9757TIP3   OH250761   0.884   1.278  11.650 -0.0145  0.0744  0.1553
 9757TIP3    H150762   0.926   1.362  11.634 -0.3673  0.0685 -0.8577
 9757TIP3    H250763   0.951   1.213  11.628  0.4899  0.0668  1.5828
 9758TIP3   OH250764   1.231   5.008  17.010  0.9972  0.4039  0.7812
 9758TIP3    H150765   1.199   4.999  16.920  0.8933  0.0587  0.8525
 9758TIP3    H250766   1.185   5.086  17.043  0.1706 -0.1150  0.9001
 9759TIP3   OH250767   6.763   5.455   5.068 -0.4869  0.2090  0.4644
 9759TIP3    H150768   6.766   5.438   5.162  0.4240  0.3949  0.4779
 9759TIP3    H250769   6.780   5.549   5.060 -1.0744  0.2919  0.1412
 9760TIP3   OH250770   1.179   3.615   6.913  0.3150 -0.4323 -0.3587
 9760TIP3    H150771   1.178   3.582   6.823 -1.2801 -0.5226 -0.3393
 9760TIP3    H250772   1.087   3.619   6.938  0.7028  0.1151  1.0915
 9761TIP3   OH250773   5.682   5.673   1.319  0.2913  0.3713 -0.1423
 9761TIP3    H150774   5.590   5.648   1.317  0.8896 -2.0601 -0.2624
 9761TIP3    H250775   5.681   5.767   1.337 -2.2065  0.5860 -1.0680
 9762TIP3   OH250776   4.522   5.319   4.195 -0.5383 -0.0871  0.0391
 9762TIP3    H150777   4.570   5.397   4.222 -1.8985  1.7376 -2.3522
 9762TIP3    H250778   4.586   5.266   4.147 -0.5812  2.0330 -2.6069
 9763TIP3   OH250779   3.895   1.414   3.384  0.4566 -0.0522  0.7959
 9763TIP3    H150780   3.858   1.486   3.334  0.3720 -0.0311  0.8893
 9763TIP3    H250781   3.985   1.406   3.352 -0.7706 -2.9310 -2.6252
 9764TIP3   OH250782   4.272   0.932   3.955  0.1901  0.1252  0.2149
 9764TIP3    H150783   4.337   0.875   3.914 -0.3806  0.4969 -1.2735
 9764TIP3    H250784   4.200   0.935   3.892 -0.6468  0.8966  1.1742
 9765TIP3   OH250785   2.662   6.155  16.943 -0.1549 -0.1461 -0.1567
 9765TIP3    H150786   2.577   6.111  16.951 -2.5907  4.0031 -0.2525
 9765TIP3    H250787   2.701   6.147  17.030 -1.2255 -1.0200  0.2793
 9766TIP3   OH250788   5.503   2.673  14.780  0.0255  0.7659 -0.2954
 9766TIP3    H150789   5.589   2.650  14.746  0.9388  0.6151  1.9975
 9766TIP3    H250790   5.445   2.604  14.747  1.6259 -1.6482  1.6212
 9767TIP3   OH250791   0.892   5.392  16.611 -0.2074  0.3275  0.0004
 9767TIP3    H150792   0.801   5.406  16.584 -0.1725  3.5438  1.0734
 9767TIP3    H250793   0.937   5.363  16.532 -2.0734 -1.0150 -0.6320
 9768TIP3   OH250794   5.555   4.979   0.735 -0.0707  0.5144  0.3015
 9768TIP3    H150795   5.585   4.968   0.825 -0.3810 -0.5786  0.2797
 9768TIP3    H250796   5.462   5.002   0.743 -0.2782 -0.2755  0.2516
 9769TIP3   OH250797   2.702   1.973  17.158  0.1535  0.2493 -0.7410
 9769TIP3    H150798   2.677   2.066  17.161 -0.2705  0.1336 -0.6439
 9769TIP3    H250799   2.619   1.926  17.147  0.1496 -0.2307  0.9675
 9770TIP3   OH250800   2.856   1.693   4.311  0.2601  0.9778 -0.5373
 9770TIP3    H150801   2.896   1.615   4.349 -0.9911  0.9339  0.7620
 9770TIP3    H250802   2.865   1.760   4.378  1.7021  2.1245 -1.8026
 9771TIP3   OH250803   2.028   2.780  13.452 -0.1481  0.3739 -0.4052
 9771TIP3    H150804   2.039   2.821  13.538  0.8868  0.9732 -0.7936
 9771TIP3    H250805   2.076   2.697  13.460  0.4012  0.6681 -0.5456
 9772TIP3   OH250806   4.741   5.366   3.594  0.2132  0.4147  0.1970
 9772TIP3    H150807   4.836   5.377   3.593  0.1182  1.3498  0.1820
 9772TIP3    H250808   4.715   5.381   3.504  0.0298  0.3793  0.2448
 9773TIP3   OH250809   0.923   4.941  14.333  0.0638 -0.7097 -0.5240
 9773TIP3    H150810   0.966   4.938  14.419  0.1658 -1.4155 -0.5938
 9773TIP3    H250811   0.965   4.871  14.283 -2.7638 -3.0968  0.1642
 9774TIP3   OH250812   4.434   5.236   2.201 -0.0258  0.1324 -0.3525
 9774TIP3    H150813   4.408   5.278   2.283 -2.0866 -1.5472 -0.0905
 9774TIP3    H250814   4.522   5.202   2.219 -0.4645 -0.2592  1.1945
 9775TIP3   OH250815   5.532   1.245   1.889  0.6008  0.4194  0.5351
 9775TIP3    H150816   5.459   1.304   1.908  1.6541  1.0442  3.0524
 9775TIP3    H250817   5.586   1.293   1.826 -0.9710  0.0384 -1.1812
 9776TIP3   OH250818   5.133   6.558   2.600 -0.4401  0.1481  0.3175
 9776TIP3    H150819   5.047   6.550   2.558 -0.0023 -1.0798 -0.4189
 9776TIP3    H250820   5.120   6.528   2.690 -0.2902 -2.7119 -0.5159
 9777TIP3   OH250821   3.110   5.939  14.779  0.2455 -0.2809 -0.2622
 9777TIP3    H150822   3.176   5.984  14.832 -0.0781  1.2631 -1.1248
 9777TIP3    H250823   3.062   5.885  14.842 -0.0671  1.4338  1.0328
 9778TIP3   OH250824   5.139   4.903   2.039 -0.8448  1.1846 -0.8046
 9778TIP3    H150825   5.149   4.998   2.031 -1.1624  1.2777 -0.1476
 9778TIP3    H250826   5.056   4.884   1.996 -1.6023  1.4321  0.5033
 9779TIP3   OH250827   4.117   1.485   5.586  0.1378 -0.1489  0.1698
 9779TIP3    H150828   4.131   1.401   5.631 -1.3853  0.0007  0.9834
 9779TIP3    H250829   4.028   1.510   5.610  0.3132  1.3542 -0.6649
 9780TIP3   OH250830   6.135   3.529  12.720 -0.4925 -0.1036  0.0761
 9780TIP3    H150831   6.226   3.544  12.747 -0.1261 -0.6561 -0.7978
 9780TIP3    H250832   6.090   3.610  12.743  0.1105  0.0102  0.9439
 9781TIP3   OH250833   4.547   1.588  12.782  0.1189 -0.4966 -0.0013
 9781TIP3    H150834   4.506   1.569  12.866  0.1868 -1.9970 -0.2726
 9781TIP3    H250835   4.618   1.524  12.775 -0.4531 -1.0173 -1.5706
 9782TIP3   OH250836   3.015   2.035  12.338 -0.4284 -0.3636  0.2173
 9782TIP3    H150837   3.002   2.081  12.421  3.4152 -1.2140  1.4898
 9782TIP3    H250838   3.012   1.942  12.361  0.3755 -0.6153 -0.6473
 9783TIP3   OH250839   1.083   1.143   5.215 -0.1941  0.3228  0.0584
 9783TIP3    H150840   1.171   1.175   5.234  0.2132 -1.4098  1.3293
 9783TIP3    H250841   1.026   1.219   5.228  1.1291  1.5717 -1.1923
 9784TIP3   OH250842   1.821   1.363  16.717 -0.2454 -0.4972 -0.0930
 9784TIP3    H150843   1.804   1.298  16.786 -1.3311  0.7114  0.8210
 9784TIP3    H250844   1.737   1.374  16.673  0.1290 -0.2953 -0.7718
 9785TIP3   OH250845   2.908   3.430  11.037 -1.0572 -0.4159  0.2238
 9785TIP3    H150846   2.840   3.471  10.983 -1.0349 -0.1715  0.3795
 9785TIP3    H250847   2.967   3.389  10.974 -1.7768 -1.3121  0.1145
 9786TIP3   OH250848   1.539   3.422  11.910 -0.1762 -0.1542 -0.1485
 9786TIP3    H150849   1.485   3.500  11.924  2.3771  1.4193  1.9418
 9786TIP3    H250850   1.554   3.419  11.816  0.9861  2.9300 -0.1466
 9787TIP3   OH250851   1.436   6.228   3.941 -0.2579  0.1355  0.0306
 9787TIP3    H150852   1.459   6.143   3.978  1.2356  0.0179 -1.0687
 9787TIP3    H250853   1.512   6.253   3.888 -0.9851  1.7901 -0.3161
 9788TIP3   OH250854   0.370   4.452  13.159 -0.2506  0.4975 -0.0946
 9788TIP3    H150855   0.278   4.437  13.177 -0.9447 -1.7405 -4.1879
 9788TIP3    H250856   0.371   4.528  13.100  0.2817 -0.2704 -1.1224
 9789TIP3   OH250857   2.225   2.622  17.108 -0.0063 -0.4225 -0.5675
 9789TIP3    H150858   2.209   2.708  17.146 -1.9826 -0.9281 -0.1382
 9789TIP3    H250859   2.299   2.635  17.049  1.8078  0.8533  1.8072
 9790TIP3   OH250860   0.943   5.756  11.684  0.0026 -0.1523  0.0092
 9790TIP3    H150861   0.860   5.709  11.683  0.6702 -1.3700 -0.1662
 9790TIP3    H250862   0.962   5.769  11.777 -0.4822  0.3063  0.0441
 9791TIP3   OH250863   1.230   2.343   6.104  0.6058  0.4955  0.0609
 9791TIP3    H150864   1.206   2.284   6.175 -0.3652  1.6107  0.6873
 9791TIP3    H250865   1.312   2.384   6.133  0.4352  0.6355  0.3431
 9792TIP3   OH250866   0.796   0.503   3.880  0.2178  0.1385  0.3420
 9792TIP3    H150867   0.705   0.474   3.873 -0.0646  1.2605 -1.3313
 9792TIP3    H250868   0.790   0.598   3.889  1.2225  0.2521 -0.0969
 9793TIP3   OH250869   2.148   4.514   6.110  0.1990 -0.8326 -0.2998
 9793TIP3    H150870   2.092   4.584   6.145  1.1478  0.3190 -1.0098
 9793TIP3    H250871   2.213   4.499   6.179 -0.5450 -1.6894  0.2379
 9794TIP3   OH250872   2.727   2.144   0.462 -0.3181  0.2714 -0.0486
 9794TIP3    H150873   2.744   2.155   0.368 -1.0829  1.8006 -0.0361
 9794TIP3    H250874   2.668   2.069   0.467  2.1099 -1.7708 -0.5051
 9795TIP3   OH250875   2.747   3.525   3.256 -0.5012 -0.0784 -0.3788
 9795TIP3    H150876   2.785   3.605   3.290  0.5079 -1.4324  1.9621
 9795TIP3    H250877   2.655   3.529   3.284 -0.2223 -0.1412  0.5941
 9796TIP3   OH250878   1.928   6.371  16.075 -0.3339 -0.3010  0.4503
 9796TIP3    H150879   1.852   6.354  16.131  0.8674 -3.1678  1.4199
 9796TIP3    H250880   1.990   6.301  16.098  1.2090 -0.1511 -2.7650
 9797TIP3   OH250881   6.205   2.586   2.540  0.8528 -0.4884  0.1759
 9797TIP3    H150882   6.153   2.553   2.613 -0.3888  2.7778  0.9683
 9797TIP3    H250883   6.146   2.581   2.464  0.6513 -0.1266  0.3042
 9798TIP3   OH250884   0.210   3.053   5.208  0.2211 -0.3857  0.3510
 9798TIP3    H150885   0.275   3.123   5.213 -0.2668  0.0469  0.7896
 9798TIP3    H250886   0.165   3.067   5.125 -1.0212  0.8799  1.1816
 9799TIP3   OH250887   4.946   6.412  11.865  0.4462 -0.5710 -0.3118
 9799TIP3    H150888   4.899   6.493  11.885  2.3245  0.6673 -0.6947
 9799TIP3    H250889   5.016   6.407  11.930  0.9205 -1.4027 -0.8617
 9800TIP3   OH250890   3.303   5.207   3.952 -0.1228  0.5945  0.4220
 9800TIP3    H150891   3.327   5.165   4.034  0.2515  0.7280  0.3840
 9800TIP3    H250892   3.373   5.182   3.891 -0.8597 -0.2478 -0.1062
 9801TIP3   OH250893   5.482   3.185  14.806  0.3517  0.3684 -0.2180
 9801TIP3    H150894   5.392   3.187  14.772  0.0880 -0.2519  0.4210
 9801TIP3    H250895   5.514   3.098  14.784 -0.1985 -0.4681  2.0069
 9802TIP3   OH250896   5.390   1.704   5.527  0.1159  0.4634 -0.0204
 9802TIP3    H150897   5.389   1.725   5.434 -0.0423  2.2532  0.3470
 9802TIP3    H250898   5.436   1.621   5.533 -1.2465 -0.4851 -1.8429
 9803TIP3   OH250899   6.517   2.478   0.024 -0.2498 -1.2381 -0.3103
 9803TIP3    H150900   6.588   2.514   0.077 -1.4716 -0.6786  1.0179
 9803TIP3    H250901   6.441   2.531   0.046 -1.2576 -2.2785 -1.1339
 9804TIP3   OH250902   5.137   0.252  11.938 -0.1226 -0.0781 -1.0726
 9804TIP3    H150903   5.202   0.305  11.891  0.2535 -1.7840 -2.5740
 9804TIP3    H250904   5.160   0.161  11.917 -0.5293 -0.9141  1.6734
 9805TIP3   OH250905   2.785   1.043   2.385 -0.4666 -0.3955 -0.5298
 9805TIP3    H150906   2.838   1.103   2.333  1.5907  0.5545  2.3923
 9805TIP3    H250907   2.729   1.100   2.439 -0.4200 -1.1582  0.3584
 9806TIP3   OH250908   6.256   5.504  11.224  0.3882 -0.1555 -0.0983
 9806TIP3    H150909   6.305   5.424  11.209 -2.0721 -1.7808  0.0106
 9806TIP3    H250910   6.166   5.483  11.200 -0.2430  2.8300 -0.8075
 9807TIP3   OH250911   1.827   6.693  14.088 -0.2246  0.3817  0.0545
 9807TIP3    H150912   1.916   6.696  14.122  0.5372 -0.1059 -1.7926
 9807TIP3    H250913   1.772   6.720  14.162  1.3814  0.0546  1.4266
 9808TIP3   OH250914   3.522   6.252  12.366  0.2177 -0.2415 -0.3706
 9808TIP3    H150915   3.511   6.163  12.332  1.2980 -0.4435 -0.2406
 9808TIP3    H250916   3.559   6.239  12.453  0.2609  0.3406 -0.3017
 9809TIP3   OH250917   3.467   4.580   2.754  0.0464 -0.1093  0.0703
 9809TIP3    H150918   3.513   4.507   2.714  1.6639  0.3675  0.9387
 9809TIP3    H250919   3.401   4.540   2.810  1.5530 -0.9874  1.2933
 9810TIP3   OH250920   5.162   3.291  13.957  0.3238  0.0395  0.8861
 9810TIP3    H150921   5.129   3.234  13.887 -1.4644  2.2225 -0.1675
 9810TIP3    H250922   5.157   3.237  14.036 -2.4405 -0.9628  0.1425
 9811TIP3   OH250923   6.308   1.556   0.452 -0.1117 -0.2704 -0.4802
 9811TIP3    H150924   6.382   1.531   0.397  1.1652  1.2411  0.4804
 9811TIP3    H250925   6.292   1.479   0.507  1.4683 -0.2638  0.0392
 9812TIP3   OH250926   6.673   0.304   6.421  0.1394  0.1166  0.7949
 9812TIP3    H150927   6.721   0.335   6.499 -1.8066 -0.4470  2.3009
 9812TIP3    H250928   6.604   0.368   6.409  0.7406  0.4904 -0.8633
 9813TIP3   OH250929   3.487   3.198   3.143 -0.8111  0.1807  0.0263
 9813TIP3    H150930   3.481   3.250   3.223  0.5972  1.2225 -0.4853
 9813TIP3    H250931   3.443   3.252   3.076 -0.7191 -0.0106 -0.1900
 9814TIP3   OH250932   5.570   3.326   4.242 -0.3104 -0.1357 -0.4906
 9814TIP3    H150933   5.486   3.344   4.199 -0.9135  0.9511  1.0334
 9814TIP3    H250934   5.634   3.332   4.172 -1.3386  0.7026 -1.4088
 9815TIP3   OH250935   5.501   2.693  16.202 -0.2700  0.1541 -0.0869
 9815TIP3    H150936   5.470   2.781  16.225 -0.7368  0.1497 -0.6556
 9815TIP3    H250937   5.436   2.662  16.138  1.0139  0.2294 -1.4858
 9816TIP3   OH250938   4.789   5.696  12.936 -0.1123  0.3285  0.0311
 9816TIP3    H150939   4.706   5.736  12.914 -0.5664  0.4059  1.7111
 9816TIP3    H250940   4.799   5.624  12.873 -1.8373 -0.1760  0.2912
 9817TIP3   OH250941   0.288   6.429   2.482 -0.2516 -0.0865 -0.0283
 9817TIP3    H150942   0.359   6.372   2.514 -1.4196 -0.2365  2.5746
 9817TIP3    H250943   0.261   6.390   2.399  0.3768 -2.1222  0.6589
 9818TIP3   OH250944   1.919   0.506   2.631 -0.2136  0.1008 -0.4201
 9818TIP3    H150945   1.941   0.597   2.650  0.8084  0.0520 -1.3169
 9818TIP3    H250946   1.826   0.509   2.606 -0.2974  0.8226 -0.0530
 9819TIP3   OH250947   5.199   4.176   4.677 -0.1028  0.1645 -0.0772
 9819TIP3    H150948   5.178   4.253   4.731 -1.5001 -0.9703  1.0757
 9819TIP3    H250949   5.142   4.107   4.710  1.8255 -1.6928 -0.3659
 9820TIP3   OH250950   5.853   0.064   3.590  0.0590 -0.0644  0.0941
 9820TIP3    H150951   5.850   0.056   3.494 -2.6274 -0.4370  0.1221
 9820TIP3    H250952   5.891  -0.018   3.620  2.0808  0.5479 -0.6500
 9821TIP3   OH250953   6.690   5.468   1.523  0.3970 -0.2163 -0.1489
 9821TIP3    H150954   6.636   5.529   1.473  0.8089 -0.2832 -0.6879
 9821TIP3    H250955   6.775   5.512   1.531  0.6209 -0.6041 -0.3306
 9822TIP3   OH250956   3.442   0.012  14.268 -0.0898  0.0491 -0.3169
 9822TIP3    H150957   3.498   0.086  14.293 -0.0230 -0.5524  1.4321
 9822TIP3    H250958   3.491  -0.065  14.295 -0.9611 -0.5694 -0.4730
 9823TIP3   OH250959   0.871   3.024   0.530  0.2549 -0.2116 -0.3379
 9823TIP3    H150960   0.781   3.053   0.520  0.6823  1.1819 -0.4057
 9823TIP3    H250961   0.895   2.989   0.444  0.1742  0.6105 -0.7000
 9824TIP3   OH250962   2.982   6.714  16.931 -0.6728  0.2853  0.6480
 9824TIP3    H150963   3.041   6.639  16.938 -2.0424 -1.1251 -1.5681
 9824TIP3    H250964   2.951   6.728  17.021  1.1972 -0.4150  1.4566
 9825TIP3   OH250965   5.634   5.666   2.025 -0.8641 -0.2715  0.1143
 9825TIP3    H150966   5.638   5.572   2.007 -0.3407 -0.5133  1.3807
 9825TIP3    H250967   5.706   5.703   1.973  0.2970 -0.8739  1.2358
 9826TIP3   OH250968   6.763   5.027  16.013  0.0047 -0.0232 -0.0185
 9826TIP3    H150969   6.819   4.984  15.948 -2.1112 -0.2555 -1.7881
 9826TIP3    H250970   6.711   4.957  16.051  0.1531  0.3168  0.8270
 9827TIP3   OH250971   5.422   2.168   1.580  0.5182  0.0917  0.3561
 9827TIP3    H150972   5.382   2.125   1.655  1.2001 -0.0864  0.6261
 9827TIP3    H250973   5.358   2.158   1.510  1.0331 -2.1945  0.1435
 9828TIP3   OH250974   0.951   4.132  13.194 -0.2700 -0.1466 -0.0305
 9828TIP3    H150975   0.905   4.086  13.264 -0.3109 -2.1403 -1.2976
 9828TIP3    H250976   1.028   4.079  13.176 -0.5253  0.0332 -1.8334
 9829TIP3   OH250977   4.596   0.919  13.452 -0.2332 -0.1138 -0.1749
 9829TIP3    H150978   4.568   0.911  13.360 -0.7198  1.8150 -0.2290
 9829TIP3    H250979   4.686   0.949  13.446 -0.8913  2.0041 -0.0750
 9830TIP3   OH250980   2.832   0.251  13.559 -0.2330 -1.0937  0.0452
 9830TIP3    H150981   2.828   0.330  13.506 -1.2875  0.2348  1.9795
 9830TIP3    H250982   2.921   0.249  13.594 -0.5236 -0.0558  0.9139
 9831TIP3   OH250983   5.058   5.873  14.903 -0.3436 -0.6596  0.6808
 9831TIP3    H150984   4.983   5.835  14.859  0.7640 -1.6100 -0.4413
 9831TIP3    H250985   5.050   5.967  14.886  0.2218 -1.0134 -1.8999
 9832TIP3   OH250986   3.122   0.327  12.378 -0.2038 -0.1753 -0.5024
 9832TIP3    H150987   3.035   0.353  12.408  0.6808  1.8298  0.5153
 9832TIP3    H250988   3.136   0.379  12.299  0.4575  0.3482 -0.0569
 9833TIP3   OH250989   3.419   0.181   2.116  0.4370  0.6455 -0.4946
 9833TIP3    H150990   3.373   0.103   2.085  2.9473 -1.1980  0.0932
 9833TIP3    H250991   3.357   0.225   2.174 -0.8300 -1.2432 -0.3512
 9834TIP3   OH250992   0.037   1.408   2.966 -1.0274  0.3899 -0.4540
 9834TIP3    H150993   0.025   1.459   3.046 -0.3091 -0.9541  0.5473
 9834TIP3    H250994   0.010   1.467   2.896  0.2402  2.3273  0.6020
 9835TIP3   OH250995   0.546   4.083  12.610  0.0395  0.5941 -0.4708
 9835TIP3    H150996   0.626   4.046  12.571 -0.7471 -1.1124 -0.5433
 9835TIP3    H250997   0.539   4.041  12.696 -2.1672 -1.4575 -1.5137
 9836TIP3   OH250998   5.456   6.796  14.874 -0.3153  0.3260 -0.3193
 9836TIP3    H150999   5.489   6.886  14.866  0.9331 -0.1923 -1.2756
 9836TIP3    H251000   5.442   6.784  14.968  1.5420  0.8356  0.0596
 9837TIP3   OH251001   1.816   3.894   1.746 -0.1891 -0.1094 -0.3820
 9837TIP3    H151002   1.778   3.982   1.747  1.7093  0.7781 -0.6534
 9837TIP3    H251003   1.873   3.894   1.668  1.1242 -0.9644  0.5329
 9838TIP3   OH251004   3.314   4.852   0.839 -0.3842  0.4930 -0.4321
 9838TIP3    H151005   3.332   4.942   0.810  1.0114  0.0882 -0.8916
 9838TIP3    H251006   3.399   4.819   0.868 -0.5207 -1.2556 -1.8792
 9839TIP3   OH251007   3.886   1.335  16.534  0.2981 -0.2633  0.4195
 9839TIP3    H151008   3.882   1.431  16.526  0.4630 -0.3013 -0.1610
 9839TIP3    H251009   3.969   1.311  16.492 -0.5820 -0.8188 -1.0680
 9840TIP3   OH251010   3.806   3.979  16.781  0.5235  0.2701 -0.1245
 9840TIP3    H151011   3.738   3.991  16.715  0.8303  1.2091 -0.2824
 9840TIP3    H251012   3.761   3.991  16.865 -0.0890 -1.9233 -0.0643
 9841TIP3   OH251013   1.065   4.733  16.496 -0.0119 -0.1564 -0.5339
 9841TIP3    H151014   1.101   4.821  16.503  0.2681 -0.3809  1.5973
 9841TIP3    H251015   1.103   4.697  16.415  0.8565  1.2277 -0.7640
 9842TIP3   OH251016   5.287   6.294   0.870 -0.5906 -0.2150  0.6011
 9842TIP3    H151017   5.233   6.234   0.818 -3.8781  1.8966  1.2733
 9842TIP3    H251018   5.270   6.380   0.833  1.3707  0.7415  1.7402
 9843TIP3   OH251019   3.104   2.875  14.070 -0.0834  0.2565 -0.2329
 9843TIP3    H151020   3.195   2.850  14.059  0.7669  1.9260  2.1563
 9843TIP3    H251021   3.059   2.794  14.095  1.2586 -0.1643  0.9353
 9844TIP3   OH251022   5.374   6.771  16.993  0.1008  0.3475  0.5085
 9844TIP3    H151023   5.366   6.703  17.061  0.1802 -0.1706  0.0015
 9844TIP3    H251024   5.284   6.803  16.981 -0.1288 -0.4894 -0.0837
 9845TIP3   OH251025   2.923   1.343  11.639  0.1237 -0.2122  0.7203
 9845TIP3    H151026   2.916   1.399  11.716 -1.0323 -0.6403  0.9434
 9845TIP3    H251027   3.017   1.339  11.621  0.2009  2.5033  0.1411
 9846TIP3   OH251028   4.135   3.452  11.716  0.7119 -0.7004  0.0411
 9846TIP3    H151029   4.145   3.401  11.636  0.9168 -2.1280  0.9489
 9846TIP3    H251030   4.042   3.448  11.737  0.8118 -1.1877  0.4120
 9847TIP3   OH251031   1.850   4.133   2.673  0.1345  0.0708 -0.0417
 9847TIP3    H151032   1.765   4.174   2.687  0.8825  1.9506 -0.6073
 9847TIP3    H251033   1.869   4.148   2.581  1.9682  1.6096  0.5203
 9848TIP3   OH251034   3.139   4.222   6.287 -0.2919  0.4435  0.1220
 9848TIP3    H151035   3.186   4.260   6.361 -0.4915  0.4328  0.2556
 9848TIP3    H251036   3.058   4.273   6.283 -0.8402 -0.3663  0.6804
 9849TIP3   OH251037   3.888   2.245   1.364 -0.2566  0.0867  0.7887
 9849TIP3    H151038   3.948   2.186   1.317  0.7575  0.8307  1.1143
 9849TIP3    H251039   3.924   2.332   1.349 -1.1184  0.5268  1.2201
 9850TIP3   OH251040   4.535   1.186   1.928 -0.0041 -0.4308  0.7127
 9850TIP3    H151041   4.473   1.259   1.922 -0.7436 -1.1615 -1.9670
 9850TIP3    H251042   4.592   1.198   1.852 -0.3765 -2.8150 -0.0181
 9851TIP3   OH251043   5.749   1.247  14.012  0.1497  0.6307  0.3933
 9851TIP3    H151044   5.812   1.175  14.011 -1.2591 -0.6506  0.5231
 9851TIP3    H251045   5.718   1.251  14.103 -0.8614  0.4066  0.0697
 9852TIP3   OH251046   3.385   0.035   6.008  0.2307  0.2330 -0.1181
 9852TIP3    H151047   3.341   0.087   5.941 -0.6946 -1.8831 -1.2840
 9852TIP3    H251048   3.420   0.099   6.070 -2.6363  2.1637 -0.2755
 9853TIP3   OH251049   2.102   6.271  14.495  0.2716 -0.0754 -0.2219
 9853TIP3    H151050   2.175   6.334  14.492 -0.0961  0.3109 -1.3330
 9853TIP3    H251051   2.133   6.202  14.553  0.7457  1.0584  0.9316
 9854TIP3   OH251052   5.289   4.789   3.370  0.7049  0.1351 -0.4355
 9854TIP3    H151053   5.325   4.877   3.374  0.3336  0.2535  0.8595
 9854TIP3    H251054   5.265   4.776   3.279  2.1045  0.8209 -0.9186
 9855TIP3   OH251055   2.417   5.702  16.858  0.1128 -0.0564  0.5159
 9855TIP3    H151056   2.482   5.636  16.837 -0.7487 -0.3681 -1.4112
 9855TIP3    H251057   2.419   5.763  16.784 -1.6475 -0.0018  0.4610
 9856TIP3   OH251058   3.216   2.200  12.571  0.7851 -0.3282 -0.4940
 9856TIP3    H151059   3.283   2.133  12.585  0.9546 -0.1956 -0.6726
 9856TIP3    H251060   3.259   2.266  12.516  0.8678  0.3063  0.2989
 9857TIP3   OH251061   2.031   2.176   1.406 -0.6815  0.5470  0.9978
 9857TIP3    H151062   2.123   2.173   1.433 -0.6849  0.7806  1.0392
 9857TIP3    H251063   2.022   2.103   1.345  0.3989  2.4445 -1.6589
 9858TIP3   OH251064   2.628   0.627  12.974  0.4742 -0.0842  0.0008
 9858TIP3    H151065   2.701   0.687  12.959  0.2816  0.6039  1.5804
 9858TIP3    H251066   2.668   0.551  13.016  0.5279 -0.5059 -0.7971
 9859TIP3   OH251067   0.874   6.528   0.182  0.3993 -0.7917  0.3623
 9859TIP3    H151068   0.939   6.593   0.155  0.3295 -1.4535 -1.5612
 9859TIP3    H251069   0.888   6.454   0.123 -2.0811 -0.9632 -0.1023
 9860TIP3   OH251070   2.164   0.327  14.237  0.3122  0.4248  0.1384
 9860TIP3    H151071   2.233   0.263  14.251  0.5236  1.2544  3.8996
 9860TIP3    H251072   2.092   0.298  14.293 -0.5364  2.1001 -0.0067
 9861TIP3   OH251073   3.934   4.107   3.327 -0.3760 -0.2792  0.4087
 9861TIP3    H151074   3.909   4.023   3.366  0.4358 -0.5548  0.3552
 9861TIP3    H251075   3.892   4.107   3.241 -0.4906 -0.5685  0.4634
 9862TIP3   OH251076   6.794   2.897  15.226 -0.5345 -0.0663 -0.6646
 9862TIP3    H151077   6.821   2.830  15.288  0.7144 -0.7969 -1.9258
 9862TIP3    H251078   6.709   2.868  15.194 -1.3814  0.5354  0.9737
 9863TIP3   OH251079   4.771   2.973   0.365  0.0012  0.3090 -0.4961
 9863TIP3    H151080   4.797   3.034   0.434 -0.0279  0.1786 -0.3694
 9863TIP3    H251081   4.687   2.938   0.393  0.3606 -0.3397 -0.2039
 9864TIP3   OH251082   6.262   6.167   0.526  0.2471 -0.1289 -0.5223
 9864TIP3    H151083   6.346   6.211   0.530  0.3474 -0.3912  0.6812
 9864TIP3    H251084   6.260   6.111   0.604 -0.1593 -1.7324 -1.6203
 9865TIP3   OH251085   3.974   4.584   1.630  0.1269  0.3407 -0.2969
 9865TIP3    H151086   4.023   4.584   1.548 -0.1599 -0.2580 -0.4721
 9865TIP3    H251087   4.004   4.663   1.676  2.3065 -0.7353  0.2566
 9866TIP3   OH251088   4.842   0.161  16.035 -0.3078 -0.5111 -0.0600
 9866TIP3    H151089   4.812   0.112  16.112 -0.0043 -1.7759 -0.7245
 9866TIP3    H251090   4.932   0.184  16.055 -1.0592  1.6587  1.1409
 9867TIP3   OH251091   2.735   5.859   1.662  0.0558 -0.1222  0.0793
 9867TIP3    H151092   2.670   5.820   1.721  1.5018  0.1474  1.9321
 9867TIP3    H251093   2.811   5.876   1.717  2.1829 -1.4888 -2.2059
 9868TIP3   OH251094   5.767   3.411   4.049  0.1740  0.9616 -0.1569
 9868TIP3    H151095   5.755   3.494   4.095  0.4384  0.2355  1.2961
 9868TIP3    H251096   5.778   3.435   3.957 -0.8808  2.4389  0.0793
 9869TIP3   OH251097   3.404   0.911   4.140 -0.3901  0.2699 -0.0063
 9869TIP3    H151098   3.335   0.969   4.175 -2.3139 -1.5614 -0.5354
 9869TIP3    H251099   3.416   0.940   4.050  0.4372  1.3692  0.4424
 9870TIP3   OH251100   1.445   2.480  14.779  0.3444 -0.1533 -0.6364
 9870TIP3    H151101   1.377   2.412  14.782 -2.4873  2.4521 -0.1874
 9870TIP3    H251102   1.420   2.535  14.704 -0.2571  2.8681  1.5937
 9871TIP3   OH251103   5.167   5.528  13.055 -0.3949 -0.2462  0.2773
 9871TIP3    H151104   5.098   5.581  13.094  0.1680 -1.2309  2.7999
 9871TIP3    H251105   5.130   5.439  13.052 -0.1479 -0.3245 -0.8046
 9872TIP3   OH251106   0.965   2.900  14.714  0.1769  0.0782  0.4499
 9872TIP3    H151107   1.041   2.870  14.664  2.9396  2.8101  2.6293
 9872TIP3    H251108   0.926   2.821  14.748  1.0160 -1.5465 -2.0641
 9873TIP3   OH251109   2.722   4.428  13.836 -0.4119 -0.3478 -0.1540
 9873TIP3    H151110   2.673   4.346  13.835  0.4641 -0.9090 -2.1238
 9873TIP3    H251111   2.814   4.401  13.829 -0.1773  0.8022 -2.0730
 9874TIP3   OH251112   2.244   4.159  12.805 -0.3710  0.1786  0.2318
 9874TIP3    H151113   2.180   4.149  12.875 -2.0704 -1.1140 -1.4159
 9874TIP3    H251114   2.196   4.200  12.734  1.4017  1.7628 -0.1408
 9875TIP3   OH251115   1.489   3.847   1.823 -0.0050 -0.0368  0.2214
 9875TIP3    H151116   1.549   3.794   1.771  0.4300 -0.9361  1.5905
 9875TIP3    H251117   1.502   3.818   1.913 -2.6264 -0.4063  0.5651
 9876TIP3   OH251118   0.814   4.026  15.800 -0.0275 -0.1495  0.5092
 9876TIP3    H151119   0.781   4.110  15.769  2.0554  1.0836  1.3877
 9876TIP3    H251120   0.761   4.007  15.877 -0.2274  0.6240  0.5741
 9877TIP3   OH251121   5.445   5.483  12.062 -0.0416  0.6513  0.3648
 9877TIP3    H151122   5.488   5.531  11.991  0.9030 -0.1622  0.3636
 9877TIP3    H251123   5.442   5.392  12.031 -0.5899  0.4719  0.9278
 9878TIP3   OH251124   0.451   6.693   4.733  0.5299  0.0543 -0.0523
 9878TIP3    H151125   0.543   6.703   4.710  0.3506  1.6153 -0.1609
 9878TIP3    H251126   0.442   6.600   4.753  1.3359 -0.9362 -3.5218
 9879TIP3   OH251127   1.573   4.476  16.111  0.2482 -0.0821 -0.3065
 9879TIP3    H151128   1.663   4.493  16.084  0.1432 -1.4802 -1.7378
 9879TIP3    H251129   1.571   4.498  16.204  1.3642  2.4589 -0.7971
 9880TIP3   OH251130   6.131   5.908  12.853  0.5489  0.2966 -0.2597
 9880TIP3    H151131   6.122   5.992  12.899 -0.6847  0.5552 -0.9295
 9880TIP3    H251132   6.202   5.863  12.899  0.5078  1.2594  0.7948
 9881TIP3   OH251133   3.301   5.032  15.307 -0.2074 -0.1253  0.2918
 9881TIP3    H151134   3.386   5.074  15.317  0.2088 -1.0194  0.6505
 9881TIP3    H251135   3.273   5.013  15.397 -1.0214  0.6023  0.2044
 9882TIP3   OH251136   4.295   5.914  14.280  0.1776  0.5163  0.2054
 9882TIP3    H151137   4.360   5.947  14.343  0.1439  1.0381 -0.0262
 9882TIP3    H251138   4.235   5.988  14.267 -0.8238 -0.1569  0.8696
 9883TIP3   OH251139   5.477   0.575  17.253  0.5299 -0.4565 -0.4787
 9883TIP3    H151140   5.496   0.660  17.292 -0.2060 -0.6469  0.3404
 9883TIP3    H251141   5.442   0.523  17.326  2.6431 -2.0537 -0.5263
 9884TIP3   OH251142   3.352   3.447   4.021  0.0261  0.2535  0.1372
 9884TIP3    H151143   3.282   3.510   4.004 -1.6047 -0.7433  2.6569
 9884TIP3    H251144   3.423   3.500   4.059  0.2129  1.0727 -1.2623
 9885TIP3   OH251145   1.692   5.766  13.028 -0.3210  0.5236 -0.4409
 9885TIP3    H151146   1.706   5.677  12.996  0.7120 -0.0837  1.5332
 9885TIP3    H251147   1.635   5.807  12.963  0.2441 -1.1588 -2.0614
 9886TIP3   OH251148   4.895   5.090  14.154  0.1701 -0.2609 -0.2269
 9886TIP3    H151149   4.986   5.075  14.128  0.8946  2.5751  0.3310
 9886TIP3    H251150   4.844   5.039  14.091  2.1229 -1.6342 -0.7881
 9887TIP3   OH251151   1.421   1.503   1.193 -0.5335 -0.0663  0.1383
 9887TIP3    H151152   1.384   1.591   1.187  0.8130  0.4048 -2.7973
 9887TIP3    H251153   1.500   1.506   1.139  0.8898 -2.4553  1.9072
 9888TIP3   OH251154   0.908   1.184   3.084 -0.2712 -0.0881  0.3137
 9888TIP3    H151155   0.882   1.271   3.112 -1.7040 -1.0774  2.2546
 9888TIP3    H251156   0.867   1.173   2.998 -0.8411  0.7936  0.4637
 9889TIP3   OH251157   5.035   6.684  11.258  0.2130 -0.0511 -0.0248
 9889TIP3    H151158   5.055   6.637  11.176  2.0059  0.6961 -0.0692
 9889TIP3    H251159   5.042   6.617  11.326  0.6360 -0.2952 -0.3022
 9890TIP3   OH251160   2.533   1.017   4.685 -0.1913 -0.5231  0.2085
 9890TIP3    H151161   2.441   1.042   4.688 -0.0498 -0.0369  0.6500
 9890TIP3    H251162   2.538   0.934   4.733 -0.4164 -0.6182  0.0669
 9891TIP3   OH251163   0.492   2.830  15.453  0.0810  0.1645 -0.2523
 9891TIP3    H151164   0.502   2.878  15.534 -0.8566  0.6730 -0.4246
 9891TIP3    H251165   0.578   2.833  15.412  0.0299  1.8084 -0.3086
 9892TIP3   OH251166   3.653   0.482   6.060 -0.0053 -0.2159 -0.7376
 9892TIP3    H151167   3.627   0.573   6.044 -2.5228 -0.5832  0.7322
 9892TIP3    H251168   3.693   0.483   6.146 -1.8942 -0.7169  0.2132
 9893TIP3   OH251169   1.781   1.988   4.802 -0.2991  0.2033 -0.1805
 9893TIP3    H151170   1.794   2.081   4.818  1.1168 -0.0307  0.1249
 9893TIP3    H251171   1.729   1.958   4.877  0.0248  0.5717  0.1984
 9894TIP3   OH251172   1.139   6.415  16.203  0.4540  0.2604 -0.0943
 9894TIP3    H151173   1.132   6.319  16.196 -0.8628  0.4176 -1.5090
 9894TIP3    H251174   1.180   6.430  16.288  0.5960 -1.5633  0.1973
 9895TIP3   OH251175   0.590   6.262  17.010  0.3380  0.3716  0.0046
 9895TIP3    H151176   0.575   6.195  16.944  0.2173 -1.1192  1.4874
 9895TIP3    H251177   0.685   6.271  17.014  0.3489  0.4037 -0.2968
 9896TIP3   OH251178   6.709   3.170  11.757 -0.4335  0.6099 -0.2864
 9896TIP3    H151179   6.768   3.160  11.682  0.9519  2.1196  0.5503
 9896TIP3    H251180   6.744   3.112  11.824 -1.9087 -1.0525 -0.8679
 9897TIP3   OH251181   0.913   4.867   3.843  0.1272  0.0808 -0.0584
 9897TIP3    H151182   0.956   4.865   3.928 -0.7075 -0.9675  0.3688
 9897TIP3    H251183   0.978   4.832   3.782 -0.2213 -1.8612  0.6386
 9898TIP3   OH251184   3.181   4.038   4.489  0.0881 -0.1777  0.2258
 9898TIP3    H151185   3.117   3.976   4.523  0.4879 -0.5697  0.2873
 9898TIP3    H251186   3.137   4.122   4.489 -0.7881 -0.6210 -0.7600
 9899TIP3   OH251187   1.642   4.170   1.259 -0.4317  0.2327  0.5095
 9899TIP3    H151188   1.736   4.191   1.254 -0.1901 -0.3371  2.2307
 9899TIP3    H251189   1.615   4.165   1.167  1.6877 -1.6155 -0.1201
 9900TIP3   OH251190   3.005   3.543   4.253  0.2398 -0.6997 -0.2452
 9900TIP3    H151191   3.007   3.630   4.211  0.5575 -1.0222 -0.9193
 9900TIP3    H251192   3.064   3.552   4.328  0.3590 -0.3597 -0.3753
 9901TIP3   OH251193   4.405   4.808  12.218 -0.1239  0.4095 -0.1068
 9901TIP3    H151194   4.382   4.900  12.231 -1.2307  0.4063 -1.7005
 9901TIP3    H251195   4.342   4.760  12.271  0.0920  0.5515  0.2817
 9902TIP3   OH251196   4.264   2.150  16.369  0.0052  0.0945  0.5526
 9902TIP3    H151197   4.274   2.228  16.314  1.0655 -1.2051 -1.2137
 9902TIP3    H251198   4.190   2.103  16.331  0.0146 -0.2466  0.9492
 9903TIP3   OH251199   4.755   3.587  12.959 -0.2644 -0.4658 -0.0814
 9903TIP3    H151200   4.769   3.524  13.030  0.0476 -2.9067 -2.1452
 9903TIP3    H251201   4.664   3.614  12.967 -0.0969 -0.2906  1.5003
 9904TIP3   OH251202   3.463   2.957   0.515 -0.2396  0.2526 -0.3613
 9904TIP3    H151203   3.413   2.960   0.597 -1.2275 -2.7594 -0.7074
 9904TIP3    H251204   3.407   3.003   0.452 -0.5354  0.6375  0.1700
 9905TIP3   OH251205   0.748   2.188   5.575  0.2014  0.1264  0.2754
 9905TIP3    H151206   0.664   2.232   5.562  0.0792  0.1960  1.2724
 9905TIP3    H251207   0.747   2.159   5.666  0.7017 -1.0666 -0.0724
 9906TIP3   OH251208   6.448   5.470   3.652 -0.2127 -0.0680 -0.4379
 9906TIP3    H151209   6.491   5.519   3.581 -1.2327  0.0485 -0.9883
 9906TIP3    H251210   6.466   5.522   3.730 -0.1094  0.4578 -0.8029
 9907TIP3   OH251211   3.094   4.228  14.949  0.1643 -0.2949 -0.5842
 9907TIP3    H151212   3.186   4.248  14.970 -0.2592  0.6477  0.4341
 9907TIP3    H251213   3.064   4.303  14.898 -0.1751 -0.4037 -0.5454
 9908TIP3   OH251214   5.327   4.601  15.266 -0.2474  0.2150  0.1705
 9908TIP3    H151215   5.370   4.516  15.278 -0.8148 -0.4194 -1.9076
 9908TIP3    H251216   5.399   4.661  15.244 -0.0066 -0.0280  0.2850
 9909TIP3   OH251217   3.676   5.733   1.633 -0.5457 -0.3859 -0.1091
 9909TIP3    H151218   3.628   5.807   1.596 -3.4295 -2.3029 -0.6083
 9909TIP3    H251219   3.666   5.742   1.728  2.9170  2.0625  0.2059
 9910TIP3   OH251220   1.350   1.868   1.409 -0.1159 -0.2742  0.1170
 9910TIP3    H151221   1.315   1.818   1.335 -0.5620 -0.1834  0.2608
 9910TIP3    H251222   1.322   1.958   1.393  0.1167 -0.1876  0.1975
 9911TIP3   OH251223   5.222   0.757  12.376  0.4650 -0.5805 -0.3232
 9911TIP3    H151224   5.318   0.753  12.382  0.5546  0.5381 -0.7199
 9911TIP3    H251225   5.192   0.673  12.412  1.5843 -0.8977 -0.0832
 9912TIP3   OH251226   2.864   5.267   4.480  0.5164  0.1373 -0.2586
 9912TIP3    H151227   2.950   5.298   4.507  1.0379  1.1460 -2.7616
 9912TIP3    H251228   2.867   5.172   4.492  0.9681  0.4120  2.1569
 9913TIP3   OH251229   1.181   4.109   2.018  0.3902  0.2201 -0.6658
 9913TIP3    H151230   1.166   4.111   2.112  0.3421  0.9753 -0.6870
 9913TIP3    H251231   1.142   4.026   1.990 -0.3282  0.3723 -0.1412
 9914TIP3   OH251232   1.206   3.686   4.594 -0.0779 -0.3416  0.3740
 9914TIP3    H151233   1.213   3.591   4.588  0.7753 -0.1985 -2.0226
 9914TIP3    H251234   1.175   3.714   4.508 -1.2659  1.5088  1.3319
 9915TIP3   OH251235   5.346   6.246   1.135  0.7646  0.0936  0.2590
 9915TIP3    H151236   5.304   6.277   1.055 -0.5403 -0.3952  0.7269
 9915TIP3    H251237   5.432   6.216   1.107  1.1670  1.9163 -0.5876
 9916TIP3   OH251238   5.819   4.460   5.018  1.1686 -0.4995  0.4757
 9916TIP3    H151239   5.833   4.367   5.000  0.8050 -0.2889 -0.9843
 9916TIP3    H251240   5.728   4.466   5.047  0.6233 -0.4103 -1.1290
 9917TIP3   OH251241   5.896   3.539  16.229 -0.4341 -0.2217 -0.0462
 9917TIP3    H151242   5.835   3.470  16.257  0.1605 -0.6938  0.1070
 9917TIP3    H251243   5.981   3.495  16.224 -0.1675  0.3433 -0.6176
 9918TIP3   OH251244   1.173   1.803  14.095  0.0389 -0.3488  0.4075
 9918TIP3    H151245   1.121   1.818  14.016  0.0933  0.2668  0.4788
 9918TIP3    H251246   1.248   1.861  14.086 -0.5612  0.6491  1.4536
 9919TIP3   OH251247   0.596   3.856   2.335  0.8857 -0.1069  0.6653
 9919TIP3    H151248   0.568   3.882   2.423  0.3400 -0.1904  0.5242
 9919TIP3    H251249   0.514   3.839   2.289  1.1885 -0.8169  0.3742
 9920TIP3   OH251250   0.351   2.925   0.587  0.9028  0.5899 -0.2528
 9920TIP3    H151251   0.281   2.923   0.652  1.3840 -0.4281  0.2534
 9920TIP3    H251252   0.306   2.914   0.503  0.5575 -2.3181  0.1924
 9921TIP3   OH251253   6.504   4.367  12.249 -0.4239  0.1449  0.0270
 9921TIP3    H151254   6.442   4.328  12.188  0.3709  0.5902 -1.0962
 9921TIP3    H251255   6.557   4.294  12.280 -1.3139 -0.1941  0.7759
 9922TIP3   OH251256   4.127   2.708   1.261 -0.4632  0.3997  0.0918
 9922TIP3    H151257   4.143   2.788   1.211  0.2657  0.4465  0.3800
 9922TIP3    H251258   4.151   2.731   1.351  3.5261 -1.1663 -0.3838
 9923TIP3   OH251259   3.770   5.205  14.161 -0.0769 -0.0063 -0.7734
 9923TIP3    H151260   3.768   5.199  14.065  0.4707 -1.3474 -0.7278
 9923TIP3    H251261   3.692   5.156  14.190  0.0624 -0.0804 -0.5211
 9924TIP3   OH251262   2.751   6.037  14.923 -0.8431  0.3274 -0.1787
 9924TIP3    H151263   2.760   6.132  14.922 -0.3540  0.3390  1.4282
 9924TIP3    H251264   2.701   6.018  15.003  0.8422 -0.8413  0.6718
 9925TIP3   OH251265   3.953   4.668   4.636 -0.3055 -0.2414  0.2652
 9925TIP3    H151266   3.900   4.717   4.573 -0.2174  0.2063  0.5402
 9925TIP3    H251267   3.937   4.710   4.720 -0.4704 -0.8765  0.5611
 9926TIP3   OH251268   0.764   0.968  11.840  0.4196  0.2133 -0.2250
 9926TIP3    H151269   0.856   0.944  11.834  0.1817 -1.1145  0.8614
 9926TIP3    H251270   0.717   0.887  11.822 -0.5610  0.8936 -0.8622
 9927TIP3   OH251271   0.654   4.489   0.728  1.0581 -0.0921  0.0313
 9927TIP3    H151272   0.631   4.581   0.744 -0.7557 -0.8585  2.3761
 9927TIP3    H251273   0.592   4.460   0.661  1.2364  0.2055 -0.2690
 9928TIP3   OH251274   3.117   5.029   5.498 -0.5282 -0.7428  0.3708
 9928TIP3    H151275   3.199   5.058   5.537 -0.0343  0.4879 -1.4453
 9928TIP3    H251276   3.144   4.968   5.429 -1.0043  0.3912 -0.8773
 9929TIP3   OH251277   1.165   3.942  10.945  0.6215  0.4167  0.2521
 9929TIP3    H151278   1.099   3.904  11.003 -1.9573  1.7996 -1.5795
 9929TIP3    H251279   1.195   3.868  10.892 -0.7024  0.0107  0.0245
 9930TIP3   OH251280   5.375   5.432   5.774  0.3266 -0.0505  0.4436
 9930TIP3    H151281   5.411   5.388   5.850  1.2460 -0.7085 -0.3541
 9930TIP3    H251282   5.430   5.509   5.763  1.4685 -0.9965 -0.7089
 9931TIP3   OH251283   6.815   4.757  13.396 -0.2912 -0.2271  0.0431
 9931TIP3    H151284   6.737   4.786  13.349 -1.7824  0.6263  2.7694
 9931TIP3    H251285   6.887   4.808  13.359 -1.2008 -0.2326 -1.8044
 9932TIP3   OH251286   5.174   4.887  15.637 -0.2750  0.3843  0.3138
 9932TIP3    H151287   5.238   4.938  15.588  0.4295 -0.4829  0.3205
 9932TIP3    H251288   5.195   4.796  15.617 -0.8112  0.0585  1.1987
 9933TIP3   OH251289   0.118   6.756   3.067 -0.5094 -0.3298 -0.0608
 9933TIP3    H151290   0.137   6.779   3.158  2.5380  1.7142 -1.0523
 9933TIP3    H251291   0.117   6.840   3.021 -1.1914 -1.3638 -2.0380
 9934TIP3   OH251292   4.806   2.112   4.972  0.3993  0.1368 -0.2307
 9934TIP3    H151293   4.733   2.079   4.918  1.4875 -1.3849 -0.8744
 9934TIP3    H251294   4.782   2.089   5.061  0.4830 -1.2283 -0.5318
 9935TIP3   OH251295   3.497   6.390  14.032 -0.2211 -0.4013  1.0451
 9935TIP3    H151296   3.481   6.325  14.100 -1.2456  1.5235  2.7913
 9935TIP3    H251297   3.466   6.472  14.070 -0.1946  0.9131 -1.5234
 9936TIP3   OH251298   6.730   2.178   3.671 -0.8240 -0.7454  0.1838
 9936TIP3    H151299   6.747   2.088   3.698  1.0466 -0.6765 -0.6422
 9936TIP3    H251300   6.816   2.217   3.657 -1.5914  1.0393  0.0318
 9937TIP3   OH251301   4.372   0.247  13.826  0.3514  0.7425  0.3337
 9937TIP3    H151302   4.417   0.182  13.772  0.2655  0.6152  0.4137
 9937TIP3    H251303   4.438   0.275  13.889 -0.0491 -0.4264  1.3112
 9938TIP3   OH251304   3.472   0.317  14.397  0.1442  0.5578  0.1870
 9938TIP3    H151305   3.564   0.294  14.410 -0.2327 -0.7286  0.7294
 9938TIP3    H251306   3.449   0.372  14.472  0.3047  0.3534  0.3847
 9939TIP3   OH251307   6.484   3.502   5.706  0.5001 -0.5147 -0.0583
 9939TIP3    H151308   6.416   3.511   5.639  1.5010  0.0336 -1.0159
 9939TIP3    H251309   6.512   3.411   5.701  1.3589 -0.2024 -1.1756
 9940TIP3   OH251310   5.694   0.607  11.924  0.2192  0.0753  0.4193
 9940TIP3    H151311   5.616   0.653  11.955 -0.3547 -0.0939 -0.7312
 9940TIP3    H251312   5.719   0.550  11.997 -0.0508  0.9652  1.2216
 9941TIP3   OH251313   1.616   3.864  10.565 -0.0402  0.5071  0.0224
 9941TIP3    H151314   1.623   3.848  10.471 -0.9805  0.0238  0.0235
 9941TIP3    H251315   1.706   3.881  10.593  0.2776  0.4521 -0.9246
 9942TIP3   OH251316   1.356   2.121   5.894  0.2805  0.0364  0.0146
 9942TIP3    H151317   1.299   2.047   5.917 -0.0139 -0.1710 -1.2721
 9942TIP3    H251318   1.328   2.192   5.951 -1.2638 -0.0816 -0.5313
 9943TIP3   OH251319   1.905   4.625  15.994  0.4981 -0.7468  0.4763
 9943TIP3    H151320   1.986   4.676  15.988  0.5987 -0.7604  1.5147
 9943TIP3    H251321   1.891   4.590  15.906  0.8690  0.4006 -0.0542
 9944TIP3   OH251322   4.905   5.490   2.838  0.1871  0.2966 -0.2005
 9944TIP3    H151323   4.943   5.512   2.752 -0.4480  0.8306 -0.3556
 9944TIP3    H251324   4.874   5.574   2.872 -0.4183 -0.0595  0.1334
 9945TIP3   OH251325   2.830   5.291  16.823  0.3015 -0.2159  0.2178
 9945TIP3    H151326   2.843   5.284  16.729  0.4447 -1.7198  0.3317
 9945TIP3    H251327   2.745   5.249  16.839  0.4434 -0.2964  0.7931
 9946TIP3   OH251328   0.514   5.169  11.638 -0.0673  0.0687 -0.0002
 9946TIP3    H151329   0.489   5.211  11.720  0.7722 -1.4553  1.0607
 9946TIP3    H251330   0.574   5.231  11.596 -0.7093  0.9680  0.3850
 9947TIP3   OH251331   5.124   5.271  10.583  0.0515 -0.3357  0.4456
 9947TIP3    H151332   5.194   5.320  10.541  1.0623 -2.4282 -0.4522
 9947TIP3    H251333   5.052   5.274  10.520  0.2065 -0.2439  0.2707
 9948TIP3   OH251334   3.358   5.178   1.970 -0.1490 -0.0040 -0.3085
 9948TIP3    H151335   3.410   5.105   1.936  0.3564  0.4330 -0.4731
 9948TIP3    H251336   3.268   5.147   1.964  0.0282 -0.4364 -0.8286
 9949TIP3   OH251337   6.162   0.255   3.601  0.0246  0.1483 -0.4629
 9949TIP3    H151338   6.111   0.310   3.659  0.4253  1.7496 -1.5645
 9949TIP3    H251339   6.228   0.214   3.657  0.3715  1.6110  0.2200
 9950TIP3   OH251340   2.535   5.959   5.546  0.6164  0.6292 -0.4414
 9950TIP3    H151341   2.468   5.985   5.484  1.1529  1.9910 -0.4901
 9950TIP3    H251342   2.567   6.042   5.583  3.0697  0.1462 -1.2779
 9951TIP3   OH251343   3.632   5.783  13.015 -0.2096  0.4907  0.2864
 9951TIP3    H151344   3.581   5.814  13.090  0.4077  0.7327  0.6210
 9951TIP3    H251345   3.718   5.824  13.026  1.0687 -2.2114  1.4467
 9952TIP3   OH251346   5.790   3.393   3.774  0.0846  0.0387  0.3323
 9952TIP3    H151347   5.767   3.414   3.684 -0.8117  0.9292  0.7408
 9952TIP3    H251348   5.837   3.310   3.769 -1.0783 -0.5760 -0.8292
 9953TIP3   OH251349   3.399   6.663   5.173  0.0160  0.0588  0.5792
 9953TIP3    H151350   3.351   6.733   5.128  0.0582 -1.3071 -1.7766
 9953TIP3    H251351   3.332   6.602   5.201  0.1450 -0.2277  0.2701
 9954TIP3   OH251352   6.152   2.232   1.659 -0.1668 -0.1404  0.3461
 9954TIP3    H151353   6.185   2.142   1.656 -0.9900 -0.4469  0.3377
 9954TIP3    H251354   6.057   2.223   1.648 -0.2839  0.7076  0.6366
 9955TIP3   OH251355   5.988   3.694  12.377  0.2933  0.1159 -0.7457
 9955TIP3    H151356   6.021   3.750  12.307  0.9931  0.2253 -0.3410
 9955TIP3    H251357   5.916   3.743  12.416  0.7422  0.6300 -0.5506
 9956TIP3   OH251358   2.573   2.101   2.256  0.6240 -0.1520 -0.1301
 9956TIP3    H151359   2.542   2.138   2.338  0.4734 -0.6882  0.0600
 9956TIP3    H251360   2.605   2.176   2.206  2.0903  0.0411  1.0012
 9957TIP3   OH251361   4.532   6.021  12.253  0.7691  0.1026 -0.3769
 9957TIP3    H151362   4.578   6.093  12.210  1.7958 -0.8855 -0.9965
 9957TIP3    H251363   4.593   5.992  12.321  0.4835 -0.3689 -0.3220
 9958TIP3   OH251364   6.605   4.262   5.469 -0.4700 -0.5220 -0.1386
 9958TIP3    H151365   6.610   4.171   5.441 -0.9749 -0.3312 -0.9142
 9958TIP3    H251366   6.548   4.303   5.404  0.0197  0.4171  0.0056
 9959TIP3   OH251367   2.036   3.166   2.378  0.0342 -0.0333 -0.7172
 9959TIP3    H151368   2.117   3.116   2.386 -0.0919 -0.1692 -0.2611
 9959TIP3    H251369   2.012   3.159   2.286  0.7516  0.3349 -0.9344
 9960TIP3   OH251370   6.063   1.477   2.972 -0.0176 -0.4897  0.4930
 9960TIP3    H151371   6.109   1.530   2.907  1.0351 -1.5043  0.3781
 9960TIP3    H251372   5.981   1.451   2.930 -0.8792  1.5589  0.7902
 9961TIP3   OH251373   5.978   6.640  16.836 -0.4673  0.1189  1.2843
 9961TIP3    H151374   5.887   6.668  16.850 -0.7904  0.4390 -1.1261
 9961TIP3    H251375   6.028   6.721  16.830 -0.5532  0.0673 -0.4743
 9962TIP3   OH251376   1.673   2.842  17.010 -0.5124  0.3010 -0.0246
 9962TIP3    H151377   1.697   2.763  17.058 -1.4846 -0.3554 -0.5731
 9962TIP3    H251378   1.636   2.810  16.927  1.9299  1.4238 -1.6601
 9963TIP3   OH251379   2.717   5.968  11.334  0.3674  0.5186  0.5454
 9963TIP3    H151380   2.694   5.982  11.242  0.2727 -0.2094  0.4543
 9963TIP3    H251381   2.714   5.873  11.346  1.2993  0.5391  1.0649
 9964TIP3   OH251382   2.728   1.052   0.757 -0.1761 -0.1121  0.4097
 9964TIP3    H151383   2.678   0.975   0.730 -0.2043  0.3638 -0.9688
 9964TIP3    H251384   2.684   1.083   0.836 -0.5099 -1.1602  0.6589
 9965TIP3   OH251385   1.176   0.158  16.590 -0.4461 -0.3588 -0.2746
 9965TIP3    H151386   1.118   0.170  16.516  0.6211 -0.3622 -1.1424
 9965TIP3    H251387   1.185   0.245  16.629  1.5445  0.3722 -2.1517
 9966TIP3   OH251388   5.679   0.359   2.026 -0.3827  0.0025  1.0590
 9966TIP3    H151389   5.751   0.383   2.084 -0.7489 -0.8483  1.8819
 9966TIP3    H251390   5.606   0.340   2.084 -1.9501  2.8026  0.2123
 9967TIP3   OH251391   3.935   3.669  12.092 -0.2916 -0.1418 -0.2930
 9967TIP3    H151392   3.939   3.684  12.187  1.2620 -0.6437 -0.2511
 9967TIP3    H251393   3.866   3.728  12.062 -0.3689  0.5101  1.0610
 9968TIP3   OH251394   3.779   3.937  11.335  0.5084  0.0365 -0.7048
 9968TIP3    H151395   3.857   3.961  11.385 -0.2368  2.1665 -0.4931
 9968TIP3    H251396   3.813   3.913  11.248  1.5120 -0.6899 -0.1380
 9969TIP3   OH251397   2.868   4.355  16.740  0.3883  0.7021  0.3999
 9969TIP3    H151398   2.828   4.285  16.688 -2.0171  2.0440  0.2679
 9969TIP3    H251399   2.919   4.405  16.677 -0.5362  0.9148 -0.1991
 9970TIP3   OH251400   2.898   5.256  15.072  0.8516 -0.0420  0.8848
 9970TIP3    H151401   2.910   5.318  15.000  1.1322 -1.0275  0.0617
 9970TIP3    H251402   2.988   5.235  15.100  0.7714 -0.4202  0.8601
 9971TIP3   OH251403   0.055   3.081  16.220 -0.8624  0.1230 -0.7231
 9971TIP3    H151404   0.005   3.163  16.224  1.2913  1.5108 -0.6587
 9971TIP3    H251405   0.125   3.093  16.284  0.6734 -0.9423 -2.1386
 9972TIP3   OH251406   4.905   1.041  12.287 -0.2659 -0.0756 -0.0835
 9972TIP3    H151407   4.905   1.084  12.373 -0.7911  0.8385 -0.5215
 9972TIP3    H251408   4.998   1.034  12.264 -0.0273 -1.8093  1.2524
 9973TIP3   OH251409   2.716   1.143   1.302 -0.2279 -0.3178  0.0903
 9973TIP3    H151410   2.674   1.225   1.327 -2.0474 -1.4754  1.0446
 9973TIP3    H251411   2.783   1.129   1.368 -1.2720 -0.5754  1.1217
 9974TIP3   OH251412   4.913   1.850  16.755 -0.0546 -0.3055  0.5666
 9974TIP3    H151413   4.972   1.910  16.709 -0.9750  0.7899  0.7645
 9974TIP3    H251414   4.951   1.764  16.742  0.6765  0.1887 -0.7251
 9975TIP3   OH251415   1.629   6.050  12.902 -0.1547  0.1173 -0.4457
 9975TIP3    H151416   1.701   6.058  12.838  0.0215  0.8366 -0.1696
 9975TIP3    H251417   1.627   6.136  12.945 -1.2792  0.1542 -0.5532
 9976TIP3   OH251418   5.013   5.327  12.486  0.2903 -0.3217 -0.1930
 9976TIP3    H151419   4.960   5.352  12.562  0.5611 -0.4873  0.0539
 9976TIP3    H251420   5.097   5.300  12.524  0.7036  0.3415 -0.6077
 9977TIP3   OH251421   2.239   1.718  16.233  0.0491 -0.5949 -0.3396
 9977TIP3    H151422   2.231   1.803  16.275 -1.4554 -1.3270  0.9772
 9977TIP3    H251423   2.278   1.736  16.148  1.9121  1.1255  0.7862
 9978TIP3   OH251424   0.221   1.124   1.242  0.0765 -0.0725  0.8224
 9978TIP3    H151425   0.140   1.106   1.291 -0.3792 -0.5990 -0.1051
 9978TIP3    H251426   0.238   1.217   1.259 -0.0955 -0.2186  1.9263
 9979TIP3   OH251427   5.662   2.201  11.332 -0.5147 -0.3060  0.7390
 9979TIP3    H151428   5.613   2.175  11.410 -0.0336 -0.1134  1.1112
 9979TIP3    H251429   5.605   2.179  11.259 -0.9239 -0.5911  1.1432
 9980TIP3   OH251430   1.816   4.616  14.570  0.0978  0.3286 -0.4467
 9980TIP3    H151431   1.882   4.621  14.640  0.8252 -0.3940 -1.0518
 9980TIP3    H251432   1.839   4.537  14.521 -2.7333 -1.4335  0.8142
 9981TIP3   OH251433   6.330   1.291  13.012 -0.2160  0.2758 -0.9532
 9981TIP3    H151434   6.304   1.199  13.012  0.1320  0.1605  0.1135
 9981TIP3    H251435   6.424   1.289  13.027 -0.3536  0.8208  0.0663
 9982TIP3   OH251436   0.046   6.258   0.854  0.5755 -0.8362  0.3497
 9982TIP3    H151437   0.036   6.314   0.930  2.0981  0.2061 -0.1757
 9982TIP3    H251438   0.138   6.234   0.853  0.1662 -2.5367 -0.0170
 9983TIP3   OH251439   5.413   6.501   3.708 -0.3602  0.5470 -0.5265
 9983TIP3    H151440   5.356   6.573   3.734  0.2380  1.2276 -1.0802
 9983TIP3    H251441   5.478   6.540   3.649 -0.6428 -0.6259 -1.6810
 9984TIP3   OH251442   0.636   2.408   3.448  0.1803  0.0834 -0.0595
 9984TIP3    H151443   0.569   2.340   3.458  0.4411 -0.2614 -0.6023
 9984TIP3    H251444   0.588   2.486   3.421 -0.1371  0.1532  0.6919
 9985TIP3   OH251445   5.993   5.883   0.811  0.0314  0.3127 -0.2777
 9985TIP3    H151446   5.969   5.887   0.718 -0.5327 -1.7878 -0.2707
 9985TIP3    H251447   5.969   5.969   0.845 -3.9680 -0.2177 -1.1825
 9986TIP3   OH251448   3.001   3.570  13.277 -0.2649 -0.3654  0.5745
 9986TIP3    H151449   2.905   3.573  13.273 -0.2642  0.5703  1.1824
 9986TIP3    H251450   3.030   3.638  13.215  0.0686 -2.1639 -1.3727
 9987TIP3   OH251451   4.856   5.085  17.054  0.0494 -0.3394 -0.1257
 9987TIP3    H151452   4.950   5.105  17.059 -0.2436  0.8294  1.1992
 9987TIP3    H251453   4.853   4.991  17.037  1.4653 -0.4651  0.1669
 9988TIP3   OH251454   1.691   2.647  12.968  0.0696 -0.5919 -0.3962
 9988TIP3    H151455   1.773   2.671  13.011  0.2849  1.6887 -1.8810
 9988TIP3    H251456   1.715   2.580  12.905  0.5263 -0.8735  0.0709
 9989TIP3   OH251457   2.057   3.334  12.824  0.3129 -0.4499  0.0001
 9989TIP3    H151458   1.986   3.359  12.884 -0.7620 -3.7872  0.2829
 9989TIP3    H251459   2.019   3.342  12.737  0.8435  1.2274 -0.1303
 9990TIP3   OH251460   0.954   6.109  15.979  0.2123  0.4893  0.0289
 9990TIP3    H151461   0.973   6.090  16.071  1.1664 -0.6392 -0.3824
 9990TIP3    H251462   0.867   6.071  15.965  0.1445  0.4930  0.4163
 9991TIP3   OH251463   4.278   3.423  13.608 -0.2839  0.0467  0.1983
 9991TIP3    H151464   4.301   3.504  13.654  0.0104  0.2560 -0.3100
 9991TIP3    H251465   4.285   3.355  13.675 -1.8901  0.5985  0.9945
 9992TIP3   OH251466   1.331   5.276   3.823 -0.0842  0.0764 -0.0132
 9992TIP3    H151467   1.325   5.364   3.785  0.1825  1.1996  2.3681
 9992TIP3    H251468   1.369   5.222   3.754 -2.0385  1.3524 -2.2261
 9993TIP3   OH251469   5.090   4.237  17.090  0.5253 -0.0695  0.1477
 9993TIP3    H151470   5.041   4.270  17.165  0.4123  0.2735 -0.0738
 9993TIP3    H251471   5.182   4.245  17.116  0.4617 -0.7985  0.5981
 9994TIP3   OH251472   6.783   5.497   3.540  0.3634 -0.0087 -0.1685
 9994TIP3    H151473   6.771   5.550   3.618 -0.3362 -0.1699 -0.1555
 9994TIP3    H251474   6.877   5.478   3.537  0.2172 -1.1471  1.3998
 9995TIP3   OH251475   3.137   2.568  13.835 -0.1195 -0.2752  0.5859
 9995TIP3    H151476   3.138   2.477  13.804 -0.3726 -0.6883  1.7504
 9995TIP3    H251477   3.207   2.611  13.785 -0.4781 -0.9153 -0.5070
 9996TIP3   OH251478   4.049   6.157   5.295 -0.4078 -0.5928  0.2184
 9996TIP3    H151479   4.085   6.201   5.371 -2.3066 -1.3834  1.6485
 9996TIP3    H251480   3.984   6.219   5.260 -1.3383 -1.2534  0.7666
 9997TIP3   OH251481   6.276   4.519  16.354  0.7220 -0.4027 -0.3281
 9997TIP3    H151482   6.288   4.440  16.407  0.8668 -0.4062 -0.3661
 9997TIP3    H251483   6.237   4.582  16.414 -1.2373 -1.1064 -0.7808
 9998TIP3   OH251484   4.702   4.438   3.454 -0.1249 -0.0977  0.0067
 9998TIP3    H151485   4.722   4.388   3.533  1.2522 -1.4188 -1.1179
 9998TIP3    H251486   4.676   4.525   3.487 -1.3505 -1.1309  1.9568
 9999TIP3   OH251487   3.302   3.806  12.026 -0.0227 -0.4437 -0.0117
 9999TIP3    H151488   3.341   3.858  12.097  1.6672 -0.9550 -0.5208
 9999TIP3    H251489   3.283   3.870  11.958 -0.2924 -0.1529  0.3300
10000TIP3   OH251490   5.951   0.472   4.527 -0.2555 -0.1795  0.3021
10000TIP3    H151491   5.894   0.436   4.459  0.1985 -1.7144  0.6921
10000TIP3    H251492   6.040   0.460   4.494  0.0856 -2.6050  1.8280
10001TIP3   OH251493   5.497   3.412   3.841  0.9956 -0.4520  0.0832
10001TIP3    H151494   5.446   3.341   3.880  1.2496  0.2975  1.8796
10001TIP3    H251495   5.577   3.370   3.810  1.9757 -0.7333  2.7746
10002TIP3   OH251496   4.891   4.717  11.263 -0.2480 -0.1147 -0.1813
10002TIP3    H151497   4.888   4.659  11.339 -0.3632 -0.0001 -0.0977
10002TIP3    H251498   4.815   4.774  11.274  0.7521  1.1210  0.5998
10003TIP3   OH251499   0.414   3.530   5.292  0.5192  0.0284 -0.0271
10003TIP3    H151500   0.450   3.592   5.228 -0.6402  0.0516 -0.7032
10003TIP3    H251501   0.323   3.519   5.264  0.2595 -0.7096  1.0716
10004TIP3   OH251502   1.353   1.071  14.923  0.2960  0.3824  0.0928
10004TIP3    H151503   1.351   1.151  14.870 -2.6853  1.4280  1.5468
10004TIP3    H251504   1.438   1.031  14.904  1.1103  2.9048 -2.1175
10005TIP3   OH251505   4.654   1.271  14.276 -0.2530 -0.6386 -0.1129
10005TIP3    H151506   4.712   1.328  14.225 -0.0717 -1.3587 -0.7327
10005TIP3    H251507   4.713   1.227  14.338  0.1323 -2.3828 -1.6383
10006TIP3   OH251508   6.716   5.333   1.788  0.5068 -0.4675  0.1919
10006TIP3    H151509   6.662   5.391   1.733  0.1103  0.8754  1.9018
10006TIP3    H251510   6.792   5.386   1.810  1.3143 -1.4680 -0.1159
10007TIP3   OH251511   0.447   1.130   1.059 -0.3443 -0.1720 -0.1643
10007TIP3    H151512   0.384   1.116   1.130 -0.3104 -0.2713 -0.1531
10007TIP3    H251513   0.529   1.092   1.092  0.0600  1.1013  0.3346
10008TIP3   OH251514   0.471   4.362  12.595  0.0675  0.2168 -0.2044
10008TIP3    H151515   0.537   4.304  12.556  1.8452  0.2718  2.4133
10008TIP3    H251516   0.407   4.303  12.634  0.5572  0.0600  0.3689
10009TIP3   OH251517   5.639   5.653  12.752 -0.7004  0.0401 -0.5747
10009TIP3    H151518   5.574   5.612  12.810  1.9290 -3.2870  0.3162
10009TIP3    H251519   5.714   5.669  12.809 -0.2640  2.8897 -1.7868
10010TIP3   OH251520   6.290   1.722   5.218 -0.5329  0.4732  0.6326
10010TIP3    H151521   6.367   1.774   5.196 -1.0177  1.1056  0.3983
10010TIP3    H251522   6.266   1.679   5.136 -0.0963 -0.1878  0.8400
10011TIP3   OH251523   3.826   1.441   3.694 -0.1111  0.1092 -0.1356
10011TIP3    H151524   3.872   1.435   3.778  2.1306 -0.0255 -1.2974
10011TIP3    H251525   3.761   1.510   3.708  1.6338  1.6326  1.1163
10012TIP3   OH251526   0.633   1.470   2.767 -0.3330  0.3584 -0.5027
10012TIP3    H151527   0.550   1.487   2.812  0.2160 -1.2472  1.1991
10012TIP3    H251528   0.638   1.539   2.700 -1.6246  2.2884  1.2674
10013TIP3   OH251529   3.772   5.387  12.451  1.2657 -0.2040 -0.4146
10013TIP3    H151530   3.724   5.312  12.418 -0.2969  1.5725 -2.4536
10013TIP3    H251531   3.717   5.423  12.520  1.2564 -0.0392 -0.5080
10014TIP3   OH251532   6.251   4.084  12.780  0.3254  0.3908 -0.2782
10014TIP3    H151533   6.338   4.056  12.754  0.4588  0.3150  0.2352
10014TIP3    H251534   6.266   4.146  12.852 -0.0860 -0.8066  0.8819
10015TIP3   OH251535   1.479   0.444  11.928  0.2192  0.4324 -0.3328
10015TIP3    H151536   1.432   0.511  11.978  1.0246  0.7082  0.0645
10015TIP3    H251537   1.462   0.467  11.837 -0.3926  0.5421 -0.1984
10016TIP3   OH251538   0.877   4.007   2.827 -0.7619 -0.4574 -0.4169
10016TIP3    H151539   0.785   3.984   2.843 -0.3992 -1.0981  0.8354
10016TIP3    H251540   0.878   4.038   2.737 -1.9619 -1.7962 -0.9269
10017TIP3   OH251541   1.302   4.193  13.530  0.2955 -0.3409  0.1785
10017TIP3    H151542   1.363   4.127  13.497  2.3644  0.8753  1.3647
10017TIP3    H251543   1.342   4.277  13.506 -1.9813  0.5566 -0.8157
10018TIP3   OH251544   4.375   5.559   5.813 -0.1632  0.0313 -0.4393
10018TIP3    H151545   4.381   5.534   5.905  0.1590  0.5181 -0.3287
10018TIP3    H251546   4.281   5.571   5.798 -0.4636 -2.2053 -0.7600
10019TIP3   OH251547   0.153   5.447  12.288  0.2355 -0.5885 -0.0228
10019TIP3    H151548   0.201   5.460  12.370  0.4031  0.9794 -0.3493
10019TIP3    H251549   0.213   5.399  12.232  0.5419 -0.6843  0.3845
10020TIP3   OH251550   5.235   5.628  14.326 -0.1716 -0.0177 -0.1715
10020TIP3    H151551   5.259   5.556  14.385 -0.1901 -0.0622 -0.2178
10020TIP3    H251552   5.315   5.648  14.278  0.4279  1.4219  1.3412
10021TIP3   OH251553   5.964   0.878  10.984  0.9506 -0.3438  0.4827
10021TIP3    H151554   5.890   0.818  10.985  1.1571 -0.6617 -1.1394
10021TIP3    H251555   5.978   0.899  10.892  1.0627  2.0030  0.9619
10022TIP3   OH251556   0.472   2.034   2.156  0.1638  0.2860 -0.0113
10022TIP3    H151557   0.498   1.971   2.224  0.4095 -2.5936 -2.5358
10022TIP3    H251558   0.504   1.995   2.074  0.9025  4.0904 -1.7723
10023TIP3   OH251559   3.656   0.178   1.761  0.6975  0.2236  0.0174
10023TIP3    H151560   3.624   0.239   1.828 -1.5404 -0.9121  0.0715
10023TIP3    H251561   3.645   0.226   1.678 -1.1806 -0.1083  0.0454
10024TIP3   OH251562   3.624   6.416  14.766 -0.1408 -0.2105  0.1860
10024TIP3    H151563   3.596   6.325  14.767  1.7053 -0.8141  1.3253
10024TIP3    H251564   3.548   6.466  14.795 -0.5267 -1.6139  1.7104
10025TIP3   OH251565   3.746   1.542   2.693 -0.7223  0.1747  0.0121
10025TIP3    H151566   3.667   1.489   2.706  0.2275 -1.2332  0.3094
10025TIP3    H251567   3.816   1.477   2.680  0.2739  1.3946 -0.9292
10026TIP3   OH251568   6.487   5.331   2.412 -0.2266 -0.5901 -0.1744
10026TIP3    H151569   6.394   5.347   2.431  0.0822  0.8027  0.2443
10026TIP3    H251570   6.517   5.278   2.486 -0.3115  0.3465  0.5580
10027TIP3   OH251571   4.955   2.468   0.132  0.1945  0.2146 -0.5573
10027TIP3    H151572   5.039   2.484   0.090  1.9849 -1.2957  2.1711
10027TIP3    H251573   4.931   2.552   0.172  0.7996  0.4567 -0.7037
10028TIP3   OH251574   0.318   5.110  16.769 -0.3607  0.0482  0.2642
10028TIP3    H151575   0.400   5.159  16.760  0.0454 -0.8314 -1.2292
10028TIP3    H251576   0.333   5.054  16.845  0.3651  0.0415  0.1301
10029TIP3   OH251577   4.935   6.151  15.765 -0.2842 -0.0128 -0.5722
10029TIP3    H151578   4.918   6.072  15.714  0.1241 -1.0601  0.8295
10029TIP3    H251579   5.012   6.129  15.818 -0.4181  1.1697  0.1539
10030TIP3   OH251580   1.196   2.372  13.723  0.5619 -0.4737  0.7884
10030TIP3    H151581   1.103   2.391  13.730  0.9961  2.3482  0.3490
10030TIP3    H251582   1.208   2.341  13.633  0.0651 -0.6603  0.7883
10031TIP3   OH251583   0.946   6.543  14.818  0.4408 -0.6978  0.3690
10031TIP3    H151584   1.003   6.617  14.842 -1.1013  1.2772 -1.6375
10031TIP3    H251585   0.998   6.491  14.757  0.6535  0.2049 -0.2347
10032TIP3   OH251586   1.738   4.450   5.790  0.2952 -0.3093  0.0993
10032TIP3    H151587   1.799   4.460   5.863  1.6308 -2.3830 -0.6227
10032TIP3    H251588   1.689   4.370   5.812  0.1452 -0.4905 -0.8748
10033TIP3   OH251589   5.132   3.247  16.502  0.5278 -0.4746  0.5761
10033TIP3    H151590   5.192   3.272  16.432  0.5856  0.3585  0.9103
10033TIP3    H251591   5.188   3.217  16.573  0.4562 -1.6266  0.1591
10034TIP3   OH251592   4.243   1.887   5.387  0.3568 -0.5457 -0.0903
10034TIP3    H151593   4.204   1.847   5.309  1.3254  0.5185 -1.1558
10034TIP3    H251594   4.269   1.975   5.359  0.0860  0.1277  1.6436
10035TIP3   OH251595   5.547   3.292   2.267 -0.5520 -0.5061  0.3835
10035TIP3    H151596   5.497   3.264   2.190  2.5534 -2.0792 -1.2639
10035TIP3    H251597   5.539   3.219   2.329 -1.5187 -0.0582  0.8062
10036TIP3   OH251598   4.886   4.863  12.082  0.4393  0.0911  0.2379
10036TIP3    H151599   4.807   4.848  12.135 -0.0347  2.8665  0.4737
10036TIP3    H251600   4.958   4.855  12.144  0.0352  1.2236  0.8938
10037TIP3   OH251601   2.601   0.274   5.805 -0.3520  0.7163 -0.2691
10037TIP3    H151602   2.607   0.180   5.826  0.0302  0.1947 -2.4532
10037TIP3    H251603   2.670   0.314   5.858 -0.9915 -0.0934  1.2562
10038TIP3   OH251604   0.712   4.317   4.066 -0.2706  0.3542 -0.5485
10038TIP3    H151605   0.623   4.349   4.082 -1.3187  0.2236 -4.8659
10038TIP3    H251606   0.749   4.379   4.003  2.4520 -0.1215  0.4105
10039TIP3   OH251607   1.534   4.537  10.678  0.4463 -0.1152  0.3802
10039TIP3    H151608   1.569   4.459  10.635 -0.9202 -0.0799 -0.8525
10039TIP3    H251609   1.574   4.536  10.766  0.9066 -1.8570  0.1805
10040TIP3   OH251610   3.899   0.160   6.049  0.0119  0.1571  0.3613
10040TIP3    H151611   3.903   0.137   6.142  0.9493 -1.2015  0.0061
10040TIP3    H251612   3.978   0.122   6.011 -1.5310 -1.4392 -1.4465
10041TIP3   OH251613   2.214   1.345  13.104  0.1429 -0.0865 -0.0545
10041TIP3    H151614   2.157   1.360  13.180  0.6763 -0.5457  0.4464
10041TIP3    H251615   2.164   1.377  13.029 -1.4020 -1.8101  0.1652
10042TIP3   OH251616   0.027   6.165   4.408  0.0251 -0.3570  0.2314
10042TIP3    H151617   0.088   6.222   4.361 -0.9565  1.1328  0.6771
10042TIP3    H251618  -0.053   6.168   4.357  0.0460 -1.6319  0.0922
10043TIP3   OH251619   4.021   3.471  12.817  0.2448 -0.0571 -0.1622
10043TIP3    H151620   3.932   3.479  12.782  0.5290  2.2100 -0.5849
10043TIP3    H251621   4.009   3.466  12.912 -0.3618 -1.4855 -0.2837
10044TIP3   OH251622   5.921   1.672   3.140 -0.7214 -0.1909  0.5332
10044TIP3    H151623   5.875   1.749   3.108 -1.8331  0.1679  2.7807
10044TIP3    H251624   5.882   1.599   3.093  0.8463  0.5738 -2.1681
10045TIP3   OH251625   4.195   0.001   0.362  0.1625 -0.3155  0.1141
10045TIP3    H151626   4.190   0.093   0.387  2.8197  0.0323 -0.3215
10045TIP3    H251627   4.169  -0.047   0.441 -2.6993  0.7110 -0.0701
10046TIP3   OH251628   6.330   0.196   2.835  0.1577  0.8510  0.5623
10046TIP3    H151629   6.342   0.109   2.797  3.1716  0.0585  2.9719
10046TIP3    H251630   6.289   0.180   2.919  0.4298  1.7876  0.8837
10047TIP3   OH251631   0.926   6.659  13.985 -0.2524  0.0942 -0.1788
10047TIP3    H151632   0.837   6.693  13.978  0.1698  1.0202 -1.6051
10047TIP3    H251633   0.966   6.678  13.899  1.0932 -0.9394  0.1774
10048TIP3   OH251634   3.521   2.383   2.808 -0.9490  0.2004  0.3333
10048TIP3    H151635   3.582   2.312   2.831  0.1671  1.4132  1.2606
10048TIP3    H251636   3.435   2.349   2.832 -0.4304 -0.8232  0.8109
10049TIP3   OH251637   6.300   3.734   4.979 -0.6220  0.2858  0.3283
10049TIP3    H151638   6.228   3.677   4.950 -1.2205  0.8552  0.6875
10049TIP3    H251639   6.379   3.692   4.944 -1.1580 -0.1401 -0.3936
10050TIP3   OH251640   3.665   3.306   6.306  0.8390 -0.2180 -0.3499
10050TIP3    H151641   3.638   3.219   6.276 -0.4343 -0.2235  0.7179
10050TIP3    H251642   3.629   3.314   6.394  1.0936  1.3143 -0.3456
10051TIP3   OH251643   5.794   3.221  16.775  0.0355 -0.0403  0.2790
10051TIP3    H151644   5.707   3.231  16.813 -0.5033  2.4215 -1.3471
10051TIP3    H251645   5.835   3.307  16.785  1.0069 -0.1837 -1.8738
10052TIP3   OH251646   4.364   1.721  13.580  0.7112  0.7073 -0.6950
10052TIP3    H151647   4.364   1.657  13.651 -0.0043  1.8779  0.4205
10052TIP3    H251648   4.440   1.776  13.597  0.4937  1.0386 -0.7665
10053TIP3   OH251649   4.481   6.360  16.753  0.1744  0.2245  0.4787
10053TIP3    H151650   4.544   6.289  16.742  0.1734  0.4040 -0.8399
10053TIP3    H251651   4.449   6.350  16.842  1.4114 -0.4072  0.8770
10054TIP3   OH251652   5.736   4.237  16.760 -0.5526 -0.0501 -0.0200
10054TIP3    H151653   5.672   4.251  16.690 -0.6720  0.9153  0.2660
10054TIP3    H251654   5.701   4.285  16.835  0.5721  0.6388  0.0987
10055TIP3   OH251655   6.271   1.927   1.579  0.3346  0.0182 -0.1103
10055TIP3    H151656   6.197   1.965   1.531  0.3023  0.5264  0.3352
10055TIP3    H251657   6.317   1.873   1.514 -1.4911 -1.8556  0.0223
10056TIP3   OH251658   6.187   5.480   3.616  0.3596  0.0594  0.4688
10056TIP3    H151659   6.173   5.417   3.686  1.0377 -1.2056 -0.4949
10056TIP3    H251660   6.281   5.498   3.618  0.6906 -1.2297 -1.0805
10057TIP3   OH251661   6.819   3.372  11.331 -0.2022 -0.1468  0.1689
10057TIP3    H151662   6.791   3.439  11.394  0.9302  1.5653 -1.0455
10057TIP3    H251663   6.748   3.369  11.267 -0.6408 -0.7542  0.6711
10058TIP3   OH251664   4.499   4.042   3.968 -0.0322  0.1488  0.3864
10058TIP3    H151665   4.505   3.949   3.991  0.1905  0.6654  2.6356
10058TIP3    H251666   4.407   4.055   3.946 -0.0059 -0.6458 -0.2519
10059TIP3   OH251667   1.430   0.074   0.176  0.6515  0.1690  0.6191
10059TIP3    H151668   1.448   0.136   0.246  0.7521 -0.2825  1.0017
10059TIP3    H251669   1.468  -0.009   0.206  0.0241 -0.2182  0.3774
10060TIP3   OH251670   2.067   4.074  14.013  0.3835  0.1306 -0.4113
10060TIP3    H151671   2.120   4.046  14.088 -1.0380 -1.6377  0.0029
10060TIP3    H251672   2.099   4.020  13.940  2.3294  2.4151 -1.3862
10061TIP3   OH251673   2.627   0.684  12.379  0.3319  0.0394 -0.1414
10061TIP3    H151674   2.708   0.661  12.424  0.4094  0.4549 -0.0713
10061TIP3    H251675   2.599   0.766  12.419 -0.3242 -0.2894  0.1039
10062TIP3   OH251676   1.338   0.246  14.868 -0.8071 -0.1116  0.1077
10062TIP3    H151677   1.350   0.154  14.889  0.3600  0.2386  1.0679
10062TIP3    H251678   1.318   0.246  14.774  0.0549 -1.2842 -0.1009
10063TIP3   OH251679   0.422   3.522   4.158  0.3180  0.1767 -0.1300
10063TIP3    H151680   0.499   3.465   4.155 -0.8737 -1.6002  1.0682
10063TIP3    H251681   0.446   3.591   4.220  0.6088 -0.9602  1.0784
10064TIP3   OH251682   5.900   2.830  14.497  0.2843  0.1022 -0.1962
10064TIP3    H151683   5.856   2.862  14.576 -3.1858  0.5910 -2.1636
10064TIP3    H251684   5.929   2.910  14.452  1.0707 -0.1095 -0.0777
10065TIP3   OH251685   3.485   6.612  12.377 -0.2842  0.5670  0.0232
10065TIP3    H151686   3.430   6.555  12.430  0.3300 -1.5397 -1.4784
10065TIP3    H251687   3.574   6.582  12.395 -0.0653 -0.2589 -2.1684
10066TIP3   OH251688   6.083   0.676  13.308  0.1090  0.0489  0.0275
10066TIP3    H151689   6.113   0.693  13.398  0.5416 -0.6353  0.0207
10066TIP3    H251690   6.151   0.620  13.271 -0.1356  0.2240 -0.6932
10067TIP3   OH251691   1.975   1.644   3.487  0.7056 -0.2004  0.0152
10067TIP3    H151692   2.061   1.667   3.522  0.4572 -1.9152  1.9755
10067TIP3    H251693   1.990   1.566   3.435  0.7397  1.1966 -2.1855
10068TIP3   OH251694   4.935   3.488  16.402 -0.3396 -0.5376 -0.1760
10068TIP3    H151695   4.842   3.467  16.391 -0.1654 -1.8337  0.5568
10068TIP3    H251696   4.976   3.403  16.418  1.2977 -0.2778 -2.5292
10069TIP3   OH251697   2.188   2.781   4.065  0.0304  0.0564 -0.0779
10069TIP3    H151698   2.232   2.703   4.033  1.0626  0.9488 -0.9213
10069TIP3    H251699   2.210   2.849   4.000 -0.1763  1.2403  1.0531
10070TIP3   OH251700   2.943   2.414   5.220 -0.2945 -0.6484  0.1873
10070TIP3    H151701   2.986   2.493   5.185  2.7974 -2.0773  0.4238
10070TIP3    H251702   2.948   2.350   5.149  0.5490 -1.7123  1.1648
10071TIP3   OH251703   5.368   6.182  10.908  0.4803 -0.2980 -0.7013
10071TIP3    H151704   5.367   6.276  10.892  0.4890 -0.2754 -0.5737
10071TIP3    H251705   5.377   6.142  10.822  0.7318 -0.1742 -0.7307
10072TIP3   OH251706   4.101   0.337  16.179  0.0375  0.1678  0.5403
10072TIP3    H151707   4.195   0.342  16.162  0.4350 -0.8234  2.2342
10072TIP3    H251708   4.094   0.319  16.272 -1.8725  0.9320  0.5982
10073TIP3   OH251709   1.267   1.748  16.885  0.0356  0.1073 -0.0118
10073TIP3    H151710   1.321   1.722  16.810  0.0642 -0.2594  0.1302
10073TIP3    H251711   1.183   1.704  16.870  0.7889 -1.9307  1.3504
10074TIP3   OH251712   6.019   2.010   1.127  0.0343  0.1498 -0.3269
10074TIP3    H151713   5.930   1.975   1.126 -0.2523  0.6916  1.7032
10074TIP3    H251714   6.007   2.104   1.144  1.0115  0.0791  0.8449
10075TIP3   OH251715   0.745   2.407  16.615 -0.1827 -0.3227 -0.2699
10075TIP3    H151716   0.657   2.444  16.623  0.1060  0.1266  1.2586
10075TIP3    H251717   0.780   2.411  16.704  1.5405 -0.1233 -0.9286
10076TIP3   OH251718   3.084   0.682   1.617 -0.0772 -0.0006  0.2035
10076TIP3    H151719   3.147   0.641   1.557  0.0868  2.5357 -1.5499
10076TIP3    H251720   3.038   0.609   1.657  1.2635 -1.8839 -1.4706
10077TIP3   OH251721   4.036   0.977  11.349 -0.3333 -0.0464 -0.3601
10077TIP3    H151722   4.120   0.940  11.324 -0.8961 -0.3130 -1.9915
10077TIP3    H251723   4.054   1.025  11.430  1.3667 -0.1416 -0.6424
10078TIP3   OH251724   4.998   1.553  17.174  0.2292  0.4930  0.3458
10078TIP3    H151725   5.085   1.593  17.185  0.2771  0.3197  0.6113
10078TIP3    H251726   4.985   1.502  17.254  0.8211 -1.2688 -0.6399
10079TIP3   OH251727   3.873   0.146  16.406  0.4315  0.3884 -0.3745
10079TIP3    H151728   3.797   0.127  16.351 -0.7660  0.7442  1.0800
10079TIP3    H251729   3.918   0.062  16.414 -0.8176 -0.2620  0.1622
10080TIP3   OH251730   4.170   2.480  15.524 -0.2898  0.4396  0.6995
10080TIP3    H151731   4.157   2.465  15.430 -1.2449 -1.4157  1.0655
10080TIP3    H251732   4.112   2.416  15.566  1.6719 -0.2498  2.5440
10081TIP3   OH251733   0.013   4.551   3.206  0.7900 -0.6132  0.2334
10081TIP3    H151734   0.074   4.478   3.214  0.4623 -0.6674  3.5411
10081TIP3    H251735   0.029   4.605   3.283 -1.3782  0.9268 -0.2898
10082TIP3   OH251736   5.910   2.877  15.914  0.3543  0.0125  0.1682
10082TIP3    H151737   5.868   2.898  15.830  0.6868  1.4880  0.3404
10082TIP3    H251738   5.882   2.788  15.933  0.1000 -0.2770 -1.4085
10083TIP3   OH251739   1.638   3.020   1.925  0.0876  0.4001 -0.3682
10083TIP3    H151740   1.709   2.970   1.965 -0.8485 -1.4402 -0.9318
10083TIP3    H251741   1.603   3.072   1.998 -0.2182 -1.2892  0.7420
10084TIP3   OH251742   2.091   2.804  14.416  0.2900  0.8176 -0.2867
10084TIP3    H151743   2.187   2.801  14.424  0.1376 -1.7160  3.2119
10084TIP3    H251744   2.061   2.827  14.504 -2.3750  2.6515 -1.5697
10085TIP3   OH251745   2.767   4.806   2.832 -0.2356  0.2936  0.0369
10085TIP3    H151746   2.758   4.735   2.768  0.5651  0.7416 -0.5907
10085TIP3    H251747   2.758   4.762   2.917 -0.8130 -0.3864 -0.3604
10086TIP3   OH251748   4.911   0.428  13.606  0.0535  0.0323 -0.3389
10086TIP3    H151749   4.857   0.501  13.576  0.8310  0.2611 -1.2434
10086TIP3    H251750   4.934   0.381  13.526 -0.3708 -1.1694  0.2234
10087TIP3   OH251751   4.351   4.457   0.268 -0.3691  0.0154 -0.1831
10087TIP3    H151752   4.273   4.403   0.285 -1.2024  1.5426  1.1267
10087TIP3    H251753   4.322   4.520   0.202 -0.4529  0.9387  0.7069
10088TIP3   OH251754   3.788   2.092  11.613  0.4078 -0.4726  0.6865
10088TIP3    H151755   3.790   2.152  11.539 -0.0491 -0.4096  0.7229
10088TIP3    H251756   3.759   2.008  11.577  0.3529 -0.4871  0.7620
10089TIP3   OH251757   1.948   5.853   2.485  0.0687 -0.5391  0.6301
10089TIP3    H151758   1.973   5.847   2.393  1.8556 -0.6245  1.0970
10089TIP3    H251759   2.019   5.900   2.527 -0.2605 -1.3158  2.1450
10090TIP3   OH251760   1.159   3.953   0.185 -0.3185  0.2744 -0.0635
10090TIP3    H151761   1.124   3.979   0.270 -0.6753  0.7518 -0.3551
10090TIP3    H251762   1.156   3.857   0.187 -1.4084  0.2964  0.0161
10091TIP3   OH251763   0.132   4.613   4.902  0.2158  0.4679  0.2285
10091TIP3    H151764   0.218   4.581   4.930  0.7813  1.0570 -0.7531
10091TIP3    H251765   0.143   4.628   4.808 -1.7586 -2.0940 -0.5342
10092TIP3   OH251766   4.089   4.437  17.202  0.0152 -0.0552 -0.4473
10092TIP3    H151767   4.169   4.388  17.223  0.9208  2.1947  1.9539
10092TIP3    H251768   4.118   4.503  17.139 -0.9429 -1.6999 -2.7526
10093TIP3   OH251769   4.865   5.188   0.021  0.6775  0.1424  0.2119
10093TIP3    H151770   4.851   5.147  -0.064 -2.6355  0.1440  0.6369
10093TIP3    H251771   4.908   5.271   0.001  0.4809 -0.1156 -1.4214
10094TIP3   OH251772   4.827   3.992  17.251  0.3693 -0.1304 -0.2638
10094TIP3    H151773   4.865   4.080  17.252  1.7472 -0.6967  0.6476
10094TIP3    H251774   4.785   3.985  17.165  1.1121  1.0605 -0.7540
10095TIP3   OH251775   4.628   1.880  13.553  0.3838 -0.4188 -0.7933
10095TIP3    H151776   4.638   1.914  13.641 -1.5688 -0.7395 -0.3996
10095TIP3    H251777   4.670   1.945  13.496  0.8170  0.2654  0.2892
10096TIP3   OH251778   3.669   0.331  10.814  0.4831  0.3443 -0.0564
10096TIP3    H151779   3.761   0.307  10.801  0.5739 -0.7459  2.0802
10096TIP3    H251780   3.646   0.290  10.898 -2.0884  0.1963 -0.7665
10097TIP3   OH251781   5.783   3.043  12.361  0.0666  0.1121  0.0431
10097TIP3    H151782   5.706   3.016  12.411  0.3351  2.1356  1.6757
10097TIP3    H251783   5.802   3.132  12.392  1.5654  0.6405 -2.1396
10098TIP3   OH251784   1.796   0.061  13.890 -1.0866  0.5299  0.1516
10098TIP3    H151785   1.826   0.002  13.959 -1.3529 -0.4612 -0.5573
10098TIP3    H251786   1.708   0.029  13.868 -0.9314  0.7073 -0.7627
10099TIP3   OH251787   3.252   1.587  12.751 -0.1553 -0.1377  0.1202
10099TIP3    H151788   3.332   1.610  12.798  0.6484  0.3051 -1.3739
10099TIP3    H251789   3.268   1.497  12.720 -0.7194 -0.4648  0.7481
10100TIP3   OH251790   2.111   1.019   2.013  0.2439 -0.3126 -0.6106
10100TIP3    H151791   2.171   1.023   2.088 -0.1593  1.7686 -0.3419
10100TIP3    H251792   2.062   0.937   2.026  0.2244 -0.0359  1.3788
10101TIP3   OH251793   1.984   6.176  10.777 -0.0620 -0.2267  0.6407
10101TIP3    H151794   1.997   6.127  10.695  1.3000  0.3759  0.4778
10101TIP3    H251795   1.888   6.183  10.785 -0.2492 -1.3324 -0.2591
10102TIP3   OH251796   0.535   6.184  12.616 -0.3561  0.5413  0.3774
10102TIP3    H151797   0.544   6.191  12.711 -0.6288 -1.0890  0.5562
10102TIP3    H251798   0.522   6.274  12.587  2.2118  1.4060  1.5822
10103TIP3   OH251799   1.212   1.604   3.437  0.1806  0.2401 -0.2227
10103TIP3    H151800   1.127   1.573   3.467 -0.1287 -1.2488 -2.3487
10103TIP3    H251801   1.193   1.652   3.356  1.1905  1.7917  0.4090
10104TIP3   OH251802   6.457   2.740   2.595  0.1767  0.4071  0.3290
10104TIP3    H151803   6.370   2.705   2.573  1.4212 -1.9539 -1.1340
10104TIP3    H251804   6.501   2.749   2.511  1.7021  0.6671  1.1214
10105TIP3   OH251805   6.822   0.037   5.031 -0.4738 -0.0716 -0.2174
10105TIP3    H151806   6.894   0.087   4.992  1.0730 -2.3226 -0.4233
10105TIP3    H251807   6.745   0.062   4.980  0.6279  0.5571 -1.6480
10106TIP3   OH251808   1.360   0.050   3.610  0.1026 -0.4949 -0.1917
10106TIP3    H151809   1.434   0.073   3.553 -0.6215 -0.5044 -1.1756
10106TIP3    H251810   1.328   0.134   3.644 -1.4833 -0.0877 -2.4343
10107TIP3   OH251811   6.311   3.098  13.931 -0.0307  0.2731 -0.3500
10107TIP3    H151812   6.277   3.075  14.018 -3.7997  0.6009 -1.5629
10107TIP3    H251813   6.323   3.193  13.934 -1.9955  0.5598 -0.6912
10108TIP3   OH251814   0.312   6.569   5.049 -0.5137  0.4642  0.2459
10108TIP3    H151815   0.336   6.652   5.090  0.8535  0.0626  0.3113
10108TIP3    H251816   0.262   6.593   4.972 -0.7187  1.3261  0.6402
10109TIP3   OH251817   6.603   2.601   6.424  0.0743 -0.0787  0.1192
10109TIP3    H151818   6.575   2.514   6.453 -0.5512 -0.7939 -2.4052
10109TIP3    H251819   6.524   2.641   6.389  0.5319  1.2198  0.5182
10110TIP3   OH251820   3.730   2.913  11.697 -0.0287  0.8248  0.0043
10110TIP3    H151821   3.687   2.852  11.757 -0.5508  1.1423 -0.0394
10110TIP3    H251822   3.682   2.903  11.615 -0.3009  1.4759  0.0703
10111TIP3   OH251823   1.063   6.710   0.081  0.5437 -0.3444 -0.1835
10111TIP3    H151824   1.077   6.749  -0.006 -0.4639 -0.0557 -0.2257
10111TIP3    H251825   1.019   6.778   0.132  1.7158 -0.2785  0.7760
10112TIP3   OH251826   2.505   5.964   2.011 -0.2956  0.1273 -0.1202
10112TIP3    H151827   2.569   5.897   1.987  0.8976  1.3188 -0.3907
10112TIP3    H251828   2.551   6.020   2.073 -0.6165  1.7628 -1.2988
10113TIP3   OH251829   1.225   2.612  16.630  0.4810  0.3261  0.0642
10113TIP3    H151830   1.236   2.517  16.626 -1.0248  0.1547 -0.5039
10113TIP3    H251831   1.255   2.636  16.717  0.5522 -0.7185  0.3408
10114TIP3   OH251832   1.696   1.585  12.677 -0.2407  0.3515  0.0067
10114TIP3    H151833   1.758   1.512  12.676 -0.8299 -0.1640  0.0329
10114TIP3    H251834   1.740   1.654  12.727  0.8646  0.5130 -1.1558
10115TIP3   OH251835   5.438   2.099   0.415 -0.0977 -0.6187 -0.2043
10115TIP3    H151836   5.369   2.162   0.394 -1.0808 -1.2663  0.9498
10115TIP3    H251837   5.495   2.098   0.338 -2.2580 -1.2415 -1.8922
10116TIP3   OH251838   1.305   0.304  16.998  0.7987 -0.4001 -0.3497
10116TIP3    H151839   1.336   0.242  17.065  1.7902  0.0181 -0.4071
10116TIP3    H251840   1.343   0.388  17.025 -1.0328  0.3342  0.0751
10117TIP3   OH251841   5.037   3.672   4.042  0.4140 -0.5461 -0.3201
10117TIP3    H151842   5.126   3.668   4.075  0.1412  1.3327  0.7581
10117TIP3    H251843   5.023   3.586   4.002  2.0353 -1.5607  1.1441
10118TIP3   OH251844   2.242   3.863   2.977 -0.8098 -0.0946 -0.7423
10118TIP3    H151845   2.303   3.842   2.906  0.2179  1.4211 -0.3508
10118TIP3    H251846   2.156   3.863   2.935 -0.6309 -2.4410 -1.2680
10119TIP3   OH251847   5.299   3.597   1.495 -0.0411  0.4667  0.6658
10119TIP3    H151848   5.364   3.527   1.492 -0.4877  0.0083  1.4159
10119TIP3    H251849   5.351   3.676   1.510  0.3036  0.0244  1.9096
10120TIP3   OH251850   1.266   5.701  12.948  0.4368  0.2185  0.0997
10120TIP3    H151851   1.184   5.745  12.924  0.0387 -1.4791 -1.9720
10120TIP3    H251852   1.329   5.731  12.882  1.3069  0.9495  1.2424
10121TIP3   OH251853   5.262   3.026  13.763  0.0977 -0.2065  0.5515
10121TIP3    H151854   5.248   2.944  13.715 -1.2131  0.1287  0.3252
10121TIP3    H251855   5.211   3.091  13.715  2.8137  1.2714 -0.5846
10122TIP3   OH251856   3.682   6.334  16.525  0.1096  0.1175  0.1154
10122TIP3    H151857   3.596   6.301  16.499 -0.5291  0.5017  1.6251
10122TIP3    H251858   3.719   6.265  16.580 -0.9850  1.4902  2.7973
10123TIP3   OH251859   3.354   0.654   3.565 -0.0039 -0.6942  0.4740
10123TIP3    H151860   3.436   0.699   3.544 -0.1223 -0.8103 -0.2467
10123TIP3    H251861   3.310   0.643   3.481 -0.5542 -1.0384  0.8009
10124TIP3   OH251862   3.330   1.033   2.402 -0.7402  0.0586 -0.4681
10124TIP3    H151863   3.260   0.969   2.386 -2.3366  1.9422 -1.4209
10124TIP3    H251864   3.326   1.092   2.327 -0.3160  2.1243  1.0582
10125TIP3   OH251865   2.634   6.633   4.146  0.6083 -0.2407 -0.1713
10125TIP3    H151866   2.668   6.615   4.059 -0.4611 -3.6320 -0.0433
10125TIP3    H251867   2.541   6.611   4.141  0.8319 -2.1808  2.1379
10126TIP3   OH251868   4.357   4.794  13.016 -0.0825 -0.2970  0.3661
10126TIP3    H151869   4.366   4.699  13.008 -1.1930 -0.5068  1.3410
10126TIP3    H251870   4.434   4.821  13.066 -0.6080 -0.9365  1.5720
10127TIP3   OH251871   2.399   6.364   1.304 -0.4351  0.2133 -0.3513
10127TIP3    H151872   2.452   6.295   1.344 -1.2467  1.0524  2.4169
10127TIP3    H251873   2.418   6.442   1.356 -4.5679  0.4823  1.2009
10128TIP3   OH251874   1.981   2.937   3.448 -0.4141 -0.4074  0.0868
10128TIP3    H151875   2.033   2.856   3.439 -0.2520 -0.4547  1.3067
10128TIP3    H251876   1.973   2.969   3.358 -1.3913 -2.3288 -0.5809
10129TIP3   OH251877   6.507   0.296   4.510  0.2488 -0.5786 -0.1880
10129TIP3    H151878   6.426   0.346   4.522  1.0645  0.5167  1.1849
10129TIP3    H251879   6.485   0.207   4.535  0.0196  0.1970  2.7887
10130TIP3   OH251880   2.321   1.927   0.263  0.6804 -0.5054  0.4600
10130TIP3    H151881   2.348   1.978   0.187 -0.5199  0.9696  0.9923
10130TIP3    H251882   2.244   1.878   0.234 -0.0862  0.4483  0.8486
10131TIP3   OH251883   0.085   1.524  13.728 -0.1549  0.0274  0.8680
10131TIP3    H151884   0.066   1.549  13.818 -0.3216 -0.5877  1.0048
10131TIP3    H251885   0.009   1.554  13.678 -0.6325 -0.7345  1.1246
10132TIP3   OH251886   1.201   6.580  12.474 -0.1241  0.2173 -0.3443
10132TIP3    H151887   1.112   6.596  12.441  0.1510 -0.8429 -1.7092
10132TIP3    H251888   1.236   6.513  12.415  1.2055 -0.1704  0.8358
10133TIP3   OH251889   2.046   3.946   5.057 -0.1940  0.1273  0.3551
10133TIP3    H151890   2.074   4.015   5.117 -0.6200  0.3465  0.3102
10133TIP3    H251891   2.018   3.994   4.978  0.6463 -0.1748 -0.1324
10134TIP3   OH251892   4.000   4.176   6.162 -0.0839 -0.2845 -0.1924
10134TIP3    H151893   3.958   4.090   6.167 -1.6910  0.3174 -1.9288
10134TIP3    H251894   3.937   4.236   6.202 -0.4829  0.4956 -1.8852
10135TIP3   OH251895   1.342   0.031   6.454  0.0169  0.0749  0.3675
10135TIP3    H151896   1.384   0.045   6.539 -2.5762  1.2555  1.5733
10135TIP3    H251897   1.306  -0.058   6.459  1.5931 -0.6453 -0.3689
10136TIP3   OH251898   3.600   2.775   4.316 -0.3958 -0.1277 -0.5493
10136TIP3    H151899   3.534   2.784   4.385  1.1119  0.7457  0.8418
10136TIP3    H251900   3.675   2.735   4.360  1.4148  2.4483 -1.0598
10137TIP3   OH251901   2.104   1.806  13.562  0.0920 -0.1171 -0.3929
10137TIP3    H151902   2.188   1.760  13.568  0.9070  1.3659  0.1257
10137TIP3    H251903   2.041   1.738  13.538  1.2155 -1.5245  0.4513
10138TIP3   OH251904   0.829   1.739   0.367 -0.2732  0.3152 -0.4751
10138TIP3    H151905   0.770   1.743   0.292 -0.8530 -0.3173 -0.0668
10138TIP3    H251906   0.771   1.752   0.443  0.4903  2.3904 -0.1832
10139TIP3   OH251907   4.127   3.043  17.291  0.5080 -0.2480  0.2780
10139TIP3    H151908   4.062   3.059  17.223  1.2805 -0.3464 -0.5128
10139TIP3    H251909   4.180   2.971  17.256  0.4030 -0.8611  1.3666
10140TIP3   OH251910   0.104   3.749  15.200 -0.4061  0.0260  0.0915
10140TIP3    H151911   0.194   3.755  15.231 -0.1333  0.4413 -0.7515
10140TIP3    H251912   0.056   3.710  15.273  0.1114  1.4573  1.2310
10141TIP3   OH251913   1.939   4.360   1.783  0.5055  0.3655  0.0640
10141TIP3    H151914   1.912   4.307   1.709 -2.7516  1.9089 -0.0304
10141TIP3    H251915   2.003   4.421   1.747  2.6267 -1.9250 -0.2928
10142TIP3   OH251916   4.376   5.506   0.711 -0.5527 -0.2728 -0.1371
10142TIP3    H151917   4.470   5.491   0.701 -0.4250 -0.2776  0.9492
10142TIP3    H251918   4.340   5.495   0.623  0.2395 -1.9212 -0.2969
10143TIP3   OH251919   6.281   5.151   1.860 -0.3589 -0.4602  0.1186
10143TIP3    H151920   6.241   5.065   1.872 -3.3728  0.3945 -2.5306
10143TIP3    H251921   6.216   5.213   1.894  0.5266  0.8657 -0.5286
10144TIP3   OH251922   1.368   3.012  13.703  0.0690 -0.0206 -0.8856
10144TIP3    H151923   1.281   2.974  13.713 -0.4047  1.3714  0.9529
10144TIP3    H251924   1.401   2.976  13.622 -2.2077 -0.6461 -1.6086
10145TIP3   OH251925   0.158   0.179   2.965 -0.1479  0.7160 -0.1480
10145TIP3    H151926   0.169   0.169   2.870 -0.7492 -0.7980 -0.0873
10145TIP3    H251927   0.243   0.210   2.996  0.4357  0.0499 -1.0344
10146TIP3   OH251928   1.242   2.680   2.073 -0.1943  0.3833  0.0956
10146TIP3    H151929   1.228   2.774   2.061  0.7714  0.4018 -1.1693
10146TIP3    H251930   1.296   2.673   2.151  0.4244  0.9611 -0.2675
10147TIP3   OH251931   6.013   1.166   0.881 -1.2615 -0.2298 -0.0247
10147TIP3    H151932   6.099   1.195   0.912 -2.0826 -0.2289  2.5138
10147TIP3    H251933   6.027   1.077   0.850 -0.5176 -0.7287  1.6137
10148TIP3   OH251934   6.168   0.036   5.676 -0.0491 -0.5285  0.5632
10148TIP3    H151935   6.196  -0.053   5.700 -1.8248 -0.9472  1.2287
10148TIP3    H251936   6.167   0.036   5.580 -2.0426 -1.9343  0.5387
10149TIP3   OH251937   1.235   4.237   0.355  0.1658  0.1480 -0.4912
10149TIP3    H151938   1.169   4.275   0.413  1.3017 -1.5373  2.0819
10149TIP3    H251939   1.289   4.311   0.328  0.6190  0.8056  2.0478
10150TIP3   OH251940   6.712   5.402   2.994 -0.0391  0.0976 -0.4861
10150TIP3    H151941   6.716   5.379   2.901 -0.4577 -0.1545 -0.4428
10150TIP3    H251942   6.652   5.338   3.032 -1.5033  1.4298 -0.4295
10151TIP3   OH251943   5.027   4.664   2.735 -0.2819  0.3180 -0.4700
10151TIP3    H151944   5.009   4.571   2.724 -2.0705  0.3963  1.2824
10151TIP3    H251945   4.965   4.707   2.676 -1.5078  0.4191  0.8287
10152TIP3   OH251946   3.459   4.816   0.446 -0.4842 -0.0974 -0.1805
10152TIP3    H151947   3.393   4.747   0.440 -0.5734 -0.1309  0.9625
10152TIP3    H251948   3.522   4.784   0.511  0.8149 -0.1820 -1.4353
10153TIP3   OH251949   6.562   0.540   0.474 -0.1424 -0.0006  0.1077
10153TIP3    H151950   6.577   0.580   0.559  0.5761 -0.7790  0.3610
10153TIP3    H251951   6.525   0.610   0.421 -0.3886  0.5549  0.9907
10154TIP3   OH251952   0.889   5.980   2.380 -0.1702 -0.6285 -0.0181
10154TIP3    H151953   0.875   5.924   2.456 -0.2901  1.0501  1.2736
10154TIP3    H251954   0.806   6.027   2.369 -0.0985 -0.7148 -1.1020
10155TIP3   OH251955   5.463   0.638  14.884 -0.4728 -0.7414 -0.2134
10155TIP3    H151956   5.559   0.633  14.891 -0.4900  0.4286  1.3300
10155TIP3    H251957   5.434   0.663  14.971 -2.1960 -0.8971 -0.7109
10156TIP3   OH251958   3.904   0.351  15.990  0.2176  0.0636  0.8010
10156TIP3    H151959   3.877   0.260  15.984 -0.4692  0.3740 -2.0765
10156TIP3    H251960   3.979   0.350  16.050  0.0248 -2.3141  1.0893
10157TIP3   OH251961   0.006   6.621  11.473  0.6231  0.0391 -0.0461
10157TIP3    H151962   0.093   6.605  11.509  1.2434 -2.5897 -2.3247
10157TIP3    H251963  -0.044   6.543  11.495 -1.7381  2.0584  2.4156
10158TIP3   OH251964   1.482   0.604  14.574  0.4052 -0.2247  0.0284
10158TIP3    H151965   1.529   0.619  14.656 -1.4124 -1.7716  1.4746
10158TIP3    H251966   1.545   0.623  14.505  2.4846 -0.3287  1.8162
10159TIP3   OH251967   6.754   6.488  14.402  0.3842  0.5406  0.2642
10159TIP3    H151968   6.811   6.556  14.439  1.2852 -0.0842  0.0602
10159TIP3    H251969   6.692   6.468  14.473  0.0173  1.6549  0.2806
10160TIP3   OH251970   6.541   0.489  13.867 -0.1576  0.4869  0.6874
10160TIP3    H151971   6.517   0.571  13.823 -0.4196  0.0769  0.0512
10160TIP3    H251972   6.458   0.451  13.895 -0.2134 -0.4633 -0.6686
10161TIP3   OH251973   6.591   5.169   0.384 -0.1653 -0.3976 -0.3351
10161TIP3    H151974   6.539   5.188   0.306 -0.9605  0.4917  0.4021
10161TIP3    H251975   6.677   5.206   0.365 -0.5748  0.4860 -0.4958
10162TIP3   OH251976   1.642   4.510   0.057  0.3197 -0.0201 -0.3039
10162TIP3    H151977   1.613   4.425   0.092  0.8345 -0.9874 -2.1040
10162TIP3    H251978   1.613   4.509  -0.034  5.1577 -0.8139 -2.1194
10163TIP3   OH251979   3.223   0.765   5.653  0.0493  0.2922  0.3728
10163TIP3    H151980   3.238   0.806   5.567 -0.3394 -2.7447 -1.2922
10163TIP3    H251981   3.163   0.825   5.697 -0.7783  1.3581 -2.0085
10164TIP3   OH251982   4.535   0.771   0.445  0.8575 -0.0397 -0.2120
10164TIP3    H151983   4.608   0.742   0.498  0.5677  0.2172  0.3378
10164TIP3    H251984   4.464   0.712   0.467  0.9993 -0.5187 -1.0194
10165TIP3   OH251985   2.709   6.006  15.958  0.3403 -0.1925 -0.2513
10165TIP3    H151986   2.678   6.036  16.044  1.1170  2.4186 -0.8089
10165TIP3    H251987   2.629   5.985  15.910 -0.2353  0.6466  0.3157
10166TIP3   OH251988   6.061   0.096  13.357 -0.0737 -0.0443  0.5150
10166TIP3    H151989   6.079   0.128  13.269 -0.6779 -0.5382  0.2022
10166TIP3    H251990   5.973   0.129  13.376 -1.2011 -2.3975 -0.2604
10167TIP3   OH251991   4.022   1.756  16.175 -0.0933  0.2211 -0.5888
10167TIP3    H151992   4.026   1.844  16.212 -1.9925 -0.1086  0.5127
10167TIP3    H251993   4.072   1.702  16.236  0.5407  0.4155 -0.9278
10168TIP3   OH251994   1.570   4.241   0.167 -0.1530 -0.7163 -0.2158
10168TIP3    H151995   1.656   4.208   0.139  0.3428  0.0853  0.3281
10168TIP3    H251996   1.519   4.162   0.185  0.9386 -1.2072  0.8609
10169TIP3   OH251997   0.326   4.690  13.635 -0.2016  0.3278  0.5658
10169TIP3    H151998   0.342   4.596  13.637  0.0106  0.3415 -0.2628
10169TIP3    H251999   0.338   4.715  13.544 -0.7958  1.0686  0.6758
10170TIP3   OH252000   2.786   2.478   6.295 -0.0965 -0.1663  0.5880
10170TIP3    H152001   2.807   2.501   6.385 -0.1668 -1.4328  0.9512
10170TIP3    H252002   2.717   2.412   6.302 -0.3085 -0.0722 -0.3999
10171TIP3   OH252003   3.271   5.365  14.144 -0.3611 -0.1335 -0.4266
10171TIP3    H152004   3.364   5.354  14.125 -0.2676 -1.1414  0.5224
10171TIP3    H252005   3.235   5.406  14.066  0.6804 -0.7315 -1.2364
10172TIP3   OH252006   4.385   6.503  10.908 -0.5719  0.1895 -0.0308
10172TIP3    H152007   4.311   6.444  10.891 -0.4316  0.3091 -1.1253
10172TIP3    H252008   4.349   6.571  10.965 -0.7030 -1.0081  1.3671
10173TIP3   OH252009   0.928   5.865  11.943 -0.2404  0.0103  0.0416
10173TIP3    H152010   0.993   5.917  11.991  0.6271 -1.4267  0.4606
10173TIP3    H252011   0.847   5.877  11.993  0.1341  0.3077  0.5876
10174TIP3   OH252012   5.533   1.093  14.504  0.4713  0.2168 -0.4017
10174TIP3    H152013   5.595   1.082  14.576 -0.6643 -0.8006  0.4555
10174TIP3    H252014   5.536   1.010  14.457 -0.1402  0.2102 -0.4339
10175TIP3   OH252015   5.099   3.457  15.131 -0.0749 -0.1162  0.0009
10175TIP3    H152016   5.179   3.427  15.087 -0.3973  0.0468 -0.7161
10175TIP3    H252017   5.113   3.551  15.143  0.6457 -0.3920  1.6311
10176TIP3   OH252018   4.127   3.511   0.161  0.0508  0.3510  0.2076
10176TIP3    H152019   4.066   3.480   0.228  1.5168 -1.5011  0.7859
10176TIP3    H252020   4.072   3.536   0.087 -1.4424 -0.4444  1.0110
10177TIP3   OH252021   4.759   0.655  15.241 -0.5027 -0.5815 -0.3227
10177TIP3    H152022   4.730   0.745  15.230  0.8971 -0.2753 -1.8891
10177TIP3    H252023   4.854   0.661  15.252 -0.3782 -1.8670 -0.5144
10178TIP3   OH252024   6.653   5.496  16.893 -0.6541  0.1737  0.3694
10178TIP3    H152025   6.670   5.401  16.896  0.6421  0.2711 -1.7997
10178TIP3    H252026   6.602   5.508  16.812  0.3111  1.4463 -0.0739
10179TIP3   OH252027   6.317   3.037   3.385 -0.0712 -0.2765 -0.1160
10179TIP3    H152028   6.224   3.051   3.368  0.3512  2.5133 -0.6901
10179TIP3    H252029   6.332   2.944   3.365 -2.3154 -0.3109 -2.0328
10180TIP3   OH252030   2.171   3.269  14.658  0.0548 -0.4955  0.1139
10180TIP3    H152031   2.178   3.176  14.634 -0.2254 -0.7978  1.1223
10180TIP3    H252032   2.165   3.315  14.574 -1.8591 -1.5668 -0.4000
10181TIP3   OH252033   6.275   0.983   2.575  0.3233  0.0696  0.2588
10181TIP3    H152034   6.195   0.984   2.627  2.1053  2.5242  3.2602
10181TIP3    H252035   6.252   1.034   2.496 -1.0224  0.9983  1.1924
10182TIP3   OH252036   6.810   0.950   1.321  0.3549  0.6810  0.6360
10182TIP3    H152037   6.746   0.891   1.281  0.9238  0.0288  0.6765
10182TIP3    H252038   6.788   0.950   1.414  0.3916  0.4844  0.6450
10183TIP3   OH252039   1.908   4.372   6.020 -0.3915 -0.4137  0.2795
10183TIP3    H152040   1.884   4.348   6.110 -1.0652  0.9929  0.4980
10183TIP3    H252041   1.973   4.442   6.031 -0.1266 -0.5580 -0.3383
10184TIP3   OH252042   3.314   4.548   2.522  0.1681 -0.0039  0.2667
10184TIP3    H152043   3.344   4.490   2.452  1.0618  0.6649  0.0850
10184TIP3    H252044   3.388   4.554   2.581  0.1465  1.0774  0.1994
10185TIP3   OH252045   4.935   2.224   5.898 -0.3164  0.5837  0.7178
10185TIP3    H152046   4.866   2.273   5.853  0.3190  1.0993  0.2837
10185TIP3    H252047   4.931   2.254   5.989 -0.5174  0.7754  0.6443
10186TIP3   OH252048   4.335   0.785   4.432 -0.0864 -0.0134  0.0240
10186TIP3    H152049   4.263   0.842   4.406  0.2978  1.1346  1.3877
10186TIP3    H252050   4.376   0.829   4.506 -0.9437 -2.9366  2.4603
10187TIP3   OH252051   3.839   0.402   1.083  0.6226  0.0198  0.1965
10187TIP3    H152052   3.775   0.339   1.117  0.8826  0.4959  1.6382
10187TIP3    H252053   3.812   0.486   1.121  1.8543  0.2937  0.5024
10188TIP3   OH252054   0.551   6.127  13.436 -0.4222 -0.4864  0.0315
10188TIP3    H152055   0.484   6.060  13.426 -2.2637  0.9864  1.6218
10188TIP3    H252056   0.508   6.198  13.484  2.3359  0.4691  1.3657
10189TIP3   OH252057   4.557   3.350   0.648 -0.4677  0.5836 -0.4215
10189TIP3    H152058   4.470   3.387   0.665 -0.5944  0.4369 -0.7228
10189TIP3    H252059   4.545   3.255   0.658 -0.1789  0.6127  0.2081
10190TIP3   OH252060   0.515   4.737   3.966 -0.3218 -0.2357  0.5790
10190TIP3    H152061   0.602   4.756   4.002 -0.3707 -0.2156  0.6872
10190TIP3    H252062   0.455   4.781   4.025 -0.3641  0.5205 -0.0087
10191TIP3   OH252063   2.042   1.482  13.915 -0.2863  0.6885  0.6246
10191TIP3    H152064   1.950   1.459  13.931  0.0013 -0.9768  0.0968
10191TIP3    H252065   2.054   1.470  13.821  0.8147 -0.5048  0.8957
10192TIP3   OH252066   4.343   1.350   2.251 -0.8881  0.5963 -0.5616
10192TIP3    H152067   4.358   1.260   2.225  1.1566 -0.6128  3.9005
10192TIP3    H252068   4.263   1.347   2.304 -0.3955  1.2147  0.2411
10193TIP3   OH252069   1.788   1.456  14.099 -0.2873 -0.1680  0.3056
10193TIP3    H152070   1.844   1.487  14.170 -2.3659  1.8002  1.2342
10193TIP3    H252071   1.765   1.366  14.124  0.1874 -0.0056  1.3894
10194TIP3   OH252072   1.469   5.876  15.040  0.3055 -0.4016 -0.4948
10194TIP3    H152073   1.470   5.947  15.105 -0.6700 -0.2036 -0.6829
10194TIP3    H252074   1.414   5.910  14.969  0.1457 -1.2020 -0.7558
10195TIP3   OH252075   3.763   5.553  14.536 -0.2683  0.1885  0.3179
10195TIP3    H152076   3.763   5.473  14.589  0.1070  1.8514  2.9702
10195TIP3    H252077   3.730   5.524  14.451  1.7106 -3.1881  0.5019
10196TIP3   OH252078   5.674   0.717  12.604  0.0797  0.1304 -0.5843
10196TIP3    H152079   5.701   0.638  12.652  0.4048  0.7266  0.2465
10196TIP3    H252080   5.679   0.787  12.669 -2.1643  0.5257 -0.7454
10197TIP3   OH252081   5.930   5.357  16.032  0.3171 -0.0731 -0.0503
10197TIP3    H152082   5.941   5.361  15.937 -0.4214 -1.5349 -0.2290
10197TIP3    H252083   5.861   5.292  16.045 -0.1610  0.7089  1.4632
10198TIP3   OH252084   5.436   3.868  11.536 -0.1032  0.4562  0.8810
10198TIP3    H152085   5.346   3.868  11.569  0.1200 -1.5473  1.6153
10198TIP3    H252086   5.430   3.828  11.450 -0.1711  2.3939 -0.0822
10199TIP3   OH252087   0.468   2.331  10.550  0.3739 -0.7948  0.3450
10199TIP3    H152088   0.430   2.401  10.497  0.7638 -0.9428 -0.1322
10199TIP3    H252089   0.548   2.370  10.587 -0.5237 -0.2813  1.8384
10200TIP3   OH252090   2.891   3.556  15.306 -0.3370  0.3807 -0.9234
10200TIP3    H152091   2.847   3.596  15.231 -1.0415 -0.1883 -0.8242
10200TIP3    H252092   2.838   3.480  15.328  0.0783  0.3093 -0.0913
10201TIP3   OH252093   0.789   6.513   5.957 -0.7149  0.0801  0.1552
10201TIP3    H152094   0.704   6.559   5.957 -0.1538  1.1565  0.5357
10201TIP3    H252095   0.802   6.485   6.047 -0.8585 -0.4632  0.0091
10202TIP3   OH252096   5.772   1.419  13.585  0.1416 -0.5188  0.1007
10202TIP3    H152097   5.808   1.507  13.570 -1.3209  0.3019  1.1283
10202TIP3    H252098   5.833   1.379  13.647  0.3754  0.0881  0.2689
10203TIP3   OH252099   3.439   3.848  16.018  0.5532 -0.2302  0.3384
10203TIP3    H152100   3.411   3.783  15.955  0.2818 -0.7401  0.9708
10203TIP3    H252101   3.535   3.846  16.013  0.5327 -0.3035 -0.0181
10204TIP3   OH252102   0.799   2.302  14.167 -0.3219 -0.3155 -0.2473
10204TIP3    H152103   0.847   2.382  14.147 -1.2956  0.5863  0.8908
10204TIP3    H252104   0.822   2.282  14.258 -0.5358 -1.0034 -0.3380
10205TIP3   OH252105   4.336   0.503  16.963 -0.4287 -0.0055 -0.6170
10205TIP3    H152106   4.286   0.494  16.882  1.2347 -0.3207 -1.6576
10205TIP3    H252107   4.304   0.432  17.019 -1.0056 -0.3178 -1.3264
10206TIP3   OH252108   3.587   2.035   0.384 -0.2952 -1.0527 -0.0294
10206TIP3    H152109   3.520   2.103   0.383  0.4657 -0.0970  2.9860
10206TIP3    H252110   3.670   2.082   0.378  0.1970 -1.9192 -0.2374
10207TIP3   OH252111   6.617   4.741  11.141 -0.0073 -0.1580 -0.0845
10207TIP3    H152112   6.680   4.691  11.194 -0.8889 -0.5567  0.6276
10207TIP3    H252113   6.556   4.675  11.109 -0.5535  0.3301 -0.0588
10208TIP3   OH252114   2.589   5.610  12.169 -0.4495 -0.6648 -0.5996
10208TIP3    H152115   2.672   5.593  12.124 -0.4669  0.7992 -1.2371
10208TIP3    H252116   2.522   5.589  12.105 -0.6626 -3.0056  0.3052
10209TIP3   OH252117   0.617   2.752  11.382 -0.1219 -0.2872  0.4533
10209TIP3    H152118   0.594   2.699  11.458  1.1347 -2.7987 -0.8058
10209TIP3    H252119   0.608   2.843  11.413  2.5216 -1.1040  4.3303
10210TIP3   OH252120   4.674   5.493   4.820 -0.2472  0.1214  0.1602
10210TIP3    H152121   4.683   5.471   4.912 -0.9581  0.9052  0.4378
10210TIP3    H252122   4.687   5.588   4.817  3.1410 -0.2561 -1.0285
10211TIP3   OH252123   2.792   6.519   1.347 -0.0815  0.6090  0.4704
10211TIP3    H152124   2.878   6.560   1.348  0.4067 -0.4006  1.2188
10211TIP3    H252125   2.804   6.436   1.394 -0.6776 -1.0789 -2.1059
10212TIP3   OH252126   1.193   3.506   0.595 -0.1691 -0.5015  0.1642
10212TIP3    H152127   1.285   3.502   0.621 -0.3886 -1.2366  0.8930
10212TIP3    H252128   1.189   3.461   0.510  0.0500 -1.0463  0.4380
10213TIP3   OH252129   3.972   2.332   2.016 -0.1852  0.5510 -0.0200
10213TIP3    H152130   3.948   2.284   1.937 -0.5747  1.3067 -0.3701
10213TIP3    H252131   4.067   2.339   2.012 -0.1796  0.3304 -0.2709
10214TIP3   OH252132   6.639   2.757  11.629 -0.4459 -0.1862 -0.3527
10214TIP3    H152133   6.570   2.816  11.659  0.0824  1.5305 -2.2751
10214TIP3    H252134   6.598   2.707  11.558  0.1694  0.6992 -1.3668
10215TIP3   OH252135   3.921   1.876   5.415 -0.0519 -0.2606  0.0660
10215TIP3    H152136   3.974   1.938   5.365 -2.1517 -0.2049 -2.2568
10215TIP3    H252137   3.918   1.798   5.360  0.4909 -1.5816  1.8047
10216TIP3   OH252138   2.843   3.944   4.724 -0.5055  0.0822 -0.2629
10216TIP3    H152139   2.920   3.890   4.741 -0.9622 -0.6351 -0.4379
10216TIP3    H252140   2.810   3.969   4.811 -0.7685 -0.6102 -0.1599
10217TIP3   OH252141   3.910   5.762   2.181  0.0715 -0.1746 -0.0937
10217TIP3    H152142   3.821   5.783   2.153  0.2864 -0.2299 -0.8326
10217TIP3    H252143   3.905   5.759   2.277 -0.6714  0.0313 -0.1219
10218TIP3   OH252144   4.216   0.882   2.429  0.0846 -0.7220  0.4176
10218TIP3    H152145   4.213   0.853   2.337 -0.7400 -1.2396  0.5958
10218TIP3    H252146   4.309   0.898   2.446  0.4431 -2.1013 -0.0672
10219TIP3   OH252147   3.353   1.787  14.532 -0.1645  0.7029 -0.3954
10219TIP3    H152148   3.337   1.881  14.544 -1.1389  0.5341 -0.3393
10219TIP3    H252149   3.280   1.744  14.575  0.6113 -0.1122  0.1522
10220TIP3   OH252150   5.683   2.929   4.629 -0.6843  0.2232 -0.3381
10220TIP3    H152151   5.692   2.837   4.602 -2.1681 -0.0069 -0.1375
10220TIP3    H252152   5.747   2.976   4.575 -0.3786 -0.8420 -0.9336
10221TIP3   OH252153   6.230   1.244   3.623 -0.8307 -0.0785  0.5471
10221TIP3    H152154   6.162   1.205   3.568 -0.6355 -0.5082  0.6058
10221TIP3    H252155   6.263   1.318   3.572  0.9555 -1.8097 -0.9673
10222TIP3   OH252156   6.209   1.805  16.759  0.5017 -0.1341  0.3273
10222TIP3    H152157   6.194   1.768  16.671 -0.6891  2.6592 -0.7402
10222TIP3    H252158   6.160   1.747  16.817  1.1627 -1.9495 -0.8238
10223TIP3   OH252159   3.580   0.409   3.568  0.3323  0.0622 -0.6642
10223TIP3    H152160   3.671   0.424   3.595  0.8192 -2.0662 -0.9202
10223TIP3    H252161   3.528   0.431   3.645  1.1366  0.5839 -0.2563
10224TIP3   OH252162   5.384   3.484   2.543 -0.3939  0.3037  0.0109
10224TIP3    H152163   5.321   3.555   2.529 -0.3032  0.2942 -0.4895
10224TIP3    H252164   5.469   3.524   2.528 -0.3716 -0.0179 -0.7828
10225TIP3   OH252165   6.010   2.290   1.100 -0.3000 -0.4503  0.2389
10225TIP3    H152166   6.043   2.380   1.096 -2.6455  0.4363 -1.9494
10225TIP3    H252167   5.948   2.291   1.173  1.4687 -1.0595  1.8313
10226TIP3   OH252168   3.624   0.285   2.815  0.0144  0.1412 -0.5102
10226TIP3    H152169   3.577   0.239   2.746 -0.6830  1.0540 -0.6664
10226TIP3    H252170   3.716   0.262   2.801 -0.3179 -1.2905 -0.4873
10227TIP3   OH252171   1.761   2.162   5.455 -0.0024  0.2794  0.3257
10227TIP3    H152172   1.784   2.070   5.448  1.0715  0.6171 -1.0482
10227TIP3    H252173   1.666   2.163   5.471 -0.4550 -1.0313 -1.9250
10228TIP3   OH252174   6.128   0.991   4.853 -0.3153  0.7555  0.0837
10228TIP3    H152175   6.096   1.072   4.892 -0.6933  1.3830 -1.4673
10228TIP3    H252176   6.194   0.960   4.915 -2.3019  0.5805  2.2542
10229TIP3   OH252177   6.395   4.489   2.405  0.0823 -0.0053 -0.2169
10229TIP3    H152178   6.470   4.541   2.376 -0.0030  0.1749 -0.1232
10229TIP3    H252179   6.323   4.552   2.408 -0.4946 -0.5264 -1.9879
10230TIP3   OH252180   0.094   0.286   1.368 -0.4143  0.0666 -0.0799
10230TIP3    H152181   0.127   0.338   1.441 -1.5348  0.1711  0.3672
10230TIP3    H252182   0.153   0.211   1.364 -1.2357 -0.7682  1.9632
10231TIP3   OH252183   5.506   2.100   5.860  0.3878  0.5507  0.1318
10231TIP3    H152184   5.431   2.159   5.853  0.1282  0.0910 -1.2205
10231TIP3    H252185   5.541   2.116   5.948 -0.4197  1.8064  0.2456
10232TIP3   OH252186   4.297   3.556   3.607  0.2244 -0.2123  0.0456
10232TIP3    H152187   4.245   3.614   3.663 -0.5901 -1.6531  0.8484
10232TIP3    H252188   4.387   3.570   3.635 -0.0839 -0.2601  1.1103
10233TIP3   OH252189   2.082   0.200  11.482 -0.1586 -0.4017  0.2566
10233TIP3    H152190   2.144   0.273  11.485  0.8268 -1.1710 -0.5052
10233TIP3    H252191   2.008   0.228  11.536 -0.3091  1.6079 -0.8903
10234TIP3   OH252192   0.035   5.139  11.234 -0.1781  0.2283  0.3441
10234TIP3    H152193  -0.022   5.105  11.164  0.4983  0.3579 -0.2768
10234TIP3    H252194   0.105   5.184  11.188  0.4000  0.1226  1.1085
10235TIP3   OH252195   6.631   6.408  16.301  0.0458  0.4863  0.8698
10235TIP3    H152196   6.601   6.425  16.211  0.6973 -0.3471  0.4835
10235TIP3    H252197   6.550   6.407  16.353 -0.5532 -0.9066 -0.0217
10236TIP3   OH252198   1.949   1.581  14.313 -0.2830  0.9125 -0.6682
10236TIP3    H152199   2.033   1.585  14.358  0.3687 -0.1466 -1.7590
10236TIP3    H252200   1.959   1.640  14.238 -0.3112  0.3757 -1.1021
10237TIP3   OH252201   4.588   4.676   1.931  0.0403  0.2005  0.1387
10237TIP3    H152202   4.624   4.654   1.846  1.7111 -1.7568  1.2578
10237TIP3    H252203   4.554   4.765   1.921  1.2244  0.4522 -2.2235
10238TIP3   OH252204   1.751   5.089   5.714  0.0595  0.2689  0.4180
10238TIP3    H152205   1.793   5.009   5.745 -1.2113  0.4891  2.9697
10238TIP3    H252206   1.681   5.106   5.777 -0.6490  2.6205 -0.8584
10239TIP3   OH252207   4.434   0.590  12.143  0.5739 -0.7390 -0.2666
10239TIP3    H152208   4.382   0.510  12.150 -1.0270  0.2297 -0.7115
10239TIP3    H252209   4.372   0.661  12.159  1.8056  0.4490 -0.5958
10240TIP3   OH252210   0.042   3.170  15.748  0.1430  0.5710  0.0330
10240TIP3    H152211   0.015   3.252  15.707  0.6209  0.2954 -0.8578
10240TIP3    H252212  -0.028   3.150  15.810  0.2145  1.8578  0.5760
10241TIP3   OH252213   3.386   1.344   3.103 -0.7537 -0.4626  0.3444
10241TIP3    H152214   3.435   1.386   3.173 -0.1330 -0.2652 -0.2018
10241TIP3    H252215   3.449   1.331   3.033 -1.2538 -1.0880 -0.0091
10242TIP3   OH252216   6.238   4.980   2.755  0.7974 -0.3849 -0.3607
10242TIP3    H152217   6.166   5.025   2.712  0.2116  1.2926  2.1392
10242TIP3    H252218   6.236   4.891   2.719 -1.5363  0.0355 -1.4705
10243TIP3   OH252219   2.730   5.919  13.052 -0.0387  0.5425 -0.8503
10243TIP3    H152220   2.794   5.884  12.989  0.3393  2.6237 -1.6882
10243TIP3    H252221   2.768   6.001  13.082 -0.4635 -0.1377  1.7722
10244TIP3   OH252222   0.744   3.190  12.698 -0.4079 -0.0006 -0.1603
10244TIP3    H152223   0.817   3.130  12.715 -0.9592 -0.3867  0.9615
10244TIP3    H252224   0.764   3.267  12.751  0.5426  1.0552 -1.9721
10245TIP3   OH252225   2.936   5.581  16.738  0.5801 -0.8225 -0.4712
10245TIP3    H152226   2.994   5.594  16.663 -1.3483  0.9544 -1.7357
10245TIP3    H252227   2.877   5.510  16.711 -0.7301  0.4566 -1.0888
10246TIP3   OH252228   2.661   6.353   4.280 -0.3859  0.4915 -0.2789
10246TIP3    H152229   2.603   6.410   4.331 -0.5580  1.0369 -1.0559
10246TIP3    H252230   2.736   6.409   4.258 -0.0142  0.0756 -0.0863
10247TIP3   OH252231   6.512   0.411   2.863 -0.3386 -0.4595  0.7022
10247TIP3    H152232   6.585   0.365   2.904  1.0679 -0.7605 -1.9357
10247TIP3    H252233   6.453   0.341   2.835 -0.5387 -0.3485  0.8441
10248TIP3   OH252234   6.536   5.437  15.325 -0.2955 -0.5893  0.4121
10248TIP3    H152235   6.525   5.392  15.241  1.7869  0.3478 -0.4220
10248TIP3    H252236   6.599   5.383  15.372  0.4200  0.1708  0.3516
10249TIP3   OH252237   2.386   1.606   6.078  0.0114 -0.4930 -0.5093
10249TIP3    H152238   2.410   1.688   6.035  0.9819  0.3007  1.4131
10249TIP3    H252239   2.293   1.616   6.100  0.0419 -0.0592 -0.5831
10250TIP3   OH252240   6.411   0.943  12.130 -0.4719  0.0577 -0.1631
10250TIP3    H152241   6.435   0.955  12.038  1.0382 -0.8069  0.0741
10250TIP3    H252242   6.336   0.884  12.127 -0.4525  0.0559 -0.8559
10251TIP3   OH252243   1.407   6.372   3.109 -0.2057 -0.6786  0.3509
10251TIP3    H152244   1.446   6.287   3.088 -1.1650 -1.0733  0.1560
10251TIP3    H252245   1.345   6.388   3.039  0.1911  0.3387  0.2221
10252TIP3   OH252246   0.438   0.105  15.517 -0.0983  0.1512  0.3991
10252TIP3    H152247   0.418   0.194  15.546 -0.3327  0.5935 -1.0600
10252TIP3    H252248   0.369   0.085  15.453  0.7054 -0.5873 -0.2482
10253TIP3   OH252249   5.166   3.297   5.192 -0.0732 -0.0173  0.2354
10253TIP3    H152250   5.211   3.325   5.112  2.2510 -0.0426  1.4710
10253TIP3    H252251   5.146   3.204   5.177 -2.6127  0.7107 -1.5452
10254TIP3   OH252252   6.812   0.592   4.093 -1.1891 -0.5775 -0.0433
10254TIP3    H152253   6.762   0.671   4.078  0.5217  0.9925  1.8746
10254TIP3    H252254   6.856   0.573   4.010 -0.8786  1.0744 -0.2753
10255TIP3   OH252255   4.626   2.757   1.167 -0.2357  0.0542 -0.3795
10255TIP3    H152256   4.617   2.839   1.215  1.6836  0.5383 -0.7469
10255TIP3    H252257   4.718   2.756   1.137  0.7848 -3.5361  2.1022
10256TIP3   OH252258   6.136   6.380  15.987  0.3476 -0.0659  0.3262
10256TIP3    H152259   6.065   6.321  15.960 -0.1668  0.2394  0.9704
10256TIP3    H252260   6.100   6.467  15.977  0.3666  0.0761  1.3329
10257TIP3   OH252261   3.017   4.646   2.842 -0.3575  0.3393  0.4600
10257TIP3    H152262   3.052   4.686   2.762 -1.4920  0.5818  0.0532
10257TIP3    H252263   2.922   4.647   2.829 -0.5260 -0.2552  1.5202
10258TIP3   OH252264   6.754   0.311   2.142  0.1867  0.4126  0.5863
10258TIP3    H152265   6.846   0.328   2.123  0.4201  2.1117  2.8079
10258TIP3    H252266   6.744   0.217   2.127  3.0177 -0.3780  2.7287
10259TIP3   OH252267   6.127   3.210   1.315 -0.2220 -0.3234 -0.0559
10259TIP3    H152268   6.084   3.245   1.237  2.0638  2.0975 -0.3851
10259TIP3    H252269   6.139   3.117   1.296 -1.1472 -0.1141 -1.8936
10260TIP3   OH252270   6.587   0.475   3.606 -0.3175 -0.1139 -0.1890
10260TIP3    H152271   6.522   0.504   3.543  0.5934 -1.1981 -1.6941
10260TIP3    H252272   6.624   0.395   3.568  1.0822 -0.1590  1.1530
10261TIP3   OH252273   4.515   0.019   6.005  0.2978  0.3118  0.0557
10261TIP3    H152274   4.535   0.101   6.052  1.9441  0.0723 -0.1702
10261TIP3    H252275   4.546  -0.050   6.064 -4.5395 -0.5532  2.1142
10262TIP3   OH252276   2.557   3.413  12.226 -0.2227  0.4751  0.0300
10262TIP3    H152277   2.625   3.414  12.158  1.4684  1.9110  1.6214
10262TIP3    H252278   2.544   3.320  12.246  0.5383  0.1258 -1.0328
10263TIP3   OH252279   0.524   2.520  14.441 -0.5250 -0.2206 -0.0900
10263TIP3    H152280   0.555   2.598  14.488 -2.4395  1.7755 -1.8879
10263TIP3    H252281   0.483   2.466  14.509 -0.4966  1.0733  1.0032
10264TIP3   OH252282   2.806   6.589  16.191 -0.0424 -0.2816  1.1742
10264TIP3    H152283   2.882   6.634  16.227  1.2918 -0.6223 -1.0346
10264TIP3    H252284   2.748   6.660  16.162  0.1120 -0.0107  1.5240
10265TIP3   OH252285   4.187   2.024   3.393  0.0524 -0.1192 -0.7263
10265TIP3    H152286   4.194   1.969   3.315 -2.1724  1.6075 -2.2802
10265TIP3    H252287   4.249   2.096   3.377  0.9174 -0.6725  0.0061
10266TIP3   OH252288   1.374   1.376  16.386  0.2023 -0.0266 -0.4439
10266TIP3    H152289   1.409   1.303  16.436 -0.0347 -0.7832 -1.3556
10266TIP3    H252290   1.292   1.399  16.432  0.7802  0.3478  0.4297
10267TIP3   OH252291   3.739   3.892  11.652 -0.0030  0.0568  0.2358
10267TIP3    H152292   3.685   3.860  11.724 -1.6319 -0.3317 -1.0947
10267TIP3    H252293   3.720   3.985  11.647  0.2988  0.1311  0.4580
10268TIP3   OH252294   3.942   4.747   4.932 -0.0998  0.4433  0.3115
10268TIP3    H152295   3.853   4.713   4.934 -0.9095  2.4224  1.1071
10268TIP3    H252296   3.956   4.780   5.021  1.3332  0.4130  0.1178
10269TIP3   OH252297   2.777   5.033  16.597  0.4299 -1.0462 -0.5053
10269TIP3    H152298   2.819   5.109  16.556  1.1397 -1.5793 -0.7759
10269TIP3    H252299   2.835   5.010  16.670 -2.4161  1.9255  3.0608
10270TIP3   OH252300   0.315   0.640  12.799  0.3597  0.6772 -0.2540
10270TIP3    H152301   0.246   0.611  12.859  1.8545  0.5269  1.4922
10270TIP3    H252302   0.317   0.735  12.809 -0.1746  0.7815 -1.0131
10271TIP3   OH252303   5.914   4.288  15.951 -0.0868  0.0662 -0.2749
10271TIP3    H152304   5.890   4.251  16.036 -0.2960  0.8760  0.0295
10271TIP3    H252305   5.861   4.367  15.943  0.2224  0.2119 -0.9864
10272TIP3   OH252306   3.781   1.411   1.501  0.0929  0.2502  0.0757
10272TIP3    H152307   3.755   1.341   1.441  1.0699  0.8340 -1.0642
10272TIP3    H252308   3.707   1.418   1.562 -0.9797 -0.3077 -1.1022
10273TIP3   OH252309   5.848   5.654  15.755 -0.3259 -0.9126 -0.1275
10273TIP3    H152310   5.763   5.668  15.796  0.3612 -0.3984  1.1396
10273TIP3    H252311   5.867   5.561  15.772 -0.0772 -0.7202  0.6580
10274TIP3   OH252312   3.678   4.219   1.522 -0.2968 -0.1212 -0.3688
10274TIP3    H152313   3.745   4.229   1.590 -1.3766  0.1068  0.7045
10274TIP3    H252314   3.641   4.131   1.538 -0.8723  0.1188 -0.3531
10275TIP3   OH252315   0.553   5.490   4.133 -0.0929  0.0482  0.1736
10275TIP3    H152316   0.462   5.518   4.140  0.3982  1.4707  1.5311
10275TIP3    H252317   0.604   5.570   4.142  1.3266 -0.8964  1.1667
10276TIP3   OH252318   0.134   4.780  14.262 -0.0274  0.4968 -0.1277
10276TIP3    H152319   0.095   4.865  14.280 -1.6179  0.0783 -1.4208
10276TIP3    H252320   0.151   4.780  14.168 -0.1195 -0.6545 -0.1600
10277TIP3   OH252321   2.467   2.491   5.659  0.2541 -0.1332 -0.4964
10277TIP3    H152322   2.380   2.526   5.639 -0.1948 -0.9175  0.0425
10277TIP3    H252323   2.477   2.417   5.600 -0.8988 -2.1894  1.7093
10278TIP3   OH252324   1.047   4.306   2.479  0.6141  0.0511  0.1970
10278TIP3    H152325   1.019   4.276   2.565  0.0404  0.9253  0.3264
10278TIP3    H252326   0.985   4.375   2.455  1.8437  1.1024 -0.1023
10279TIP3   OH252327   3.363   4.011  13.937  0.0036 -0.2580 -0.0019
10279TIP3    H152328   3.451   4.009  13.974  0.9192 -0.0558 -2.0202
10279TIP3    H252329   3.346   4.103  13.919 -1.5859 -0.0041  2.3867
10280TIP3   OH252330   5.609   4.123  15.873 -0.4033 -0.0187 -0.8624
10280TIP3    H152331   5.585   4.169  15.953  1.1036  1.4055 -1.1780
10280TIP3    H252332   5.580   4.033  15.888 -0.7557  0.3638  1.0072
10281TIP3   OH252333   2.477   1.314   1.401 -0.4037 -0.7174 -0.1974
10281TIP3    H152334   2.463   1.329   1.308 -1.8213 -0.3787  0.0523
10281TIP3    H252335   2.433   1.388   1.444  2.0159  0.3067  0.6909
10282TIP3   OH252336   0.523   6.089   2.420  0.1822 -0.2201 -0.0230
10282TIP3    H152337   0.501   6.024   2.487  1.1800 -0.8704 -0.3032
10282TIP3    H252338   0.557   6.164   2.470 -1.6561  0.4104  0.3485
10283TIP3   OH252339   5.933   5.111   5.199  0.0152  0.5969  0.2872
10283TIP3    H152340   5.838   5.108   5.212 -0.2885 -0.4895 -1.8353
10283TIP3    H252341   5.948   5.063   5.118  2.6015 -1.0121  1.5936
10284TIP3   OH252342   4.723   0.728  17.169 -0.2441  0.6359  0.3805
10284TIP3    H152343   4.631   0.756  17.176 -0.2999  0.3563  0.7847
10284TIP3    H252344   4.718   0.638  17.136 -0.1103  0.6502  0.3200
10285TIP3   OH252345   1.301   0.108  13.954 -0.1845  0.1442  0.0020
10285TIP3    H152346   1.225   0.057  13.924  0.8089 -0.9883 -0.6669
10285TIP3    H252347   1.323   0.070  14.039 -0.9235  1.1058  0.6438
10286TIP3   OH252348   5.347   2.263   0.932  0.1938  0.2519 -0.1083
10286TIP3    H152349   5.268   2.214   0.955  0.5290 -0.1746  0.1422
10286TIP3    H252350   5.370   2.230   0.845 -0.4605  1.0885 -0.6101
10287TIP3   OH252351   1.593   0.510  15.568 -0.2560  0.0235  0.1531
10287TIP3    H152352   1.511   0.522  15.617  0.0794 -0.0871  0.7612
10287TIP3    H252353   1.624   0.424  15.596 -1.8477 -1.7195 -2.9512
10288TIP3   OH252354   3.096   2.791   3.145  0.1144  0.5413  0.0516
10288TIP3    H152355   3.111   2.698   3.159  0.9374  0.8445  1.4584
10288TIP3    H252356   3.002   2.803   3.156 -0.1274 -0.2342 -1.0104
10289TIP3   OH252357   4.186   2.981  10.917 -0.2015 -0.2063  0.4657
10289TIP3    H152358   4.235   2.975  10.835 -2.8062  0.1280 -1.2374
10289TIP3    H252359   4.148   2.894  10.928  0.7262 -0.4724  1.7778
10290TIP3   OH252360   5.259   6.380   0.518 -0.2318  0.2502  0.2522
10290TIP3    H152361   5.237   6.456   0.572 -2.1966  0.7138 -1.0727
10290TIP3    H252362   5.210   6.394   0.437  1.5375 -1.0887 -1.1240
10291TIP3   OH252363   4.378   0.751  15.124  0.2976  0.5881  0.0540
10291TIP3    H152364   4.430   0.805  15.183  0.5040  0.7885 -0.3016
10291TIP3    H252365   4.440   0.725  15.055 -0.0136  0.6330 -0.2477
10292TIP3   OH252366   0.233   3.493  16.599 -0.3735  0.0343  0.0331
10292TIP3    H152367   0.289   3.568  16.579 -1.4543  0.8717  0.0194
10292TIP3    H252368   0.286   3.438  16.656  1.1146 -0.1343 -1.4483
10293TIP3   OH252369   2.591   5.304   3.635  0.5255 -0.0227 -0.6433
10293TIP3    H152370   2.600   5.243   3.562  2.8839 -1.5717  0.8077
10293TIP3    H252371   2.560   5.249   3.707  1.8966  0.6468  0.4874
10294TIP3   OH252372   0.037   0.328  16.990  0.4174 -0.0976  0.0631
10294TIP3    H152373   0.131   0.341  16.976  0.4898 -0.8671 -0.1893
10294TIP3    H252374  -0.002   0.414  16.972  0.9372 -0.0887 -1.0878
10295TIP3   OH252375   1.913   6.527   2.592  0.2460  0.2764  0.2551
10295TIP3    H152376   1.916   6.472   2.670 -1.2253  0.1289  0.2402
10295TIP3    H252377   1.848   6.595   2.612 -0.4517  0.0056 -0.9624
10296TIP3   OH252378   0.645   5.825   5.810 -0.4859  0.3934 -0.6109
10296TIP3    H152379   0.642   5.885   5.884 -0.2612 -0.3979  0.0607
10296TIP3    H252380   0.568   5.769   5.822  1.1282 -1.6803  0.7514
10297TIP3   OH252381   2.864   3.267   4.455 -0.0527  0.0350 -0.0586
10297TIP3    H152382   2.919   3.234   4.384  0.6377 -1.5186  1.1370
10297TIP3    H252383   2.880   3.361   4.456  2.0472 -0.2743 -0.2191
10298TIP3   OH252384   1.170   2.601  12.236 -0.6845 -0.3739 -0.4833
10298TIP3    H152385   1.103   2.604  12.167 -0.8574 -0.2509 -0.3112
10298TIP3    H252386   1.149   2.675  12.293  0.0246  0.0995 -0.8178
10299TIP3   OH252387   0.684   1.103   0.027 -0.0599 -0.4402 -0.7515
10299TIP3    H152388   0.623   1.173   0.003  1.3301  0.5060 -1.6488
10299TIP3    H252389   0.768   1.148   0.040  0.5933 -1.7874 -0.1520
10300TIP3   OH252390   1.959   4.747   5.167 -0.0809  0.3057  0.0798
10300TIP3    H152391   2.053   4.732   5.166 -0.2777 -0.9766 -0.8698
10300TIP3    H252392   1.950   4.840   5.145  0.8972  0.0049 -1.7420
10301TIP3   OH252393   5.057   3.464  15.475 -0.1625 -0.2286  1.0455
10301TIP3    H152394   5.135   3.430  15.430  0.1848  1.5618  0.1855
10301TIP3    H252395   5.058   3.558  15.455 -2.3311 -0.1027  1.3692
10302TIP3   OH252396   4.927   3.019  15.147 -0.0792  0.6151  0.6652
10302TIP3    H152397   4.958   3.025  15.056 -0.6953  2.1575  0.5361
10302TIP3    H252398   5.001   3.050  15.199  1.1955 -2.4928  0.9587
10303TIP3   OH252399   0.506   4.621   0.143 -0.8836  0.3283  0.0617
10303TIP3    H152400   0.599   4.627   0.121 -0.6357  2.1522  1.3066
10303TIP3    H252401   0.461   4.625   0.059  0.1502 -1.1432 -0.5976
10304TIP3   OH252402   1.410   2.401   2.151 -0.3632 -0.4867  0.1952
10304TIP3    H152403   1.469   2.329   2.176  0.2314  0.2810  1.0905
10304TIP3    H252404   1.349   2.361   2.089 -0.6265 -1.9940  1.3498
10305TIP3   OH252405   1.533   2.261  11.255  0.2601  0.6097  0.0419
10305TIP3    H152406   1.541   2.274  11.160 -2.1362 -1.1851 -0.5189
10305TIP3    H252407   1.619   2.229  11.282  1.6458  3.1130 -1.0792
10306TIP3   OH252408   0.869   0.807   5.104  0.1770 -0.6422 -0.2431
10306TIP3    H152409   0.811   0.820   5.029 -0.8197 -0.1204  0.5888
10306TIP3    H252410   0.814   0.825   5.180  1.2341 -0.9067  0.6072
10307TIP3   OH252411   1.272   3.218   3.602  0.2098  0.3671 -0.2397
10307TIP3    H152412   1.285   3.221   3.507 -2.2876  0.8151 -0.6307
10307TIP3    H252413   1.324   3.144   3.631  0.9664  0.1785 -1.9670
10308TIP3   OH252414   6.094   4.815   3.638 -0.3604 -0.0508  0.1382
10308TIP3    H152415   6.097   4.849   3.549 -0.5213  0.7680  0.4406
10308TIP3    H252416   6.101   4.720   3.628 -2.4129 -0.1428 -0.8878
10309TIP3   OH252417   0.290   4.221   2.484  0.5317  0.6098 -0.2053
10309TIP3    H152418   0.277   4.312   2.458  2.3477  0.9879  0.0502
10309TIP3    H252419   0.256   4.216   2.573 -0.7685  0.6810 -0.6762
10310TIP3   OH252420   3.350   4.749  16.408  0.7346 -0.2461 -0.2912
10310TIP3    H152421   3.321   4.744  16.499 -0.8802  0.7903 -0.7058
10310TIP3    H252422   3.310   4.674  16.365  2.6643 -1.5768  0.0926
10311TIP3   OH252423   3.341   2.961   3.246 -0.1207  0.1117 -0.3173
10311TIP3    H152424   3.253   2.928   3.228  0.4882 -1.2777 -0.8320
10311TIP3    H252425   3.351   3.036   3.188 -0.5814 -0.3649 -1.0275
10312TIP3   OH252426   2.518   3.694  14.468 -0.0566  0.0590  0.4117
10312TIP3    H152427   2.453   3.657  14.527 -0.1064 -0.8107 -0.1724
10312TIP3    H252428   2.476   3.773  14.433 -0.8960 -0.6051 -0.1157
10313TIP3   OH252429   1.092   3.624  11.349 -0.4855 -0.4384 -0.2335
10313TIP3    H152430   1.149   3.577  11.288  2.0259  0.5497  1.1978
10313TIP3    H252431   1.081   3.710  11.310 -1.0799 -0.6606 -0.5561
10314TIP3   OH252432   1.477   3.158   4.718 -0.0751 -0.0910  0.3501
10314TIP3    H152433   1.430   3.167   4.635 -0.5709  1.7077  0.7870
10314TIP3    H252434   1.563   3.122   4.693  0.1537  1.3296 -1.0827
10315TIP3   OH252435   3.398   3.480   6.146 -0.5920 -0.1170 -0.0399
10315TIP3    H152436   3.446   3.425   6.084  0.5108  1.8436 -1.0001
10315TIP3    H252437   3.349   3.418   6.199  1.1116 -2.0732 -0.6265
10316TIP3   OH252438   6.126   4.870   3.366  0.3715 -0.0152  1.0086
10316TIP3    H152439   6.162   4.841   3.282 -1.3939 -0.0265  0.2215
10316TIP3    H252440   6.092   4.958   3.348  0.6842  0.3136  1.9415
10317TIP3   OH252441   4.236   0.307  15.049  0.4833 -0.3912 -0.1861
10317TIP3    H152442   4.150   0.264  15.045 -0.1310  0.7855 -0.0474
10317TIP3    H252443   4.254   0.316  15.143  0.1037  0.5970 -0.1957
10318TIP3   OH252444   0.345   6.333  16.397  0.3949  0.3888 -0.1614
10318TIP3    H152445   0.274   6.294  16.447  0.5091  0.8807  0.3896
10318TIP3    H252446   0.301   6.395  16.338  0.3611  0.7285  0.2121
10319TIP3   OH252447   6.119   1.066  17.187  0.0220  0.9536 -0.1470
10319TIP3    H152448   6.200   1.100  17.222  2.3176 -1.6474 -2.4273
10319TIP3    H252449   6.118   0.974  17.214 -1.5496  0.6225 -1.1891
10320TIP3   OH252450   1.617   2.927  13.963 -0.8263  0.7311  0.3160
10320TIP3    H152451   1.689   2.943  14.023 -1.8662  0.7218  1.6102
10320TIP3    H252452   1.572   3.011  13.957 -0.6306  0.7837 -0.6257
10321TIP3   OH252453   0.370   5.410  14.479 -0.4726  0.3152  0.0521
10321TIP3    H152454   0.342   5.499  14.459  0.5316  0.6275 -0.0099
10321TIP3    H252455   0.438   5.391  14.414 -0.6520 -0.4881  0.0847
10322TIP3   OH252456   0.874   4.492   5.962  0.5751 -0.5467 -0.3608
10322TIP3    H152457   0.966   4.499   5.989  0.2944  3.2978  0.2397
10322TIP3    H252458   0.826   4.482   6.045  0.3288 -0.0430 -0.4405
10323TIP3   OH252459   1.955   4.202  12.270 -0.7894 -0.5191 -0.2786
10323TIP3    H152460   1.983   4.285  12.233  1.0663 -0.7069  0.5929
10323TIP3    H252461   1.892   4.226  12.338  1.1416  0.3853  1.2871
10324TIP3   OH252462   2.443   3.696   1.549 -0.4926 -0.7410 -0.3354
10324TIP3    H152463   2.504   3.660   1.613 -1.4741 -1.3262  0.3098
10324TIP3    H252464   2.496   3.716   1.472  0.2358 -2.9375 -0.4678
10325TIP3   OH252465   1.899   4.131   2.951 -0.3321 -0.0937  0.1795
10325TIP3    H152466   1.908   4.225   2.969 -2.1666  0.1852 -0.1467
10325TIP3    H252467   1.907   4.124   2.856 -0.7651 -0.1851  0.1485
10326TIP3   OH252468   3.071   5.147   4.720  0.3414 -1.0076 -0.1127
10326TIP3    H152469   3.117   5.202   4.657 -0.3702 -0.2712  0.0006
10326TIP3    H252470   3.014   5.091   4.666 -2.8594  1.9342 -0.0939
10327TIP3   OH252471   0.582   1.459  15.249 -0.7849 -0.2667 -0.0740
10327TIP3    H152472   0.550   1.388  15.192 -2.7035  0.4048  0.0726
10327TIP3    H252473   0.672   1.435  15.270 -0.9451 -1.9555 -1.1304
10328TIP3   OH252474   3.916   5.458   3.441 -0.1060 -0.0209  0.0883
10328TIP3    H152475   3.978   5.474   3.370  0.4526  1.7074  0.9044
10328TIP3    H252476   3.840   5.419   3.398  0.6278 -0.0009 -1.2867
10329TIP3   OH252477   1.913   5.861   1.512  0.0802 -0.0938 -0.0402
10329TIP3    H152478   1.995   5.826   1.547  0.2848  0.2544 -0.1688
10329TIP3    H252479   1.927   5.955   1.507  0.1729 -0.1584 -1.3350
10330TIP3   OH252480   5.832   5.221  11.873  0.1628 -0.2052 -0.0562
10330TIP3    H152481   5.857   5.193  11.961 -2.1187 -3.4738 -0.2705
10330TIP3    H252482   5.882   5.165  11.814 -1.4504 -1.0591 -0.6668
10331TIP3   OH252483   5.621   1.847   2.615  0.3040  0.4895  0.2653
10331TIP3    H152484   5.651   1.918   2.558  1.0235 -0.0417 -0.0191
10331TIP3    H252485   5.662   1.865   2.700  0.6644  0.2903  0.1331
10332TIP3   OH252486   3.901   3.530  13.628 -0.4713 -0.6356  0.7338
10332TIP3    H152487   3.877   3.471  13.557 -2.9391  0.4805  0.5273
10332TIP3    H252488   3.976   3.489  13.670 -0.2499 -2.3675 -1.2266
10333TIP3   OH252489   5.666   0.227  16.038  0.3482 -0.3526  0.3963
10333TIP3    H152490   5.666   0.316  16.073  0.2549 -0.4972  0.7627
10333TIP3    H252491   5.758   0.200  16.042  0.6020  0.2110 -0.9636
10334TIP3   OH252492   3.103   2.134   3.425 -0.5359  0.0801  0.0954
10334TIP3    H152493   3.104   2.181   3.508 -1.7176 -4.2654  2.9397
10334TIP3    H252494   3.010   2.132   3.400 -0.4247 -0.1301 -0.3035
10335TIP3   OH252495   4.994   1.798  15.466 -0.5598 -0.5235  0.6717
10335TIP3    H152496   4.928   1.755  15.521 -0.1747 -3.4258 -0.9091
10335TIP3    H252497   5.054   1.727  15.441  1.8320  1.5515  0.1222
10336TIP3   OH252498   2.494   2.143   6.150 -0.2461  0.4665 -0.2843
10336TIP3    H152499   2.525   2.121   6.238 -1.5056 -2.1073 -0.3765
10336TIP3    H252500   2.436   2.218   6.164  1.3282  1.5538  0.7070
10337TIP3   OH252501   5.119   6.430  16.485 -0.2080  0.4045 -0.0612
10337TIP3    H152502   5.146   6.466  16.569  0.8928 -1.9142  0.6452
10337TIP3    H252503   5.032   6.393  16.501  0.7307 -1.6666  0.6545
10338TIP3   OH252504   4.233   2.137  14.167  0.5622  0.2306  0.4774
10338TIP3    H152505   4.147   2.179  14.170  0.1171 -0.7223  2.7969
10338TIP3    H252506   4.270   2.151  14.253  1.0051 -2.7623  0.8926
10339TIP3   OH252507   0.699   1.458  15.552 -0.4880  0.1357  0.0468
10339TIP3    H152508   0.682   1.364  15.538 -0.1319  0.1812 -0.8046
10339TIP3    H252509   0.730   1.489  15.466 -0.9778  1.1189  0.2120
10340TIP3   OH252510   2.230   2.490   2.817  0.2914 -0.2226  0.0580
10340TIP3    H152511   2.314   2.528   2.844  0.6514 -0.3885 -0.8085
10340TIP3    H252512   2.253   2.413   2.765 -0.3938 -0.1399 -0.3876
10341TIP3   OH252513   0.803   1.470  16.613 -0.5635  0.3153 -0.7194
10341TIP3    H152514   0.712   1.440  16.618 -0.6668  0.3499 -2.0282
10341TIP3    H252515   0.796   1.562  16.585 -0.1095 -0.2020 -2.6959
10342TIP3   OH252516   4.919   1.598  10.462  0.0666  0.3059  0.0561
10342TIP3    H152517   4.933   1.674  10.518  0.3460 -0.5222  1.1268
10342TIP3    H252518   4.895   1.636  10.377  1.1985  1.6100  0.2735
10343TIP3   OH252519   1.923   5.137  13.890 -0.4405 -0.1502 -0.2535
10343TIP3    H152520   2.003   5.125  13.839 -0.7770  2.0682 -1.4358
10343TIP3    H252521   1.953   5.150  13.980  0.4750 -0.1163 -0.5575
10344TIP3   OH252522   2.534   5.847   5.167  0.4375 -0.5127  0.3220
10344TIP3    H152523   2.499   5.817   5.252 -1.4265 -0.7833 -0.4901
10344TIP3    H252524   2.521   5.772   5.109  2.0152 -0.4396 -0.1468
10345TIP3   OH252525   6.075   2.572   1.079 -0.0306 -0.2916  0.7722
10345TIP3    H152526   6.145   2.569   1.144 -0.8481 -1.4493  1.6250
10345TIP3    H252527   6.008   2.629   1.118 -0.7792 -1.4544  1.2514
10346TIP3   OH252528   3.929   0.922   2.205  0.0569  0.4290 -0.3971
10346TIP3    H152529   3.840   0.913   2.170  0.7802 -2.0071 -1.8622
10346TIP3    H252530   3.958   0.832   2.221  2.6928  1.0452 -1.1570
10347TIP3   OH252531   2.657   2.317  14.529  0.2529  0.5428 -0.4402
10347TIP3    H152532   2.655   2.238  14.583 -1.0677  1.4432  0.9051
10347TIP3    H252533   2.611   2.291  14.449  1.1049 -0.4407 -0.6404
10348TIP3   OH252534   0.779   5.979  16.249 -0.0010  0.0107  0.1683
10348TIP3    H152535   0.774   6.067  16.212 -0.2135 -0.7502 -1.7459
10348TIP3    H252536   0.825   5.928  16.182 -0.6775 -1.5163  0.8178
10349TIP3   OH252537   4.282   3.418   0.737  0.3196  0.2476 -0.6851
10349TIP3    H152538   4.209   3.356   0.732  0.6117 -0.0708 -1.1212
10349TIP3    H252539   4.263   3.472   0.814 -1.0588  1.0486 -1.5549
10350TIP3   OH252540   1.848   0.382  14.701 -0.0953  0.0593 -0.3795
10350TIP3    H152541   1.931   0.344  14.730  0.0643  0.1492 -0.7137
10350TIP3    H252542   1.805   0.410  14.782  0.0025 -0.3874 -0.1704
10351TIP3   OH252543   5.505   3.018   5.533  0.1205 -0.0786  0.0480
10351TIP3    H152544   5.586   2.979   5.499  0.4247 -0.1808  0.8654
10351TIP3    H252545   5.514   3.111   5.513  0.4128 -0.0993  0.0759
10352TIP3   OH252546   1.674   3.728  16.155 -0.3250 -0.5670  0.0618
10352TIP3    H152547   1.703   3.751  16.243 -2.2118 -0.9116  0.8149
10352TIP3    H252548   1.748   3.678  16.119  0.6425 -0.0934  1.2838
10353TIP3   OH252549   4.699   1.431  15.986 -0.3557  0.5739  0.1868
10353TIP3    H152550   4.724   1.431  16.078  0.5703 -0.4294 -0.0452
10353TIP3    H252551   4.720   1.520  15.955  0.4662  0.5517  0.6536
10354TIP3   OH252552   2.631   1.487  11.456 -0.4760 -0.0555 -0.2930
10354TIP3    H152553   2.590   1.555  11.403  1.6432  0.4533 -1.3896
10354TIP3    H252554   2.723   1.489  11.431  0.2428 -1.1919  1.9786
10355TIP3   OH252555   3.098   4.620   0.220 -0.4880  0.1930  0.3778
10355TIP3    H152556   3.067   4.594   0.307  0.2696  0.0314  0.6038
10355TIP3    H252557   3.040   4.573   0.160  0.1418 -1.1817  0.7881
10356TIP3   OH252558   6.532   1.605   4.549  0.2709 -0.1938 -0.7500
10356TIP3    H152559   6.441   1.616   4.519 -0.0846 -1.3247 -0.1391
10356TIP3    H252560   6.524   1.558   4.632  1.5162 -2.6340 -1.9074
10357TIP3   OH252561   6.710   4.941   3.420  0.1786 -0.1166 -0.6615
10357TIP3    H152562   6.785   4.986   3.380  0.3750 -0.0231 -0.2002
10357TIP3    H252563   6.706   4.978   3.509  0.8851 -1.6270  0.0377
10358TIP3   OH252564   6.117   1.635  15.321 -0.1395  0.1098  0.1000
10358TIP3    H152565   6.122   1.560  15.381 -2.9295 -1.7698 -1.8122
10358TIP3    H252566   6.031   1.673  15.337  0.1873  1.2834 -0.8221
10359TIP3   OH252567   6.107   3.231  14.812  0.4586 -0.7535  0.1575
10359TIP3    H152568   6.083   3.260  14.724 -0.3579 -0.0372  0.6044
10359TIP3    H252569   6.114   3.312  14.863  1.2236 -1.1395  0.6834
10360TIP3   OH252570   2.191   6.711   0.824  0.1118 -0.2758 -0.1718
10360TIP3    H152571   2.141   6.629   0.833  1.3090 -1.0172 -0.1310
10360TIP3    H252572   2.223   6.729   0.913 -1.6252  1.2392  0.2102
10361TIP3   OH252573   4.247   0.300   4.632 -0.0515 -0.7285 -0.9032
10361TIP3    H152574   4.322   0.302   4.572 -0.0230 -2.3464 -0.9650
10361TIP3    H252575   4.177   0.259   4.582 -1.2286  1.3011 -1.0444
10362TIP3   OH252576   2.101   0.514  16.319  0.0205 -0.3227 -0.1096
10362TIP3    H152577   2.127   0.480  16.404 -0.7250  1.7791  1.0131
10362TIP3    H252578   2.007   0.498  16.315  0.0644 -0.4867 -0.6035
10363TIP3   OH252579   1.517   5.919   2.540  0.4035  0.5476 -0.1457
10363TIP3    H152580   1.590   5.897   2.598 -1.9068 -1.6499  2.1816
10363TIP3    H252581   1.471   5.837   2.526 -0.1864  1.3282 -3.8357
10364TIP3   OH252582   6.519   5.265  11.795  0.4564  0.4263  0.1969
10364TIP3    H152583   6.572   5.322  11.739  1.5608  0.6504  1.4059
10364TIP3    H252584   6.571   5.185  11.802 -0.0380  0.1127  0.2765
10365TIP3   OH252585   0.828   3.693   3.017  0.0472 -0.4665  0.1923
10365TIP3    H152586   0.804   3.772   2.969 -2.2917 -1.3637 -0.2328
10365TIP3    H252587   0.894   3.650   2.963  1.6017  1.2761  0.5826
10366TIP3   OH252588   6.689   2.840  11.186  0.4367  0.7359  0.1021
10366TIP3    H152589   6.665   2.876  11.101 -2.2486 -0.1217  0.3870
10366TIP3    H252590   6.605   2.832  11.232  1.6165 -0.4757  2.1656
10367TIP3   OH252591   6.608   6.817  11.344  0.1754  0.0343  0.3266
10367TIP3    H152592   6.685   6.801  11.289  0.5620 -0.7639  1.0842
10367TIP3    H252593   6.537   6.768  11.303  0.2110  0.2685 -0.0199
10368TIP3   OH252594   3.453   3.039   6.210  0.4525  0.0452 -0.4008
10368TIP3    H152595   3.522   2.978   6.235  0.2451 -0.6547 -1.4279
10368TIP3    H252596   3.434   3.017   6.118 -1.2574  0.0810 -0.0970
10369TIP3   OH252597   3.215   5.884  13.293  0.0353 -0.1057 -0.0908
10369TIP3    H152598   3.179   5.972  13.278 -1.5798 -0.1742  2.5805
10369TIP3    H252599   3.146   5.825  13.264  0.3687 -0.4365 -0.2136
10370TIP3   OH252600   6.345   6.701  14.712 -0.6319  0.1692  0.1908
10370TIP3    H152601   6.325   6.712  14.619  1.3969 -0.0593 -0.3111
10370TIP3    H252602   6.276   6.644  14.744 -0.7985 -0.6133 -1.4258
10371TIP3   OH252603   5.223   5.473  15.714  0.0627  0.0137 -0.4446
10371TIP3    H152604   5.313   5.493  15.692 -0.1593 -0.3771 -1.7747
10371TIP3    H252605   5.171   5.540  15.670 -0.2375  1.2445  1.6681
10372TIP3   OH252606   6.517   6.462   1.004 -0.3361 -0.0988 -0.7827
10372TIP3    H152607   6.527   6.379   0.957 -1.3730 -0.0304 -1.1450
10372TIP3    H252608   6.477   6.521   0.941  1.5817  1.0980 -0.9445
10373TIP3   OH252609   4.154   2.143   6.075  0.4086 -0.4740 -0.1607
10373TIP3    H152610   4.082   2.082   6.058  1.6703 -1.6959 -1.3164
10373TIP3    H252611   4.139   2.215   6.014 -0.3082 -0.2804  0.2281
10374TIP3   OH252612   3.114   6.794  13.039 -0.0039  0.0927  0.3509
10374TIP3    H152613   3.188   6.750  13.081 -1.0899  0.1644  2.5175
10374TIP3    H252614   3.146   6.882  13.020  1.0331 -0.4592 -0.5185
10375TIP3   OH252615   2.749   2.253  11.141  0.2146  0.0204  0.6010
10375TIP3    H152616   2.737   2.188  11.072 -0.3176 -0.0489  0.7564
10375TIP3    H252617   2.736   2.204  11.222 -2.3848  0.7465  0.6820
10376TIP3   OH252618   0.560   1.099   3.082  0.6610  0.1481 -0.5748
10376TIP3    H152619   0.596   1.146   3.158 -0.0455  0.5727 -0.4956
10376TIP3    H252620   0.630   1.040   3.055 -0.1896 -2.5438  2.4891
10377TIP3   OH252621   4.382   1.234  14.333  0.0335  0.2808  0.1950
10377TIP3    H152622   4.477   1.235  14.320  0.1415 -1.5779  0.6152
10377TIP3    H252623   4.347   1.208  14.248 -0.1458  1.3404 -0.0681
10378TIP3   OH252624   2.062   4.990  11.995  0.1764 -0.1989 -0.5172
10378TIP3    H152625   2.094   5.072  12.033 -0.5683  0.1630 -0.6507
10378TIP3    H252626   2.100   4.987  11.907  2.2732 -1.2576  0.3586
10379TIP3   OH252627   2.524   2.188  15.624  0.3648  0.2819  0.6131
10379TIP3    H152628   2.532   2.279  15.595  0.3887  0.5804  1.5230
10379TIP3    H252629   2.550   2.190  15.717 -1.9570 -0.2093  1.3460
10380TIP3   OH252630   3.373   0.891   2.999 -0.0195  0.8021  0.4586
10380TIP3    H152631   3.308   0.958   3.020 -0.2524 -0.0057  2.5122
10380TIP3    H252632   3.322   0.819   2.961  0.2585  1.7849 -1.9786
10381TIP3   OH252633   4.295   3.583  16.579 -0.3993 -0.4835 -0.0531
10381TIP3    H152634   4.238   3.601  16.653  0.6882 -0.5402  0.8258
10381TIP3    H252635   4.239   3.538  16.516 -1.8376  1.2650 -0.1099
10382TIP3   OH252636   1.160   4.110   5.139  0.2640 -0.0634  0.1806
10382TIP3    H152637   1.171   4.042   5.206  1.8524  0.0531  0.0753
10382TIP3    H252638   1.249   4.143   5.124  0.1850 -0.8939 -2.8118
10383TIP3   OH252639   2.072   5.943  16.293 -0.8159 -0.8440 -0.4802
10383TIP3    H152640   2.064   5.878  16.223 -2.3702  1.0242 -2.1406
10383TIP3    H252641   2.032   5.901  16.369 -0.9358 -2.1756 -1.2497
10384TIP3   OH252642   6.150   4.388   4.084  0.5356  0.7294 -0.4592
10384TIP3    H152643   6.059   4.418   4.078 -0.2562 -1.1057  1.1654
10384TIP3    H252644   6.156   4.316   4.021  0.2732 -0.3755  0.7374
10385TIP3   OH252645   3.390   5.322  17.255  0.2177 -0.1000 -0.1462
10385TIP3    H152646   3.396   5.412  17.223 -2.9208  0.1001 -0.4806
10385TIP3    H252647   3.407   5.329  17.349  1.1346  0.6247 -0.3423
10386TIP3   OH252648   6.825   3.117   4.687 -0.0244  0.3874  0.3589
10386TIP3    H152649   6.844   3.210   4.694  1.0351  0.1997  0.2490
10386TIP3    H252650   6.853   3.080   4.770  2.3349 -0.2315 -0.6179
10387TIP3   OH252651   1.800   6.307   4.561  0.0958  0.1305 -0.4138
10387TIP3    H152652   1.888   6.339   4.580 -0.3768  1.0689  0.2908
10387TIP3    H252653   1.757   6.302   4.646 -0.9215  0.8614 -0.8658
10388TIP3   OH252654   6.206   3.558  16.170 -0.7593 -0.9648 -0.1298
10388TIP3    H152655   6.152   3.617  16.117  1.1579 -0.9282 -2.1676
10388TIP3    H252656   6.223   3.607  16.250 -1.3359  0.1874 -0.6866
10389TIP3   OH252657   4.615   3.359  17.197 -0.0078 -0.0868  0.0953
10389TIP3    H152658   4.696   3.323  17.233 -1.9491 -2.5338  2.4739
10389TIP3    H252659   4.584   3.420  17.264 -0.3788  0.5102 -0.6024
10390TIP3   OH252660   0.276   1.511   1.245  0.5642 -0.3364  0.0756
10390TIP3    H152661   0.213   1.466   1.189 -0.9541  0.5373  1.0126
10390TIP3    H252662   0.258   1.478   1.333  1.9449 -0.6171  0.2816
10391TIP3   OH252663   2.160   0.027   2.105  0.3910 -0.0206 -0.1614
10391TIP3    H152664   2.101   0.069   2.043  0.0769  0.0659  0.1943
10391TIP3    H252665   2.134  -0.065   2.105  0.3465 -0.0075 -0.1029
10392TIP3   OH252666   1.114   5.818   3.082 -0.6555 -0.3860 -0.1466
10392TIP3    H152667   1.106   5.876   3.158  1.0181  0.0394 -0.2501
10392TIP3    H252668   1.060   5.742   3.104 -1.4737  0.4281  0.7636
10393TIP3   OH252669   4.080   2.594  14.867  0.3809 -0.1793  0.3025
10393TIP3    H152670   4.049   2.596  14.958 -0.3462 -0.4095  0.0702
10393TIP3    H252671   4.112   2.682  14.851 -1.7811  0.6307  0.0321
10394TIP3   OH252672   4.981   4.249   5.551  0.1798  0.4474 -0.6694
10394TIP3    H152673   5.023   4.250   5.465  1.7947 -0.9783  0.0474
10394TIP3    H252674   5.026   4.318   5.601  3.2470 -2.2571  0.6910
10395TIP3   OH252675   6.686   2.852  14.409  0.0875  0.1215 -0.0462
10395TIP3    H152676   6.649   2.940  14.420  1.0004  0.3214  1.9551
10395TIP3    H252677   6.612   2.793  14.428  0.1353  0.5103  1.5346
10396TIP3   OH252678   5.486   3.799  15.480  0.3459 -0.5178  0.5148
10396TIP3    H152679   5.430   3.868  15.515  0.3488  0.0052 -0.4774
10396TIP3    H252680   5.571   3.841  15.468  0.1861 -0.5152 -0.6810
10397TIP3   OH252681   3.052   4.177  13.890  0.1470 -0.0258  0.2125
10397TIP3    H152682   3.055   4.111  13.960 -1.9144 -0.2315  0.1903
10397TIP3    H252683   3.124   4.153  13.832  1.7727  0.0146  2.1080
10398TIP3   OH252684   0.410   5.435  12.508  0.9888  0.5451 -0.7031
10398TIP3    H152685   0.427   5.347  12.476  0.2304 -0.3518  1.1897
10398TIP3    H252686   0.336   5.425  12.568  3.5032  1.6455  2.9339
10399TIP3   OH252687   2.199   4.991  16.711 -0.2656 -0.5912  0.4540
10399TIP3    H152688   2.249   5.073  16.709 -1.7823  0.3563 -0.5847
10399TIP3    H252689   2.239   4.937  16.643  0.8376 -0.8109  1.2436
10400TIP3   OH252690   3.416   0.701   6.657 -0.0180  0.0852 -0.0257
10400TIP3    H152691   3.489   0.674   6.601  0.8157  0.9536  0.6151
10400TIP3    H252692   3.343   0.645   6.630  0.7024 -0.3516 -1.1288
10401TIP3   OH252693   6.389   6.420   5.642  0.2319  0.1487 -0.5023
10401TIP3    H152694   6.332   6.348   5.669 -1.1621  0.9128 -1.2860
10401TIP3    H252695   6.478   6.388   5.659 -0.3422 -1.7273 -0.7775
10402TIP3   OH252696   5.766   0.867  15.660  0.3624 -0.4649 -0.5473
10402TIP3    H152697   5.847   0.883  15.709 -1.0085  3.1207  0.8935
10402TIP3    H252698   5.791   0.878  15.569  1.2730  2.9832 -0.0389
10403TIP3   OH252699   1.123   4.136  13.776  0.2559 -0.5841  0.3450
10403TIP3    H152700   1.196   4.188  13.743 -1.4675  1.7689  0.0099
10403TIP3    H252701   1.135   4.050  13.737  3.1953 -0.4974  0.8668
10404TIP3   OH252702   0.584   2.689   2.663  0.0031  0.4328 -0.0357
10404TIP3    H152703   0.545   2.776   2.665  1.3318  1.0479  0.4011
10404TIP3    H252704   0.662   2.698   2.609  1.0173 -0.0748  1.2696
10405TIP3   OH252705   0.992   2.998  13.462 -0.8101 -0.0382 -0.0821
10405TIP3    H152706   1.062   3.028  13.402 -0.3628 -0.2399  0.3338
10405TIP3    H252707   0.979   2.906  13.439  1.2030 -0.8886  1.8453
10406TIP3   OH252708   6.101   2.088   5.988  0.4500 -0.4499  0.2311
10406TIP3    H152709   6.028   2.037   5.953  1.5253 -1.4010 -0.6893
10406TIP3    H252710   6.127   2.040   6.068  0.1415 -0.1663  0.5048
10407TIP3   OH252711   1.598   2.584  17.125 -0.1480 -0.4081  1.2763
10407TIP3    H152712   1.508   2.598  17.093  1.0326  0.9933 -1.8661
10407TIP3    H252713   1.613   2.490  17.113 -0.7467 -0.4156  0.4644
10408TIP3   OH252714   3.746   3.362   0.197  0.2407 -0.7634 -0.0084
10408TIP3    H152715   3.817   3.302   0.174  0.4713 -0.1765 -0.8594
10408TIP3    H252716   3.685   3.308   0.248  0.7665 -1.5499 -0.1931
10409TIP3   OH252717   6.151   1.695   5.968 -0.6931  0.1812  0.1839
10409TIP3    H152718   6.142   1.723   5.877 -0.9550 -2.9122 -0.8455
10409TIP3    H252719   6.102   1.613   5.973  0.7508 -0.6325  2.6823
10410TIP3   OH252720   3.654   2.003  12.399 -0.7677 -0.4169 -0.0127
10410TIP3    H152721   3.660   2.099  12.394  0.5499 -0.4151  1.0543
10410TIP3    H252722   3.726   1.971  12.346  0.6334 -0.7111  1.9354
10411TIP3   OH252723   6.118   3.112   1.858  0.3097  0.0581  0.0886
10411TIP3    H152724   6.061   3.058   1.913 -1.2091  0.3057 -1.1792
10411TIP3    H252725   6.092   3.091   1.768  0.5039  1.9974 -0.4631
10412TIP3   OH252726   3.289   5.092  14.193 -0.5272  0.0050 -0.5799
10412TIP3    H152727   3.259   5.181  14.177  0.8893  0.6952  0.3953
10412TIP3    H252728   3.215   5.037  14.167 -1.5622  1.4660 -0.8702
10413TIP3   OH252729   0.131   5.420  15.051  0.2677  0.3013  0.1228
10413TIP3    H152730   0.117   5.476  14.974 -0.6342  0.3502  0.3070
10413TIP3    H252731   0.172   5.478  15.115  1.0036  0.2667 -0.3078
10414TIP3   OH252732   1.371   5.856   3.694 -0.3428 -0.0218  0.6206
10414TIP3    H152733   1.343   5.842   3.603  1.4719 -0.7320  0.1122
10414TIP3    H252734   1.359   5.770   3.736 -0.2372  0.0341  0.7676
10415TIP3   OH252735   1.128   1.536   4.774 -0.0131  0.0353 -0.9721
10415TIP3    H152736   1.153   1.560   4.684 -1.7180  1.7643 -1.0523
10415TIP3    H252737   1.109   1.443   4.769  3.4133 -0.7561 -1.5313
10416TIP3   OH252738   6.804   5.231  11.993  0.3248 -0.1839 -0.4095
10416TIP3    H152739   6.771   5.184  11.916  0.0933 -0.9466  0.1525
10416TIP3    H252740   6.888   5.190  12.011  0.6464  0.3850 -0.5970
10417TIP3   OH252741   6.118   5.705   0.080  0.5554  0.2527 -0.4822
10417TIP3    H152742   6.135   5.794   0.047  0.1038 -0.0345 -1.5438
10417TIP3    H252743   6.032   5.711   0.121  1.7136  0.9503  2.0189
10418TIP3   OH252744   0.258   4.295  17.011  0.4394  0.2414  0.2452
10418TIP3    H152745   0.212   4.311  16.928  0.4543  3.0527  0.6743
10418TIP3    H252746   0.344   4.262  16.985  0.0161 -0.0591 -0.8074
10419TIP3   OH252747   1.319   0.707   3.221  0.3487 -0.0072  0.1305
10419TIP3    H152748   1.223   0.712   3.219  0.1992 -1.8370  1.0029
10419TIP3    H252749   1.347   0.798   3.234 -1.3413  0.3338  1.8735
10420TIP3   OH252750   6.170   1.156  16.089 -0.0745  0.6945 -0.2222
10420TIP3    H152751   6.189   1.171  15.996 -1.4885 -0.1744 -0.6984
10420TIP3    H252752   6.175   1.242  16.129  2.6340  0.8193 -0.6438
10421TIP3   OH252753   3.158   1.660  16.113  0.3275  0.1173 -0.4629
10421TIP3    H152754   3.227   1.595  16.098  2.4565  2.3774 -1.2642
10421TIP3    H252755   3.179   1.731  16.053 -1.7786  1.6253  0.4638
10422TIP3   OH252756   0.466   3.242  13.857  0.2435  0.2183 -0.2451
10422TIP3    H152757   0.405   3.176  13.891  0.2289 -0.2087 -1.0833
10422TIP3    H252758   0.417   3.286  13.787  0.2468  1.1379  0.3049
10423TIP3   OH252759   3.811   3.193   0.430  0.2856  0.9605  0.1214
10423TIP3    H152760   3.778   3.283   0.435 -1.3163  0.4874 -1.0884
10423TIP3    H252761   3.768   3.148   0.502 -1.0871  0.5517 -0.9216
10424TIP3   OH252762   1.379   1.435   6.168 -0.7303 -0.1185  0.2572
10424TIP3    H152763   1.338   1.350   6.183 -1.4311 -0.3393 -2.4072
10424TIP3    H252764   1.341   1.492   6.234 -1.4311 -1.5204  1.1096
10425TIP3   OH252765   1.660   5.021  12.438 -0.2028  0.4395 -0.3071
10425TIP3    H152766   1.598   4.951  12.460  0.9063 -0.4696  0.0644
10425TIP3    H252767   1.622   5.064  12.362 -0.9216 -0.5760 -0.5457
10426TIP3   OH252768   5.314   3.627   3.905 -0.7312  0.3511 -0.2495
10426TIP3    H152769   5.382   3.562   3.888 -0.8507 -0.4278  1.9883
10426TIP3    H252770   5.363   3.709   3.914 -0.1485 -0.0846  0.6653
10427TIP3   OH252771   5.153   0.670   0.741 -0.5316  0.2635 -0.0156
10427TIP3    H152772   5.207   0.705   0.671  1.6183 -0.2650  1.2985
10427TIP3    H252773   5.131   0.747   0.795  1.2524  0.1453  0.9389
10428TIP3   OH252774   1.624   0.681  12.740  0.1162 -0.2057  0.3609
10428TIP3    H152775   1.578   0.637  12.811 -0.7580 -1.2124 -0.7713
10428TIP3    H252776   1.582   0.766  12.733 -0.8307 -0.6813  0.0881
10429TIP3   OH252777   1.502   5.708  12.419  0.0510  0.0293  0.4566
10429TIP3    H152778   1.539   5.719  12.506 -0.6443  1.4148  0.6062
10429TIP3    H252779   1.486   5.614  12.411 -0.1028 -0.0862  1.9076
10430TIP3   OH252780   4.397   5.292  11.668  0.0140 -0.3691  0.0407
10430TIP3    H152781   4.304   5.273  11.657 -0.3996  0.1844  2.1727
10430TIP3    H252782   4.402   5.341  11.750  2.2061 -0.5443  0.0688
10431TIP3   OH252783   1.950   6.166  16.407  0.0323  0.0092 -0.3426
10431TIP3    H152784   1.895   6.144  16.332 -1.0834 -1.1450  0.7586
10431TIP3    H252785   2.038   6.137  16.382 -0.4599 -1.0244 -0.9321
10432TIP3   OH252786   0.077   6.793  16.203 -0.1153  0.6459 -0.0980
10432TIP3    H152787  -0.001   6.761  16.158  0.5357  0.3316 -1.0373
10432TIP3    H252788   0.043   6.850  16.272 -1.3151 -1.9546  1.6084
10433TIP3   OH252789   2.751   2.227   5.382 -0.2513 -0.2533 -0.4232
10433TIP3    H152790   2.821   2.290   5.399 -0.9647  1.6126 -3.5795
10433TIP3    H252791   2.758   2.208   5.289 -3.5588 -0.4324 -0.7457
10434TIP3   OH252792   2.883   6.421   5.694 -0.2318 -0.1931  0.2475
10434TIP3    H152793   2.864   6.420   5.600 -0.6370 -0.4933  0.3265
10434TIP3    H252794   2.934   6.342   5.709 -0.7281 -0.4962  0.3830
10435TIP3   OH252795   6.406   6.516   5.393  0.0155 -0.1984  0.3106
10435TIP3    H152796   6.495   6.517   5.428  0.2732 -2.7151 -0.0974
10435TIP3    H252797   6.352   6.492   5.468 -0.0431 -0.7314  0.1014
10436TIP3   OH252798   1.139   1.167   5.953 -0.4007 -0.7266  0.2450
10436TIP3    H152799   1.224   1.175   5.995  0.1140 -1.7037 -0.5823
10436TIP3    H252800   1.083   1.125   6.018  0.3850 -2.2176  0.0042
10437TIP3   OH252801   5.934   6.635  13.975 -0.3086 -0.1253  0.1197
10437TIP3    H152802   5.990   6.684  13.914 -1.3852  0.7037 -0.2490
10437TIP3    H252803   5.928   6.547  13.937  0.9176 -0.3049  0.2989
10438TIP3   OH252804   0.221   0.982  14.134  0.0304 -0.2160  0.0761
10438TIP3    H152805   0.314   0.973  14.111 -0.3692  0.1774 -1.9137
10438TIP3    H252806   0.219   1.043  14.207  1.2773  0.8728 -0.7555
10439TIP3   OH252807   0.992   6.068   3.643 -0.0607 -0.1675 -0.4937
10439TIP3    H152808   0.954   6.156   3.649  0.4241 -0.0130  0.5645
10439TIP3    H252809   1.082   6.078   3.672 -0.5022 -1.3157  1.4986
10440TIP3   OH252810   2.918   4.927  12.231 -0.4273 -0.4539 -0.0036
10440TIP3    H152811   2.929   4.994  12.299  1.1148 -0.0821 -0.5689
10440TIP3    H252812   2.975   4.957  12.160  0.9784 -2.7596  0.0586
10441TIP3   OH252813   6.709   4.563  14.680  0.2174  0.5572 -0.0051
10441TIP3    H152814   6.635   4.586  14.624 -0.7721 -2.1882  0.0441
10441TIP3    H252815   6.760   4.500  14.629  0.0063 -1.0227  1.6347
10442TIP3   OH252816   0.980   0.951   0.349 -0.1279 -0.3447  0.0708
10442TIP3    H152817   0.931   0.895   0.288 -0.5402 -0.2170  0.2877
10442TIP3    H252818   1.055   0.982   0.297  0.2714 -1.3338  0.0328
10443TIP3   OH252819   1.791   1.797   3.290  0.3620 -0.4967  0.4241
10443TIP3    H152820   1.782   1.722   3.231 -0.9699  0.9081 -1.2635
10443TIP3    H252821   1.879   1.830   3.273 -0.1679  0.1849 -1.2496
10444TIP3   OH252822   0.781   1.513   6.094 -0.2106 -0.2868  0.0227
10444TIP3    H152823   0.847   1.514   6.163 -1.7026  1.4180  1.5210
10444TIP3    H252824   0.721   1.443   6.119  0.3381 -1.0450 -0.7058
10445TIP3   OH252825   2.793   0.946   2.957  0.2059 -0.1763 -0.2029
10445TIP3    H152826   2.727   0.879   2.976  1.6335 -1.7233 -0.4463
10445TIP3    H252827   2.800   0.996   3.038 -3.9206  2.5956 -1.2353
10446TIP3   OH252828   0.566   1.790  11.458 -0.0294  0.2276  0.6619
10446TIP3    H152829   0.580   1.882  11.478  0.6160 -0.0960  1.7758
10446TIP3    H252830   0.635   1.769  11.395  0.4558  0.2560  1.1803
10447TIP3   OH252831   2.941   6.085  16.800  0.2569  0.0018  0.0251
10447TIP3    H152832   2.956   6.006  16.747  1.9047  0.7269 -0.6806
10447TIP3    H252833   2.905   6.149  16.738 -1.8535 -0.3985  0.7747
10448TIP3   OH252834   6.563   1.323  15.145 -0.1270 -0.0578 -0.1911
10448TIP3    H152835   6.584   1.379  15.220  0.6234 -1.2139  0.4895
10448TIP3    H252836   6.559   1.383  15.070 -0.3962  1.0411  0.6788
10449TIP3   OH252837   0.176   6.527  11.224 -0.6604 -0.0674 -0.6436
10449TIP3    H152838   0.112   6.589  11.257  0.1291  0.8684 -0.8344
10449TIP3    H252839   0.184   6.547  11.131  0.2954  0.1840 -0.5159
10450TIP3   OH252840   3.897   1.776   3.626 -0.2200  0.2882 -0.9263
10450TIP3    H152841   3.821   1.744   3.675  0.9902 -3.4667 -1.1830
10450TIP3    H252842   3.861   1.806   3.543 -1.4473 -2.6621 -1.5808
10451TIP3   OH252843   5.082   1.843   3.525 -0.0131  0.5054  0.4275
10451TIP3    H152844   5.138   1.779   3.570 -0.8336  0.2182  1.0591
10451TIP3    H252845   5.080   1.919   3.584 -1.9313 -0.2599  1.4522
10452TIP3   OH252846   6.228   6.046   4.069 -0.0322  0.4535 -0.1920
10452TIP3    H152847   6.252   6.022   3.979 -2.0026 -1.5105 -0.2732
10452TIP3    H252848   6.159   5.984   4.093 -0.0423  1.3631  2.4580
10453TIP3   OH252849   4.938   0.320   3.309 -0.3490  0.1405 -0.5298
10453TIP3    H152850   4.879   0.246   3.294  0.2645 -0.4575 -0.1067
10453TIP3    H252851   4.963   0.349   3.222 -0.1439 -0.5392 -0.7060
10454TIP3   OH252852   6.151   5.980   0.055  0.3531 -0.3516  0.3391
10454TIP3    H152853   6.227   6.025   0.092 -0.8248  1.4463  0.6986
10454TIP3    H252854   6.133   6.027  -0.026 -1.3793  0.4028  1.1124
10455TIP3   OH252855   0.288   3.361   6.606  0.0508 -0.7181  0.3575
10455TIP3    H152856   0.258   3.437   6.555 -1.6152 -0.7803  1.1978
10455TIP3    H252857   0.362   3.327   6.555 -1.0661 -0.3310 -1.6316
10456TIP3   OH252858   0.028   6.016  17.099 -0.3469  0.0379 -0.0290
10456TIP3    H152859   0.005   6.059  17.016 -1.0270 -1.1351 -0.4724
10456TIP3    H252860   0.029   5.923  17.078  3.6660 -0.1501  0.2546
10457TIP3   OH252861   6.545   5.975   3.817 -0.1413 -0.6173 -0.1117
10457TIP3    H152862   6.597   6.053   3.835 -0.1068 -0.8831  1.0092
10457TIP3    H252863   6.459   6.009   3.793 -0.3633 -0.2278  1.1469
10458TIP3   OH252864   1.693   5.422   6.211 -0.2300 -0.1119  0.3531
10458TIP3    H152865   1.642   5.414   6.130 -1.2592 -1.7879  1.0876
10458TIP3    H252866   1.633   5.463   6.273 -0.3384 -1.1085  0.9286
10459TIP3   OH252867   2.344   0.339  17.086 -0.0267  0.3700 -0.2251
10459TIP3    H152868   2.257   0.369  17.111 -0.1525  0.5992 -0.9306
10459TIP3    H252869   2.332   0.247  17.064 -0.5613  0.9233 -2.4943
10460TIP3   OH252870   3.225   6.501   4.079 -0.2270 -0.4182  0.1667
10460TIP3    H152871   3.206   6.490   3.986 -0.2355 -1.6321  0.2900
10460TIP3    H252872   3.193   6.588   4.100 -0.0201 -0.0375 -1.0156
10461TIP3   OH252873   3.313   0.813  14.760  0.0004 -0.3689  0.3506
10461TIP3    H152874   3.237   0.842  14.809  0.1966  0.5101  0.1443
10461TIP3    H252875   3.386   0.862  14.797  0.7234 -2.1671  1.4701
10462TIP3   OH252876   5.604   4.276  13.900 -0.4868  0.7095  0.1161
10462TIP3    H152877   5.541   4.343  13.873 -2.9742 -1.1377  0.9497
10462TIP3    H252878   5.591   4.268  13.994  1.9284  1.0675  0.5543
10463TIP3   OH252879   6.535   3.782  13.421  0.5642 -0.0626  0.1003
10463TIP3    H152880   6.570   3.852  13.366  0.6469 -0.1903 -0.0108
10463TIP3    H252881   6.460   3.748  13.373 -0.6605  1.2355  1.0549
10464TIP3   OH252882   1.452   6.224   1.004 -0.0631  0.2592 -0.3403
10464TIP3    H152883   1.541   6.194   1.021 -0.0152  0.6060  0.0489
10464TIP3    H252884   1.399   6.184   1.072  0.2916  2.4711  1.3578
10465TIP3   OH252885   2.957   2.850   4.621  0.2417 -0.2350 -0.1925
10465TIP3    H152886   2.992   2.930   4.660  0.2516 -0.9047  1.2647
10465TIP3    H252887   3.010   2.836   4.543 -0.3153  1.6098 -0.9506
10466TIP3   OH252888   3.672   4.011   2.174  0.0730 -0.2424  0.1342
10466TIP3    H152889   3.718   3.955   2.237  1.7120  0.5403 -0.2974
10466TIP3    H252890   3.693   4.100   2.202 -2.1705  0.1980  0.5702
10467TIP3   OH252891   3.366   4.541   2.207  0.2186  0.0397 -0.1545
10467TIP3    H152892   3.338   4.453   2.182  0.9263  0.2661 -1.8786
10467TIP3    H252893   3.285   4.593   2.204 -0.1199 -0.4486  0.4109
10468TIP3   OH252894   5.348   5.820  12.593  0.3540  0.1490 -0.7989
10468TIP3    H152895   5.439   5.823  12.622 -0.0089 -0.0738  0.4499
10468TIP3    H252896   5.321   5.729  12.606  0.1476  0.0554 -1.8121
10469TIP3   OH252897   0.232   3.607  14.795 -0.2565  0.0239  0.0959
10469TIP3    H152898   0.274   3.681  14.838 -0.9924  0.4355  0.1161
10469TIP3    H252899   0.199   3.553  14.866  2.1346 -1.4887  0.1848
10470TIP3   OH252900   3.908   4.808   1.411  0.1339 -0.3492 -0.0287
10470TIP3    H152901   3.998   4.836   1.422 -0.0391  0.9021 -1.5330
10470TIP3    H252902   3.892   4.811   1.317 -1.4564 -0.6185  0.1937
10471TIP3   OH252903   1.245   0.596  11.368 -0.0193 -0.0263 -0.2566
10471TIP3    H152904   1.304   0.671  11.381  0.9212 -0.9104  0.8384
10471TIP3    H252905   1.202   0.614  11.285  0.4799  1.5324 -0.2189
10472TIP3   OH252906   1.535   2.063  14.883 -0.5823 -0.6094  0.5882
10472TIP3    H152907   1.531   2.125  14.956 -0.0973  1.2038 -0.8212
10472TIP3    H252908   1.449   2.023  14.879 -1.1809  0.5843  1.0943
10473TIP3   OH252909   6.597   2.234   4.791  0.1414  0.4420 -0.8345
10473TIP3    H152910   6.598   2.158   4.734 -1.7363 -0.1189 -0.2017
10473TIP3    H252911   6.581   2.308   4.733  2.4881  0.5012 -1.5252
10474TIP3   OH252912   3.286   0.330   2.392 -0.1480 -0.6547  0.0648
10474TIP3    H152913   3.277   0.425   2.387  0.1583 -0.5321  1.3985
10474TIP3    H252914   3.211   0.296   2.343 -1.5791  0.3012  1.4508
10475TIP3   OH252915   2.441   5.166   1.814 -0.3017 -0.5676  0.3246
10475TIP3    H152916   2.378   5.096   1.830 -0.6060 -0.6888 -1.2693
10475TIP3    H252917   2.407   5.212   1.737  0.1824  0.9986  1.0111
10476TIP3   OH252918   0.800   2.691   2.257 -0.5847 -0.4974 -0.0567
10476TIP3    H152919   0.753   2.773   2.246 -3.4759 -1.8884  0.9451
10476TIP3    H252920   0.790   2.670   2.350  1.5457 -1.1999  0.0596
10477TIP3   OH252921   6.529   0.730   5.048  0.0992 -0.1497 -0.0055
10477TIP3    H152922   6.578   0.771   4.978 -0.5125  0.7951  0.0914
10477TIP3    H252923   6.588   0.731   5.123  0.4698 -0.4400 -0.2901
10478TIP3   OH252924   4.231   1.281   3.743 -0.3130  0.3126  0.1172
10478TIP3    H152925   4.189   1.365   3.760 -0.3547  0.5125 -0.9079
10478TIP3    H252926   4.273   1.258   3.826 -2.7713 -0.1111  1.3210
10479TIP3   OH252927   2.264   2.897   1.889  0.2016 -0.3952  0.1398
10479TIP3    H152928   2.276   2.810   1.928 -0.6825 -1.2860 -1.4873
10479TIP3    H252929   2.345   2.913   1.841  0.4692 -0.1973  0.6515
10480TIP3   OH252930   0.378   0.501  12.308 -0.2845  0.7145  0.8509
10480TIP3    H152931   0.400   0.518  12.400  0.7095 -1.4981  1.0910
10480TIP3    H252932   0.286   0.525  12.300 -1.7003 -2.8358  3.6256
10481TIP3   OH252933   4.959   2.693  13.677  0.4908 -0.5962 -0.0876
10481TIP3    H152934   4.867   2.712  13.697  0.6881  1.2549 -0.7170
10481TIP3    H252935   5.006   2.717  13.757  0.6545  0.9095 -0.6057
10482TIP3   OH252936   3.684   2.514   4.455  0.2158  0.4568  0.2050
10482TIP3    H152937   3.734   2.440   4.422  0.5351  1.3189 -1.3533
10482TIP3    H252938   3.611   2.475   4.504 -0.0083 -0.8959 -1.1625
10483TIP3   OH252939   2.063   5.878  14.664  0.0151 -0.1235  0.5531
10483TIP3    H152940   2.096   5.877  14.754 -0.2505 -0.7782  0.6495
10483TIP3    H252941   1.992   5.813  14.664 -1.7873  1.7379  0.5542
10484TIP3   OH252942   4.655   5.523   3.916 -0.2478  0.0299  0.3088
10484TIP3    H152943   4.681   5.559   4.000  0.7095 -0.1496  0.1040
10484TIP3    H252944   4.702   5.575   3.851 -2.2786  1.3015 -0.2508
10485TIP3   OH252945   6.698   6.705   6.761 -0.4077 -0.7690  0.0257
10485TIP3    H152946   6.710   6.796   6.734 -1.5403  0.0307  2.0128
10485TIP3    H252947   6.786   6.672   6.776 -0.0136  0.1683 -0.1456
10486TIP3   OH252948   6.379   2.975  11.501 -0.3937 -0.1422  0.0248
10486TIP3    H152949   6.448   3.001  11.441 -2.2031  2.2282 -1.2268
10486TIP3    H252950   6.385   3.039  11.573 -1.5848  0.4952 -0.4070
10487TIP3   OH252951   4.160   2.440   2.619 -0.2219 -0.0707  0.8602
10487TIP3    H152952   4.182   2.532   2.638 -0.0533 -0.1831  1.2214
10487TIP3    H252953   4.222   2.389   2.671 -0.8353 -0.3879  1.2952
10488TIP3   OH252954   3.226   5.338   5.815 -0.4629 -0.4872 -0.8685
10488TIP3    H152955   3.314   5.346   5.779  0.6579  0.3733  1.8242
10488TIP3    H252956   3.208   5.244   5.815  0.3004 -0.6450 -1.7363
10489TIP3   OH252957   2.924   3.607   7.243  0.3081 -0.0575 -0.3212
10489TIP3    H152958   3.005   3.582   7.287  0.4460 -0.6442 -0.8995
10489TIP3    H252959   2.856   3.553   7.285  0.3152 -0.0194 -0.2616
10490TIP3   OH252960   2.681   2.389   0.594  0.3588  0.2050 -0.3538
10490TIP3    H152961   2.586   2.379   0.597  0.3030  0.9189  0.9353
10490TIP3    H252962   2.710   2.323   0.532 -0.8220 -1.2323  0.5695
10491TIP3   OH252963   2.764   2.415   1.610 -0.0984 -0.1982  0.0689
10491TIP3    H152964   2.743   2.324   1.586  1.8557 -0.9053  0.8389
10491TIP3    H252965   2.790   2.411   1.702  1.4171  0.8698 -0.2676
10492TIP3   OH252966   5.544   3.911   2.991 -0.0632  0.8379 -0.7154
10492TIP3    H152967   5.449   3.906   3.001  0.0892  1.3936  1.5174
10492TIP3    H252968   5.558   3.982   2.928 -1.1329  2.9100  1.2100
10493TIP3   OH252969   0.928   1.624  14.389  0.4377 -0.4688 -0.3531
10493TIP3    H152970   0.931   1.639  14.294  1.8337 -1.1525 -0.4321
10493TIP3    H252971   0.969   1.702  14.427 -2.1434  0.8978 -0.1275
10494TIP3   OH252972   3.065   6.538  11.954  0.1767 -0.1747  0.0118
10494TIP3    H152973   3.099   6.463  11.904  0.8009 -0.1312  0.3574
10494TIP3    H252974   3.008   6.499  12.020 -0.4309 -0.2532 -0.5481
10495TIP3   OH252975   3.991   5.841   6.492  0.1353 -0.1240  0.3013
10495TIP3    H152976   3.993   5.931   6.461  1.6763 -0.9163 -2.2833
10495TIP3    H252977   3.905   5.808   6.464 -0.4843  0.5432  1.3724
10496TIP3   OH252978   6.699   6.138  15.954  1.2267  0.3063 -0.7846
10496TIP3    H152979   6.712   6.101  16.041  1.6696  1.0969 -0.5045
10496TIP3    H252980   6.694   6.233  15.968  1.0278  0.4237 -1.5836
10497TIP3   OH252981   4.191   6.021  14.751 -0.0350 -0.1045 -0.0991
10497TIP3    H152982   4.109   5.983  14.783  0.1213  0.7504  1.3982
10497TIP3    H252983   4.237   5.947  14.711 -1.5535 -0.5868 -1.0746
10498TIP3   OH252984   0.379   6.113  17.094  0.2090  0.1289  0.0335
10498TIP3    H152985   0.382   6.102  17.189  1.7070 -1.7882 -0.1557
10498TIP3    H252986   0.453   6.170  17.074  0.2725  0.0330 -0.0096
10499TIP3   OH252987   1.883   4.897  15.610  0.5819 -0.0183  0.9306
10499TIP3    H152988   1.926   4.976  15.576  0.1796 -0.5942 -1.0532
10499TIP3    H252989   1.954   4.834  15.622  0.4709 -0.8118 -1.8868
10500TIP3   OH252990   6.593   6.441  17.153  0.2315  0.2859  0.2288
10500TIP3    H152991   6.510   6.413  17.114  0.6056 -0.3596 -0.1178
10500TIP3    H252992   6.628   6.362  17.195  0.3498  0.7170  0.9621
10501TIP3   OH252993   1.723   5.489  12.994  0.4290  0.1060 -0.3483
10501TIP3    H152994   1.703   5.436  12.916  2.8987 -0.7087 -0.4997
10501TIP3    H252995   1.685   5.439  13.066 -0.3501 -0.0376 -0.8438
10502TIP3   OH252996   3.109   1.016   3.074  0.1269  0.3130 -0.5441
10502TIP3    H152997   3.022   0.978   3.074 -1.0362  2.7765 -0.5214
10502TIP3    H252998   3.125   1.042   3.164  0.2396  1.1969 -0.8072
10503TIP3   OH252999   6.238   4.906  11.407 -0.8579  0.3316  0.2490
10503TIP3    H153000   6.282   4.930  11.325 -0.8145 -0.3740  0.0573
10503TIP3    H253001   6.238   4.986  11.459  1.3416  0.1888  0.5654
10504TIP3   OH253002   1.116   0.342   5.833  0.3190 -0.4184  0.1881
10504TIP3    H153003   1.124   0.418   5.775 -0.1316 -0.0952  0.5399
10504TIP3    H253004   1.132   0.267   5.776  1.5766 -0.0288 -0.0033
10505TIP3   OH253005   2.583   4.363   6.524 -0.0268  0.3708 -0.4304
10505TIP3    H153006   2.618   4.317   6.599 -2.2011  0.7352  0.8973
10505TIP3    H253007   2.657   4.413   6.489  1.1353 -0.1519  1.1852
10506TIP3   OH253008   4.521   3.873  16.822  0.2057  0.1020 -0.1775
10506TIP3    H153009   4.565   3.815  16.884  0.2507 -0.4606 -0.7204
10506TIP3    H253010   4.547   3.840  16.736  0.0799  0.8173 -0.4982
10507TIP3   OH253011   2.605   1.280   2.962  0.1261 -0.5100  0.1218
10507TIP3    H153012   2.572   1.203   2.916 -1.4864  0.3493 -0.2419
10507TIP3    H253013   2.591   1.352   2.901  3.6550 -0.1506 -0.4619
10508TIP3   OH253014   2.017   4.014   3.192 -0.6074 -0.5609  0.1101
10508TIP3    H153015   1.961   3.943   3.225 -1.0929 -0.1385  0.2130
10508TIP3    H253016   1.967   4.052   3.120 -0.0385 -0.7631 -0.4029
10509TIP3   OH253017   6.468   0.896  17.150  0.5653 -0.8487  0.5040
10509TIP3    H153018   6.424   0.889  17.066 -0.9486  0.5685  1.1393
10509TIP3    H253019   6.455   0.810  17.191 -0.3404 -0.9131  0.0885
10510TIP3   OH253020   2.487   0.809  13.154 -0.4304 -0.1714 -0.0933
10510TIP3    H153021   2.554   0.741  13.153 -0.2074  0.0423  0.2415
10510TIP3    H253022   2.535   0.890  13.168 -0.6128  0.1556 -1.2885
10511TIP3   OH253023   3.408   3.090  12.105 -0.4312  0.6330  0.4496
10511TIP3    H153024   3.336   3.096  12.042 -0.4990 -0.6105  0.3934
10511TIP3    H253025   3.479   3.141  12.066 -0.5969  0.1793 -0.4559
10512TIP3   OH253026   1.884   2.704  13.843 -0.5209 -1.0538 -0.2323
10512TIP3    H153027   1.931   2.782  13.815  0.6237 -1.9444 -0.8880
10512TIP3    H253028   1.841   2.730  13.925  1.5350 -0.3066  0.6949
10513TIP3   OH253029   4.393   5.860  12.089 -0.4303 -0.1439  0.3806
10513TIP3    H153030   4.432   5.855  12.002  0.9599  0.7146  0.9204
10513TIP3    H253031   4.457   5.909  12.141 -2.0564  0.9701  1.4252
10514TIP3   OH253032   4.972   3.873  10.854  0.1069  0.2266 -0.4729
10514TIP3    H153033   4.995   3.957  10.814 -0.2066  1.6224  2.0840
10514TIP3    H253034   4.877   3.877  10.864 -0.2915 -1.6558 -2.7673
10515TIP3   OH253035   5.438   5.996  16.720 -0.2579  0.0256 -0.6171
10515TIP3    H153036   5.419   5.958  16.634 -0.3190 -0.3083 -0.4612
10515TIP3    H253037   5.352   6.006  16.761 -0.3057  1.0407 -0.9386
10516TIP3   OH253038   5.186   6.037   4.476 -0.3669 -0.6072 -0.4552
10516TIP3    H153039   5.263   6.090   4.499 -0.1272 -1.7005  1.4537
10516TIP3    H253040   5.115   6.101   4.469  0.1697  0.1243  0.5122
10517TIP3   OH253041   2.366   0.105   5.587 -0.0406  0.0482  0.0358
10517TIP3    H153042   2.353   0.135   5.676  0.4492  1.1401 -0.2396
10517TIP3    H253043   2.344   0.012   5.589  1.1985 -0.2467  1.5753
10518TIP3   OH253044   3.292   0.532   1.499 -0.2360 -0.2293 -0.1851
10518TIP3    H153045   3.294   0.484   1.416 -0.6577 -0.0529 -0.3001
10518TIP3    H253046   3.264   0.467   1.564 -0.6396 -0.1829 -0.3113
10519TIP3   OH253047   5.119   6.275  12.400  0.0076  0.3808 -0.7958
10519TIP3    H153048   5.159   6.295  12.485  1.2997  0.8436 -1.4962
10519TIP3    H253049   5.028   6.253  12.422  0.2277  0.7934  0.6737
10520TIP3   OH253050   0.043   6.412   1.538  0.7043 -0.4961 -0.3659
10520TIP3    H153051   0.007   6.465   1.466  3.1431 -0.9114 -1.9904
10520TIP3    H253052   0.008   6.324   1.522  3.2746 -1.2269 -2.7696
10521TIP3   OH253053   3.547   0.609   1.191 -0.5018  0.3397  0.2034
10521TIP3    H153054   3.632   0.605   1.235 -1.0455  1.3375  1.4230
10521TIP3    H253055   3.496   0.538   1.230  0.2756 -1.4208 -1.7939
10522TIP3   OH253056   0.145   5.882   4.203  0.1457 -0.2378  0.0266
10522TIP3    H153057   0.074   5.860   4.263 -0.8690  1.8921 -0.3014
10522TIP3    H253058   0.123   5.837   4.122  0.0594 -0.9051  0.4136
10523TIP3   OH253059   3.455   0.979   3.890  0.0456 -0.5189  0.1237
10523TIP3    H153060   3.485   1.068   3.871 -1.2884  0.0127  0.4007
10523TIP3    H253061   3.437   0.942   3.803 -0.2799 -0.1962  0.0518
10524TIP3   OH253062   5.886   3.136  13.015 -0.5739  0.2287  0.1842
10524TIP3    H153063   5.905   3.184  12.934  0.8235 -0.2585  0.1934
10524TIP3    H253064   5.927   3.189  13.084 -0.6252 -0.0207  0.4056
10525TIP3   OH253065   2.543   3.016  13.429 -0.2685  0.5470  0.3071
10525TIP3    H153066   2.558   3.008  13.524  0.7906 -0.7750  0.0592
10525TIP3    H253067   2.451   2.990  13.418 -0.4868  0.9937  1.0026
10526TIP3   OH253068   0.328   4.180  12.842 -0.3168  0.6338  0.1897
10526TIP3    H153069   0.284   4.103  12.806 -2.0994  0.6674  2.1573
10526TIP3    H253070   0.346   4.157  12.933  1.3922  1.6464  0.1486
10527TIP3   OH253071   4.068   3.419   3.906 -0.6835 -0.0101 -0.2678
10527TIP3    H153072   4.163   3.414   3.905 -0.7109 -0.6542  0.0941
10527TIP3    H253073   4.040   3.343   3.957 -1.3867  0.2440 -0.2613
10528TIP3   OH253074   1.082   5.770   0.680 -0.1228  0.0029  0.3777
10528TIP3    H153075   0.996   5.796   0.713 -0.4074 -0.5940  0.1273
10528TIP3    H253076   1.115   5.847   0.633 -0.0460  0.5983  1.3859
10529TIP3   OH253077   0.325   0.559   5.178  0.2363  0.2716 -0.0098
10529TIP3    H153078   0.404   0.599   5.216  0.6590  1.1228 -1.6876
10529TIP3    H253079   0.308   0.482   5.233  1.6314  0.6454  0.9996
10530TIP3   OH253080   0.830   3.747   0.056 -0.2709 -0.2636  0.2991
10530TIP3    H153081   0.771   3.673   0.041  0.4910 -1.0552  1.0867
10530TIP3    H253082   0.904   3.709   0.104  0.2004  0.9832  0.5881
10531TIP3   OH253083   6.711   2.021  12.753  0.1859 -0.0879 -0.1153
10531TIP3    H153084   6.622   2.054  12.738  0.3215 -0.2867 -1.4684
10531TIP3    H253085   6.713   1.937  12.707  1.5914  0.7146 -1.6283
10532TIP3   OH253086   2.833   4.408  13.043 -0.0567 -0.4699  0.2868
10532TIP3    H153087   2.807   4.433  13.131 -1.3366 -0.0308 -0.1904
10532TIP3    H253088   2.928   4.422  13.041 -0.0162 -0.4865  1.5815
10533TIP3   OH253089   4.333   6.757   4.943  0.1356  0.2947  0.0505
10533TIP3    H153090   4.386   6.782   4.867  1.0590 -0.1203  0.5430
10533TIP3    H253091   4.272   6.830   4.956  0.1453  0.4856 -0.9199
10534TIP3   OH253092   5.429   4.057  12.510 -0.2243  0.0207  0.1283
10534TIP3    H153093   5.476   4.087  12.588 -1.0407 -2.3000  1.5957
10534TIP3    H253094   5.337   4.064  12.534 -0.4701 -3.0625  0.4208
10535TIP3   OH253095   2.961   4.571  16.210 -0.2875  0.2272 -0.3341
10535TIP3    H153096   2.966   4.666  16.194  0.5135  0.4208  0.9563
10535TIP3    H253097   2.886   4.561  16.269 -0.6401 -0.0023 -0.8171
10536TIP3   OH253098   3.628   3.223  15.432 -0.3183  0.1502 -0.3668
10536TIP3    H153099   3.702   3.249  15.486 -0.8738  0.0851  0.4368
10536TIP3    H253100   3.571   3.299  15.431 -1.1163 -0.4119  0.5506
10537TIP3   OH253101   3.744   2.447   5.739 -0.2138  0.3372 -0.1002
10537TIP3    H153102   3.686   2.423   5.667 -1.0751  0.4644  0.5204
10537TIP3    H253103   3.731   2.542   5.750  0.7741  0.5232 -0.5111
10538TIP3   OH253104   2.814   6.354   3.893  0.0737  0.9680 -0.4321
10538TIP3    H153105   2.740   6.298   3.915  0.5003  0.4980 -0.1936
10538TIP3    H253106   2.835   6.333   3.802  1.0135 -0.1525  0.0303
10539TIP3   OH253107   4.464   0.056  15.130 -0.7872 -0.8131 -0.3993
10539TIP3    H153108   4.403   0.113  15.177  0.6063 -0.5423  1.1566
10539TIP3    H253109   4.424  -0.031  15.135  0.1210 -1.1708  2.9737
10540TIP3   OH253110   5.193   6.456   1.282 -0.6699  0.6189 -0.7037
10540TIP3    H153111   5.277   6.500   1.295 -0.8268  0.6503  0.3065
10540TIP3    H253112   5.209   6.396   1.210  0.0465  1.0582 -0.9321
10541TIP3   OH253113   4.676   1.533   5.420  0.2875 -0.0040  0.2588
10541TIP3    H153114   4.698   1.607   5.364  2.6618 -1.3035 -0.6697
10541TIP3    H253115   4.747   1.531   5.486 -0.9931 -0.1205  1.6930
10542TIP3   OH253116   1.795   1.847  12.665  0.1462  0.4656  0.2852
10542TIP3    H153117   1.881   1.881  12.692  0.6032 -0.5132  0.1340
10542TIP3    H253118   1.798   1.849  12.569 -0.9021  2.5520  0.2493
10543TIP3   OH253119   3.026   1.584   4.835 -0.3379  0.0818  0.0598
10543TIP3    H153120   3.075   1.665   4.823 -0.1199  0.2482  1.8110
10543TIP3    H253121   2.987   1.567   4.749  1.7462  0.6028 -1.0487
10544TIP3   OH253122   3.280   4.997  10.899 -0.5336 -0.0911  0.2504
10544TIP3    H153123   3.187   5.006  10.878 -0.1619  0.8373 -1.1123
10544TIP3    H253124   3.316   5.084  10.881  0.4921 -0.2618  1.3879
10545TIP3   OH253125   0.978   0.955   4.078  0.4928 -0.8137  0.2131
10545TIP3    H153126   0.902   0.900   4.100 -1.4955 -0.7458 -5.1103
10545TIP3    H253127   1.048   0.893   4.060 -1.0021 -1.7658 -3.2158
10546TIP3   OH253128   4.894   5.429  16.671  0.6549 -1.1198  0.1956
10546TIP3    H153129   4.856   5.404  16.755  0.4377 -1.2000  0.0762
10546TIP3    H253130   4.966   5.488  16.693  0.0723 -0.4737  0.3960
10547TIP3   OH253131   2.290   3.164   3.323 -0.0187 -0.5937  0.4994
10547TIP3    H153132   2.335   3.100   3.379 -0.1364  0.3858  1.7490
10547TIP3    H253133   2.361   3.208   3.276  0.1125 -1.0835  0.2261
10548TIP3   OH253134   0.579   5.521   4.577 -0.1558 -0.2699 -0.0183
10548TIP3    H153135   0.649   5.465   4.544 -0.0438 -0.5666  0.6856
10548TIP3    H253136   0.504   5.503   4.521 -1.0462 -3.3924  1.9117
10549TIP3   OH253137   1.729   3.068   4.664 -0.3437 -0.1167 -0.5566
10549TIP3    H153138   1.797   3.022   4.712 -0.8605 -1.5745 -1.1830
10549TIP3    H253139   1.775   3.115   4.594  0.0671 -0.6040 -0.6119
10550TIP3   OH253140   3.559   1.539  16.727 -0.5617 -0.7020 -0.0656
10550TIP3    H153141   3.570   1.508  16.637 -0.4292  1.1268 -0.7142
10550TIP3    H253142   3.466   1.559  16.734 -0.5538 -0.7526  0.1750
10551TIP3   OH253143   5.475   2.173  13.733 -0.5007  0.0379 -0.8634
10551TIP3    H153144   5.413   2.246  13.739 -0.7288 -0.2461  0.6847
10551TIP3    H253145   5.497   2.153  13.824  2.7463  0.8503 -1.3539
10552TIP3   OH253146   5.381   4.357  11.031  0.1392  0.7123  0.4561
10552TIP3    H153147   5.423   4.400  10.957 -0.5705 -2.3750 -1.9403
10552TIP3    H253148   5.454   4.320  11.081  0.5589  1.2380  0.2444
10553TIP3   OH253149   2.535   4.581  11.922 -0.2641 -0.0943 -0.4426
10553TIP3    H153150   2.576   4.496  11.908  0.2256  0.1792 -0.6870
10553TIP3    H253151   2.441   4.562  11.924 -0.3034 -0.3987 -2.4678
10554TIP3   OH253152   2.655   2.646   2.228 -0.2137 -0.4063  0.2095
10554TIP3    H153153   2.580   2.589   2.240 -0.4057 -0.2225 -0.1109
10554TIP3    H253154   2.716   2.620   2.298 -0.8928 -0.0213  0.9606
10555TIP3   OH253155   4.506   3.603  12.759 -0.1253  0.0108  0.7903
10555TIP3    H153156   4.589   3.630  12.721 -1.2932 -0.2842 -2.2680
10555TIP3    H253157   4.512   3.508  12.766  0.1760  0.0833  1.6797
10556TIP3   OH253158   1.407   1.174   3.337  0.2836  0.0297 -0.1556
10556TIP3    H153159   1.349   1.118   3.388  1.2023  0.5905  1.5882
10556TIP3    H253160   1.447   1.115   3.274 -0.3714 -0.8397  0.2163
10557TIP3   OH253161   0.195   6.272  13.325 -0.5067  0.1042  0.0674
10557TIP3    H153162   0.237   6.261  13.239  1.3310  1.5393  0.7308
10557TIP3    H253163   0.267   6.286  13.386 -1.6853 -2.0299  2.1181
10558TIP3   OH253164   4.586   6.128   5.731 -0.5470  0.1576 -0.3738
10558TIP3    H153165   4.564   6.115   5.823  0.6139  0.1694 -0.0885
10558TIP3    H253166   4.504   6.110   5.685 -0.8577 -0.9672  0.5650
10559TIP3   OH253167   3.319   0.743  16.646 -0.0047 -0.5869 -0.1659
10559TIP3    H153168   3.306   0.809  16.577 -1.1964  0.5586  1.0789
10559TIP3    H253169   3.408   0.760  16.677  0.3911 -0.8356 -1.1177
10560TIP3   OH253170   1.277   3.455  12.512 -0.6764 -0.2567 -0.6363
10560TIP3    H153171   1.188   3.476  12.484 -1.3730 -2.4382 -0.2134
10560TIP3    H253172   1.266   3.386  12.577  1.2823  0.2600  0.3104
10561TIP3   OH253173   6.586   2.818  13.697 -0.3533  0.0890 -0.4664
10561TIP3    H153174   6.657   2.753  13.703 -1.9478 -1.8137 -0.9737
10561TIP3    H253175   6.595   2.854  13.609  1.6886  2.0484  0.4522
10562TIP3   OH253176   3.164   6.650   1.087  0.4218  0.0705 -0.0076
10562TIP3    H153177   3.252   6.688   1.080  0.4004 -0.1038 -1.7881
10562TIP3    H253178   3.173   6.578   1.149  0.9903  1.4977  1.6357
10563TIP3   OH253179   6.067   6.478   3.094 -0.0586 -0.3335  0.0886
10563TIP3    H153180   6.071   6.474   3.190 -2.9948 -0.0493  0.3151
10563TIP3    H253181   6.096   6.392   3.065  0.5815 -0.5275  1.2537
10564TIP3   OH253182   0.853   6.307   2.206  0.0018 -0.4042 -0.2054
10564TIP3    H153183   0.900   6.282   2.127 -0.9090 -3.6909  0.1608
10564TIP3    H253184   0.765   6.272   2.194 -0.0833 -1.2873  2.3498
10565TIP3   OH253185   3.513   5.968  12.224  0.3941 -0.2728  0.1462
10565TIP3    H153186   3.537   5.993  12.135  0.3909  1.5919  0.6397
10565TIP3    H253187   3.425   5.933  12.216  1.1010 -1.9716 -0.8411
10566TIP3   OH253188   3.694   4.527   3.298 -0.6633  0.4631  0.0069
10566TIP3    H153189   3.769   4.529   3.358 -0.2772 -0.7381 -0.3932
10566TIP3    H253190   3.714   4.595   3.233 -0.2249  0.5768  0.2527
10567TIP3   OH253191   4.653   6.394  10.480  0.5020 -0.3789  0.2498
10567TIP3    H153192   4.625   6.436  10.561  0.3414  0.4296 -0.2066
10567TIP3    H253193   4.576   6.349  10.447  0.2460  0.2620 -0.0394
10568TIP3   OH253194   5.212   2.614   0.003  0.1715  0.9394 -0.3799
10568TIP3    H153195   5.283   2.608  -0.060  0.2278 -0.4476 -0.2091
10568TIP3    H253196   5.149   2.674  -0.038  0.9500  1.3603 -0.9923
10569TIP3   OH253197   4.491   3.796  15.123 -0.6535  0.5298 -0.0139
10569TIP3    H153198   4.500   3.851  15.201 -1.0078  0.3281  0.1762
10569TIP3    H253199   4.580   3.775  15.097 -0.5281  0.8036  0.1922
10570TIP3   OH253200   1.537   3.133  12.061  0.8610  0.3180  0.8054
10570TIP3    H153201   1.543   3.136  11.965 -1.6265  0.5554  0.5917
10570TIP3    H253202   1.547   3.224  12.089  1.7967  0.2223  0.8146
10571TIP3   OH253203   0.333   4.954   3.481 -0.2042 -0.5684 -0.2075
10571TIP3    H153204   0.342   4.875   3.428  2.1082 -0.2386 -0.3983
10571TIP3    H253205   0.414   4.958   3.532  0.0675  2.0597 -0.7391
10572TIP3   OH253206   0.183   4.900   3.077  0.5189  0.0976  0.4500
10572TIP3    H153207   0.202   4.940   2.992 -0.7441  0.7015  0.4374
10572TIP3    H253208   0.259   4.843   3.093  1.2515  0.7241 -0.6070
10573TIP3   OH253209   1.943   5.558  16.936 -0.0817 -0.1362 -0.6931
10573TIP3    H153210   1.944   5.489  16.869  0.8383  0.0556 -0.8814
10573TIP3    H253211   1.998   5.524  17.006 -0.2072  0.1096 -0.4715
10574TIP3   OH253212   6.634   6.148  14.167  0.4196 -0.2403  0.6042
10574TIP3    H153213   6.614   6.130  14.259 -0.3076 -0.4828  0.4033
10574TIP3    H253214   6.622   6.242  14.158  0.8535 -0.1570  0.8370
10575TIP3   OH253215   1.864   1.197  15.380  0.0786 -0.6896  0.6114
10575TIP3    H153216   1.807   1.212  15.305  1.7542  1.3149 -0.3722
10575TIP3    H253217   1.902   1.111  15.364  0.2200 -0.3986 -0.7313
10576TIP3   OH253218   1.158   3.090  10.584  0.2452  0.0630 -0.2533
10576TIP3    H153219   1.192   3.158  10.526  1.4099 -0.5167 -0.2936
10576TIP3    H253220   1.205   3.102  10.666 -1.3963  0.8701  0.5940
10577TIP3   OH253221   5.752   6.530   1.706  0.1124  0.2115 -0.1139
10577TIP3    H153222   5.760   6.615   1.750  1.0543  1.2283 -2.1032
10577TIP3    H253223   5.831   6.483   1.730  0.4654  0.6349 -0.4195
10578TIP3   OH253224   4.192   3.625  15.516 -1.0649 -0.4262 -0.0721
10578TIP3    H153225   4.215   3.710  15.553 -1.4719 -0.8365  1.1662
10578TIP3    H253226   4.275   3.592  15.480 -0.6472 -0.0216  0.4973
10579TIP3   OH253227   0.297   0.874   5.705  0.4605  0.2229 -0.4135
10579TIP3    H153228   0.320   0.926   5.782  2.6259 -1.3234  0.0864
10579TIP3    H253229   0.234   0.810   5.737  2.0289 -0.9926  0.3516
10580TIP3   OH253230   4.700   1.871  10.705  0.0191  0.2548  0.0475
10580TIP3    H153231   4.634   1.870  10.636 -0.2885  1.3068  0.2986
10580TIP3    H253232   4.780   1.841  10.662 -1.0361 -3.2539  0.2571
10581TIP3   OH253233   6.218   6.482  12.892  0.7612 -0.1911  0.2086
10581TIP3    H153234   6.282   6.530  12.945  1.4729 -1.4259  0.5090
10581TIP3    H253235   6.133   6.507  12.927  1.1948 -0.5716  1.5903
10582TIP3   OH253236   5.343   5.242  13.243  0.7232 -0.0550  0.5136
10582TIP3    H153237   5.248   5.234  13.228  0.8044 -0.4661  0.1991
10582TIP3    H253238   5.381   5.241  13.156  0.9759  0.7416  0.6137
10583TIP3   OH253239   4.834   4.989   2.383 -0.4214 -0.0229  0.3608
10583TIP3    H153240   4.775   4.953   2.316  0.8053  0.2406 -0.8975
10583TIP3    H253241   4.785   5.062   2.420 -0.2813  1.2924 -1.8645
10584TIP3   OH253242   2.630   0.688   3.455  0.2958 -0.0276 -0.0425
10584TIP3    H153243   2.550   0.726   3.489 -1.2718 -3.0027 -0.0411
10584TIP3    H253244   2.679   0.660   3.533  0.3766  0.0066 -0.0805
10585TIP3   OH253245   2.575   3.542  12.908  0.3517  0.8403  0.1488
10585TIP3    H153246   2.535   3.554  12.994 -1.1404  1.5026 -0.6069
10585TIP3    H253247   2.646   3.479  12.923  0.1428  0.9788  1.8571
10586TIP3   OH253248   5.319   4.439   3.146 -0.0159 -0.0432  0.2744
10586TIP3    H153249   5.339   4.353   3.183 -0.2917  0.3846  1.4837
10586TIP3    H253250   5.238   4.426   3.097  0.0101 -0.4957  0.3468
10587TIP3   OH253251   3.675   3.510  14.948 -0.2554 -0.8346 -0.7127
10587TIP3    H153252   3.719   3.542  15.027 -2.0288 -0.5704  0.2313
10587TIP3    H253253   3.724   3.549  14.875  0.2883  0.4709  0.3085
10588TIP3   OH253254   0.052   0.426   5.851 -0.2812  0.5542 -0.4618
10588TIP3    H153255   0.069   0.507   5.801  2.4578  0.4290  0.1343
10588TIP3    H253256   0.076   0.448   5.941 -0.6588 -0.6126 -0.0636
10589TIP3   OH253257   1.844   2.565  11.834 -0.5195 -0.1729 -0.4882
10589TIP3    H153258   1.830   2.544  11.927  1.6804  2.0681  0.4776
10589TIP3    H253259   1.761   2.599  11.803 -0.8497  0.6602  1.2025
10590TIP3   OH253260   2.797   4.772  10.884 -0.4274  0.0557 -0.1417
10590TIP3    H153261   2.764   4.859  10.858 -0.3053  0.4640  1.0227
10590TIP3    H253262   2.722   4.729  10.924 -0.0942  0.2038  0.6515
10591TIP3   OH253263   4.088   1.245  12.145  0.4048  0.1720  0.2957
10591TIP3    H153264   4.144   1.172  12.117  0.9729  1.6961 -3.0574
10591TIP3    H253265   4.149   1.316  12.165 -0.2006  0.1994  2.3016
10592TIP3   OH253266   6.464   4.336  16.547 -0.9274 -0.3489  0.5880
10592TIP3    H153267   6.479   4.279  16.623 -0.8897 -1.1728 -0.0167
10592TIP3    H253268   6.536   4.314  16.487 -1.4847 -0.3879 -0.0733
10593TIP3   OH253269   0.608   3.472   5.503 -0.2485  0.2401 -0.3755
10593TIP3    H153270   0.553   3.463   5.426  0.7719  0.1864 -1.1118
10593TIP3    H253271   0.568   3.543   5.553 -1.8452 -0.7755 -0.1231
10594TIP3   OH253272   2.674   1.510   0.810  0.0412 -0.3208  0.5224
10594TIP3    H153273   2.617   1.450   0.761  0.4422 -1.6392  1.6210
10594TIP3    H253274   2.730   1.549   0.742  0.2015 -1.6789 -0.1761
10595TIP3   OH253275   3.475   0.001  11.213 -0.4257  0.2615 -0.4738
10595TIP3    H153276   3.405  -0.023  11.152 -1.7124 -0.7079  1.2933
10595TIP3    H253277   3.508   0.085  11.180  0.0189 -0.9365 -3.3579
10596TIP3   OH253278   6.436   1.782  16.106  0.6323 -0.2451  0.2380
10596TIP3    H153279   6.478   1.857  16.063 -0.6747 -0.1979 -0.9918
10596TIP3    H253280   6.345   1.785  16.077  0.5559 -2.3384  0.1471
10597TIP3   OH253281   5.217   4.365  14.817 -0.3997  0.0198 -0.1471
10597TIP3    H153282   5.127   4.396  14.817 -1.8735 -3.7746 -0.1402
10597TIP3    H253283   5.244   4.368  14.725 -0.9910  0.0545 -0.3226
10598TIP3   OH253284   3.108   4.297   1.862  0.2378  0.1336  0.1788
10598TIP3    H153285   3.083   4.207   1.881  0.1534  0.2397  0.5671
10598TIP3    H253286   3.029   4.336   1.824  0.3754 -0.0464 -0.3069
10599TIP3   OH253287   3.546   2.729   1.214 -0.1767  0.8348  0.7967
10599TIP3    H153288   3.472   2.719   1.153  0.5474 -0.7926  0.1286
10599TIP3    H253289   3.568   2.640   1.239  2.7765  1.0715 -0.5154
10600TIP3   OH253290   5.509   0.809  15.394  0.6450 -0.4024 -0.3206
10600TIP3    H153291   5.520   0.723  15.435 -0.7806 -0.9597 -0.9992
10600TIP3    H253292   5.448   0.855  15.452  0.9339 -0.0741 -0.2761
10601TIP3   OH253293   6.105   2.129  11.789  0.7274 -0.0243  0.5360
10601TIP3    H153294   6.138   2.215  11.766 -0.3396  0.4749  0.7970
10601TIP3    H253295   6.097   2.130  11.884 -0.0393 -0.1145  0.4829
10602TIP3   OH253296   5.291   0.834  14.644  0.1122 -0.2634  0.2371
10602TIP3    H153297   5.378   0.796  14.628 -0.6571 -2.4583  0.8721
10602TIP3    H253298   5.245   0.767  14.695 -1.5237  1.4182  1.0705
10603TIP3   OH253299   0.558   3.646  15.336  0.3960  0.6779 -0.3024
10603TIP3    H153300   0.499   3.718  15.312  0.6940  1.2311  0.5845
10603TIP3    H253301   0.617   3.638  15.260 -0.2084  0.7587 -0.7916
10604TIP3   OH253302   4.769   4.646  15.810 -0.0478  0.5963 -0.0701
10604TIP3    H153303   4.802   4.591  15.739 -2.0283  0.6186 -1.0836
10604TIP3    H253304   4.837   4.713  15.822  1.4052 -0.7930 -0.2782
10605TIP3   OH253305   0.935   3.061  13.125 -0.0220 -0.3192 -0.1112
10605TIP3    H153306   0.931   2.984  13.068 -0.5316  0.5888 -1.3652
10605TIP3    H253307   0.968   3.131  13.068 -1.9276  0.9710  0.2592
10606TIP3   OH253308   3.545   1.663  14.973  0.6626 -0.3464 -0.0264
10606TIP3    H153309   3.595   1.718  14.912 -1.5487  1.1263 -0.6596
10606TIP3    H253310   3.534   1.718  15.051  1.3449 -1.2585  0.7271
10607TIP3   OH253311   0.779   2.668   0.015 -0.3814  0.0457  0.0952
10607TIP3    H153312   0.733   2.714   0.086 -0.4238  0.1031  0.0306
10607TIP3    H253313   0.755   2.717  -0.064  1.0941  1.0758  0.2516
10608TIP3   OH253314   5.781   1.019   1.561 -0.5572  0.0275  0.5242
10608TIP3    H153315   5.763   1.105   1.600  0.8011  0.1837  0.8685
10608TIP3    H253316   5.696   0.978   1.552 -1.2043  1.2838  0.6671
10609TIP3   OH253317   0.445   4.123  14.385  0.1656 -0.0334 -0.1176
10609TIP3    H153318   0.489   4.109  14.301  1.1868  0.8764  0.2386
10609TIP3    H253319   0.353   4.133  14.362  0.1309 -1.8625 -0.8944
10610TIP3   OH253320   0.505   2.009  14.695 -0.4407  0.3928 -0.0746
10610TIP3    H153321   0.437   1.952  14.659  0.1592  0.4927 -1.4493
10610TIP3    H253322   0.573   1.949  14.725  0.1611  0.3505 -1.4605
10611TIP3   OH253323   3.741   4.260   2.270  0.3244  0.0963 -0.4143
10611TIP3    H153324   3.796   4.330   2.236  0.3353  0.2809 -0.0328
10611TIP3    H253325   3.692   4.302   2.342 -1.0929  0.2208 -1.4137
10612TIP3   OH253326   1.825   4.712   4.177  0.1433 -0.4357 -0.1157
10612TIP3    H153327   1.775   4.785   4.215  0.6582 -0.5699  0.8575
10612TIP3    H253328   1.863   4.748   4.097 -1.3784 -0.2901 -0.7992
10613TIP3   OH253329   4.082   1.026   3.782  0.5500 -0.3195 -0.1051
10613TIP3    H153330   4.118   1.087   3.717 -2.1986  1.7016  0.0845
10613TIP3    H253331   4.063   0.947   3.732  0.8746  0.2769 -1.2065
10614TIP3   OH253332   0.396   2.134   0.058 -0.5544 -0.7063 -0.2119
10614TIP3    H153333   0.344   2.060   0.089  1.4358 -2.0256  0.2112
10614TIP3    H253334   0.385   2.132  -0.037 -1.6776 -0.6110 -0.0966
10615TIP3   OH253335   4.112   0.010   5.956  0.1369  0.5064  0.5715
10615TIP3    H153336   4.179   0.066   5.915 -0.5894  0.9025 -0.1096
10615TIP3    H253337   4.161  -0.062   5.995  0.9186  0.4857 -0.4167
10616TIP3   OH253338   3.784   4.492  14.182  0.6401 -0.3286  1.0282
10616TIP3    H153339   3.812   4.540  14.104  0.1543 -0.0586  1.0198
10616TIP3    H253340   3.835   4.531  14.253 -0.9471  1.3915  1.3030
10617TIP3   OH253341   1.110   6.631  13.114 -0.4448 -0.0613 -0.3347
10617TIP3    H153342   1.037   6.632  13.176 -0.3466 -2.1594 -0.1139
10617TIP3    H253343   1.112   6.541  13.081  0.5694  0.5620 -2.1291
10618TIP3   OH253344   4.663   3.388  13.887  0.4523 -0.2378  0.0683
10618TIP3    H153345   4.708   3.375  13.970  0.5826  1.9654  0.4007
10618TIP3    H253346   4.730   3.373  13.821  1.4240  1.7082  0.5263
10619TIP3   OH253347   5.297   2.986  12.557  0.4966  0.6495  0.1040
10619TIP3    H153348   5.345   3.046  12.501 -0.2537  1.7757  0.6391
10619TIP3    H253349   5.361   2.956  12.622  1.1884 -0.1190 -0.8945
10620TIP3   OH253350   6.714   6.041   0.160 -0.0545  0.2033  0.4301
10620TIP3    H153351   6.723   6.095   0.081 -0.2209  1.7775  1.4546
10620TIP3    H253352   6.755   6.092   0.229  1.4306 -1.8001  1.1405
10621TIP3   OH253353   1.069   1.734  11.690  0.6834 -0.0910  0.1296
10621TIP3    H153354   1.132   1.693  11.750  0.5870 -1.2902 -0.5549
10621TIP3    H253355   0.984   1.697  11.716  0.2286  1.4973  1.0314
10622TIP3   OH253356   4.519   1.800  13.042  0.4077  0.5055  0.2410
10622TIP3    H153357   4.469   1.777  13.121 -0.4350 -0.1924 -0.4718
10622TIP3    H253358   4.558   1.717  13.014 -2.4151 -0.1667 -2.2007
10623TIP3   OH253359   3.851   1.409   1.082 -0.4982 -0.5149  0.5680
10623TIP3    H153360   3.919   1.397   1.015 -1.9942  0.0188 -1.1018
10623TIP3    H253361   3.886   1.477   1.139  0.1201  0.1927 -0.6124
10624TIP3   OH253362   6.683   4.331  11.912  0.6446 -0.0582  0.0313
10624TIP3    H153363   6.722   4.318  11.999  0.1989  1.0804  0.4194
10624TIP3    H253364   6.716   4.417  11.884 -0.9529  0.6051  0.0543
10625TIP3   OH253365   5.943   1.443  11.304 -0.0949 -0.0551  0.2528
10625TIP3    H153366   5.871   1.421  11.246 -0.3826  0.1766  0.5164
10625TIP3    H253367   5.905   1.505  11.367  0.1045 -0.6012  0.9206
10626TIP3   OH253368   5.333   4.615  11.963 -0.1151  0.1223 -0.6558
10626TIP3    H153369   5.265   4.587  12.024  0.1308 -1.5955 -1.1294
10626TIP3    H253370   5.322   4.710  11.957 -0.2498  0.3598  1.9331
10627TIP3   OH253371   3.693   6.446  11.759 -0.2001  0.5272 -0.4115
10627TIP3    H153372   3.700   6.420  11.668  1.4934 -1.6862  0.2626
10627TIP3    H253373   3.648   6.373  11.802 -2.1521  2.0880  0.3685
10628TIP3   OH253374   1.276   0.344  14.605 -0.8283 -0.0710 -0.1024
10628TIP3    H153375   1.219   0.410  14.565  0.4178  0.4627 -1.0736
10628TIP3    H253376   1.363   0.364  14.571  0.0607 -0.4814  1.8126
10629TIP3   OH253377   6.733   1.650   1.857 -0.6986 -0.4631 -0.1798
10629TIP3    H153378   6.718   1.562   1.893  1.2740 -0.3055  1.1882
10629TIP3    H253379   6.658   1.701   1.889 -0.6746 -1.1209  1.0045
10630TIP3   OH253380   4.421   6.176  14.158  0.4936 -0.5766 -0.1871
10630TIP3    H153381   4.384   6.088  14.159  2.9540 -1.6773  0.2621
10630TIP3    H253382   4.433   6.198  14.250 -0.0392  0.2292 -0.2995
10631TIP3   OH253383   4.983   3.952   5.548 -0.3899 -0.1432  0.2266
10631TIP3    H153384   5.027   3.926   5.629 -1.2037  0.3783  0.8376
10631TIP3    H253385   4.990   4.047   5.546 -0.8377 -0.1154 -0.0551
10632TIP3   OH253386   4.691   5.593  14.860  0.9911  0.1790 -0.0216
10632TIP3    H153387   4.629   5.639  14.803 -1.6417 -1.3047  1.4775
10632TIP3    H253388   4.688   5.641  14.943  0.4661 -0.9225  0.6174
10633TIP3   OH253389   4.350   6.405   2.502 -0.0058  0.4506  0.5243
10633TIP3    H153390   4.434   6.415   2.547  0.7875  1.5182 -1.1054
10633TIP3    H253391   4.373   6.401   2.409 -1.6704 -0.6472  0.1190
10634TIP3   OH253392   6.089   5.074  17.006  0.0227 -0.4119  0.1377
10634TIP3    H153393   6.132   5.128  17.072 -0.2996 -0.8261  0.6909
10634TIP3    H253394   6.000   5.064  17.038 -0.1224 -0.6561 -0.3409
10635TIP3   OH253395   2.659   2.240   3.443  0.3555  0.1127 -0.2910
10635TIP3    H153396   2.674   2.212   3.534  0.6982 -0.1884 -0.4391
10635TIP3    H253397   2.634   2.160   3.397  2.5216 -0.2108 -0.9854
10636TIP3   OH253398   2.750   5.360   3.002  0.1789 -0.1549 -0.3413
10636TIP3    H153399   2.700   5.360   3.084  0.3698 -1.0876 -0.2238
10636TIP3    H253400   2.685   5.340   2.935 -0.0360  0.9009 -0.4697
10637TIP3   OH253401   5.999   2.058  10.974  0.4599  0.1291 -0.7256
10637TIP3    H153402   6.073   2.050  11.033 -0.2716  0.5598  0.2716
10637TIP3    H253403   5.995   1.974  10.929  2.7109  0.7250 -2.2273
10638TIP3   OH253404   3.610   3.625   3.746 -0.2399 -0.7650  0.1530
10638TIP3    H153405   3.690   3.574   3.734  2.0737  2.3651  1.2284
10638TIP3    H253406   3.597   3.670   3.663  0.1426  0.0563  0.5303
10639TIP3   OH253407   4.896   3.944   4.082  0.5574 -0.4497 -0.1842
10639TIP3    H153408   4.990   3.948   4.102  0.6284  1.9066 -0.6551
10639TIP3    H253409   4.892   3.921   3.989  1.0752  4.3669 -1.6970
10640TIP3   OH253410   1.016   0.926   0.792  0.2778  0.2014 -0.4017
10640TIP3    H153411   1.042   1.001   0.738  1.9608 -0.3216 -0.3571
10640TIP3    H253412   1.078   0.857   0.769 -0.7630 -0.9410  0.1343
10641TIP3   OH253413   5.440   5.059  12.736  0.3904  0.2341 -0.1867
10641TIP3    H153414   5.371   5.007  12.695  0.7177 -0.8097  0.5624
10641TIP3    H253415   5.510   5.062  12.671  0.3324 -0.1873 -0.2707
10642TIP3   OH253416   2.984   0.901  15.461 -0.0659  0.4184 -0.6476
10642TIP3    H153417   3.025   0.861  15.384  2.2275 -0.0027  0.7004
10642TIP3    H253418   2.939   0.829  15.505  0.0897  0.2887 -0.6990
10643TIP3   OH253419   2.855   6.109  12.381 -0.1666  0.2192 -0.6225
10643TIP3    H153420   2.798   6.140  12.311 -1.0031 -0.0115 -0.0595
10643TIP3    H253421   2.849   6.013  12.376  2.2375  0.0892 -2.2182
10644TIP3   OH253422   0.763   0.883   3.103  0.3569 -0.4178  0.1136
10644TIP3    H153423   0.800   0.916   3.185 -0.3294 -1.6591  0.9508
10644TIP3    H253424   0.828   0.907   3.037  0.6494  1.1102  0.9098
10645TIP3   OH253425   2.567   4.622  16.605  0.7293 -0.5442  0.0215
10645TIP3    H153426   2.585   4.601  16.697  0.2502  0.7416  0.4268
10645TIP3    H253427   2.526   4.708  16.607  2.2801  0.2842 -1.5498
10646TIP3   OH253428   5.520   6.288  11.907 -0.1528 -0.1060  0.0711
10646TIP3    H153429   5.593   6.319  11.854 -0.6950  0.8225 -0.1687
10646TIP3    H253430   5.560   6.230  11.972  0.9096  1.0602  0.4927
10647TIP3   OH253431   4.333   6.724   0.135  0.2998  1.2710 -0.3178
10647TIP3    H153432   4.255   6.726   0.080  0.0077  2.6617  0.1061
10647TIP3    H253433   4.302   6.751   0.222  0.9717  0.2785  0.2585
10648TIP3   OH253434   6.226   0.195   4.782  0.5573 -0.4249  0.2161
10648TIP3    H153435   6.158   0.232   4.838 -0.4077 -0.7178 -0.7244
10648TIP3    H253436   6.307   0.210   4.830 -0.3034 -1.4550  2.1195
10649TIP3   OH253437   1.252   2.697   5.229  0.4635 -0.4759  0.8629
10649TIP3    H153438   1.296   2.723   5.149  0.7270 -0.7361  0.9214
10649TIP3    H253439   1.258   2.601   5.230 -0.4883 -0.5499  0.6429
10650TIP3   OH253440   0.395   2.635   1.777  0.7848 -0.9648 -0.1001
10650TIP3    H153441   0.424   2.604   1.863  0.5763  0.2046  0.4066
10650TIP3    H253442   0.467   2.611   1.718  0.6604 -2.3322  0.2731
10651TIP3   OH253443   6.743   2.179  12.012  0.2675  0.6751  0.1303
10651TIP3    H153444   6.671   2.132  12.054  0.3533 -0.8253 -1.3192
10651TIP3    H253445   6.704   2.217  11.933  0.5306  1.9009  0.5715
10652TIP3   OH253446   6.083   6.088  15.139 -0.0096 -0.9254  0.4285
10652TIP3    H153447   6.021   6.025  15.176  0.6861 -0.8762  1.7879
10652TIP3    H253448   6.045   6.174  15.158 -0.7782 -0.9119 -1.0935
10653TIP3   OH253449   1.460   6.219   1.899  0.1835 -0.4301 -0.3342
10653TIP3    H153450   1.516   6.214   1.976  0.1890  0.6590 -0.2531
10653TIP3    H253451   1.414   6.135   1.897 -0.0778 -0.3459  1.0643
10654TIP3   OH253452   2.047   1.942  12.751 -1.1807  0.3044  0.0543
10654TIP3    H153453   2.067   2.026  12.708  0.1091 -0.2063 -0.3767
10654TIP3    H253454   2.132   1.902  12.767 -1.7020 -0.2166  1.7411
10655TIP3   OH253455   3.625   0.670  12.109  0.2622 -0.2549 -0.1607
10655TIP3    H153456   3.618   0.729  12.185  0.7095  0.8314 -0.9266
10655TIP3    H253457   3.596   0.724  12.036 -3.6951 -2.3193 -0.3829
10656TIP3   OH253458   2.699   1.462  14.442  0.5146  0.4172 -0.3146
10656TIP3    H153459   2.776   1.406  14.430 -0.4394 -1.0833  0.2238
10656TIP3    H253460   2.627   1.413  14.401 -0.6449  0.4987  1.5122
10657TIP3   OH253461   2.181   0.105   4.899 -0.1068 -0.1039  0.4426
10657TIP3    H153462   2.236   0.160   4.955 -1.1204  2.0330 -0.5450
10657TIP3    H253463   2.114   0.164   4.865 -1.7047 -2.1158 -0.1684
10658TIP3   OH253464   4.728   5.767  14.110 -0.0510  0.1919  0.2307
10658TIP3    H153465   4.723   5.818  14.029 -1.9713  0.6229  0.5630
10658TIP3    H253466   4.637   5.743  14.128  0.0606  1.6430  3.2325
10659TIP3   OH253467   6.003   5.575   3.434 -0.8070  0.4508  0.5752
10659TIP3    H153468   6.061   5.523   3.488 -1.1740  0.5189  1.0394
10659TIP3    H253469   6.015   5.665   3.465 -1.5205  0.4036  1.0187
10660TIP3   OH253470   2.456   4.611   0.328 -0.3614  0.1886  0.1573
10660TIP3    H153471   2.381   4.551   0.319  0.9552 -1.5339  0.0109
10660TIP3    H253472   2.477   4.636   0.238 -0.7742  0.6883  0.2001
10661TIP3   OH253473   0.421   6.656  12.040  0.1482  0.1306 -0.2038
10661TIP3    H153474   0.397   6.745  12.013 -1.3629  0.1363  1.0091
10661TIP3    H253475   0.516   6.657  12.047  0.2193  1.3910 -1.0687
10662TIP3   OH253476   1.757   0.115   1.196 -0.4271 -0.5208  0.0810
10662TIP3    H153477   1.707   0.163   1.131 -0.6698 -0.0225  0.6255
10662TIP3    H253478   1.831   0.079   1.147 -0.0963  0.6244 -0.3044
10663TIP3   OH253479   2.808   2.913  15.729  0.1969 -0.2099 -0.1793
10663TIP3    H153480   2.885   2.887  15.678 -1.4049 -0.6597 -2.4833
10663TIP3    H253481   2.742   2.935  15.664 -1.9940 -0.8336  1.7030
10664TIP3   OH253482   5.364   0.779   1.554  0.5655  0.0670 -0.1448
10664TIP3    H153483   5.437   0.717   1.562 -0.4150 -0.9885  1.2383
10664TIP3    H253484   5.385   0.848   1.616  2.0760  1.6557 -2.2876
10665TIP3   OH253485   3.829   1.072  15.212 -0.0911 -0.1433 -0.6568
10665TIP3    H153486   3.853   0.979  15.214 -0.4924 -0.2504  1.7097
10665TIP3    H253487   3.912   1.118  15.218  0.0979 -0.3195 -1.6702
10666TIP3   OH253488   3.147   0.944   1.088  0.3669  0.3114  0.3203
10666TIP3    H153489   3.211   0.873   1.089  0.2851  0.2256 -0.3320
10666TIP3    H253490   3.074   0.911   1.036  0.9218  1.3797 -1.2048
10667TIP3   OH253491   4.843   6.345   6.255 -0.0592 -0.4444 -0.0169
10667TIP3    H153492   4.815   6.387   6.174 -0.4604  1.0459  0.8406
10667TIP3    H253493   4.774   6.365   6.318  1.1419  0.1386  1.1912
10668TIP3   OH253494   3.440   0.269  11.506 -0.0940  0.7309 -0.1312
10668TIP3    H153495   3.472   0.288  11.594 -1.6227 -1.0266  0.8935
10668TIP3    H253496   3.518   0.273  11.450  1.5561 -1.2029  1.8362
10669TIP3   OH253497   5.119   2.955  16.290  0.0342 -0.0637 -0.1725
10669TIP3    H153498   5.212   2.956  16.264  0.1390  1.5945  0.1258
10669TIP3    H253499   5.120   2.935  16.383  0.0947 -0.1090 -0.1820
10670TIP3   OH253500   1.494   1.454  12.844 -0.0574 -1.0135 -0.0910
10670TIP3    H153501   1.448   1.372  12.826  0.8912 -1.1572 -2.1210
10670TIP3    H253502   1.549   1.469  12.767  0.0618  1.3665  0.3684
10671TIP3   OH253503   2.790   4.772   2.167 -0.0948 -0.4170  0.5451
10671TIP3    H153504   2.835   4.790   2.249  2.0001 -1.2003 -0.3557
10671TIP3    H253505   2.842   4.816   2.100 -1.7125  0.1463 -0.3949
10672TIP3   OH253506   3.448   1.144   2.605 -0.4286  0.0174  0.0561
10672TIP3    H153507   3.403   1.098   2.535  0.3900 -1.8628  0.6897
10672TIP3    H253508   3.398   1.122   2.684  1.8107 -2.7359  0.8932
10673TIP3   OH253509   6.431   0.474   5.106 -0.1321 -0.1790 -0.1934
10673TIP3    H153510   6.474   0.556   5.129  0.7830 -0.4628 -0.8362
10673TIP3    H253511   6.352   0.501   5.059  0.5713  0.3479 -1.1132
10674TIP3   OH253512   6.327   4.195   2.272 -0.0485  0.5833 -0.2196
10674TIP3    H153513   6.272   4.252   2.218 -0.9832  0.3947  0.5066
10674TIP3    H253514   6.416   4.224   2.254 -0.1976 -0.2542 -2.7842
10675TIP3   OH253515   5.227   4.824   2.784 -0.5019  0.3002 -0.0079
10675TIP3    H153516   5.148   4.769   2.781 -0.0770 -0.2892 -1.5400
10675TIP3    H253517   5.194   4.912   2.799 -1.7373  0.4495 -2.8936
10676TIP3   OH253518   3.148   1.121   3.667 -0.0237 -0.5369 -0.4379
10676TIP3    H153519   3.138   1.028   3.687 -0.7064 -0.4506 -0.3655
10676TIP3    H253520   3.225   1.124   3.610  1.5817 -0.8432  1.6009
10677TIP3   OH253521   6.382   4.517   2.935  0.2362  0.3750 -0.0868
10677TIP3    H153522   6.415   4.527   3.024  0.5861 -1.0369 -0.0243
10677TIP3    H253523   6.408   4.597   2.890  1.0450  0.6147  0.7828
10678TIP3   OH253524   0.278   5.328  13.683  0.1520 -0.4737  0.7563
10678TIP3    H153525   0.245   5.302  13.769  0.4548  0.5491  1.1888
10678TIP3    H253526   0.364   5.366  13.701 -0.4787  1.2919  0.2198
10679TIP3   OH253527   3.365   0.905  11.773  0.1761  0.1021  0.0984
10679TIP3    H153528   3.314   0.986  11.784 -0.5693 -0.3475 -0.0272
10679TIP3    H253529   3.300   0.836  11.766  0.7765 -0.3951 -0.8449
10680TIP3   OH253530   0.290   2.611  11.975  0.4065  0.0523  0.1842
10680TIP3    H153531   0.362   2.657  11.933 -0.9448  2.1307  0.0303
10680TIP3    H253532   0.215   2.669  11.966 -0.8270 -1.1093  2.1591
10681TIP3   OH253533   2.732   6.438  12.374  0.3886  0.1973 -0.2942
10681TIP3    H153534   2.695   6.350  12.362  1.9403 -0.5194 -0.0340
10681TIP3    H253535   2.656   6.497  12.367 -0.2274 -0.7750 -4.3896
10682TIP3   OH253536   4.342   1.475  13.801 -0.4489  0.1389  0.3382
10682TIP3    H153537   4.373   1.531  13.872  0.5613  0.2840 -0.2020
10682TIP3    H253538   4.282   1.414  13.844 -0.4383  0.7035  1.1826
10683TIP3   OH253539   5.840   5.777  15.502  0.0679  0.2642  0.0452
10683TIP3    H153540   5.855   5.713  15.572 -2.7374 -0.1736  0.3835
10683TIP3    H253541   5.806   5.725  15.430 -0.1143  1.1096 -0.4871
10684TIP3   OH253542   1.074   3.140  14.159  0.2424 -0.9302 -0.5663
10684TIP3    H153543   1.100   3.048  14.154 -0.8782 -1.3841  1.0928
10684TIP3    H253544   1.157   3.188  14.161  0.8744 -2.0080  0.0830
10685TIP3   OH253545   5.637   3.252  14.346  0.2626  0.1062  0.0755
10685TIP3    H153546   5.617   3.345  14.337 -2.7493 -0.4128  0.5287
10685TIP3    H253547   5.685   3.230  14.266  0.3064  1.8612 -0.4138
10686TIP3   OH253548   1.843   4.843   1.945 -0.3098 -0.0998 -0.4636
10686TIP3    H153549   1.823   4.924   1.897 -1.0383 -0.5049 -0.8554
10686TIP3    H253550   1.785   4.845   2.021  0.5307  0.3258  0.1787
10687TIP3   OH253551   6.624   5.220  16.186  0.2325  0.2213  0.0816
10687TIP3    H153552   6.546   5.253  16.142 -0.9665 -1.4400  0.8462
10687TIP3    H253553   6.671   5.172  16.117 -1.2354 -1.7032  0.3202
10688TIP3   OH253554   4.332   1.052  15.553  0.2224  0.0090  0.1838
10688TIP3    H153555   4.342   0.968  15.597  0.8467 -0.2140 -0.3663
10688TIP3    H253556   4.409   1.102  15.580  0.4720 -0.0345 -0.4413
10689TIP3   OH253557   1.084   2.279   1.085 -0.5215  0.1642 -0.2692
10689TIP3    H153558   1.095   2.282   0.990 -1.7124  0.2112 -0.4118
10689TIP3    H253559   1.135   2.202   1.112 -0.0897  0.2110 -0.9210
10690TIP3   OH253560   0.777   2.281   5.049  0.4812 -0.5404 -0.5688
10690TIP3    H153561   0.863   2.239   5.043  0.6084 -0.1708 -1.5860
10690TIP3    H253562   0.795   2.365   5.091 -0.1037 -2.2946  3.6909
10691TIP3   OH253563   5.153   6.213  14.661  0.3042 -0.1360 -0.3374
10691TIP3    H153564   5.249   6.215  14.662  0.3223  0.4827 -1.5509
10691TIP3    H253565   5.131   6.137  14.606  0.0675 -0.8374  0.6856
10692TIP3   OH253566   2.924   1.612  16.945  0.1661  0.6503  0.0622
10692TIP3    H153567   2.845   1.654  16.911  0.4578  1.3501  0.2406
10692TIP3    H253568   2.996   1.656  16.900  0.5120  0.9040  0.8512
10693TIP3   OH253569   0.370   0.957   2.654  0.6620  0.2623  0.0978
10693TIP3    H153570   0.443   0.895   2.648  0.1678 -0.4305  1.0315
10693TIP3    H253571   0.311   0.930   2.584  0.0918 -0.8229  0.9727
10694TIP3   OH253572   6.277   0.955  11.679  0.2451 -0.2920 -0.0138
10694TIP3    H153573   6.188   0.926  11.659 -0.8888  1.1217  2.4930
10694TIP3    H253574   6.323   0.875  11.703 -1.1145 -0.7606  1.1554
10695TIP3   OH253575   4.503   1.968  14.781  0.3250  0.5288  0.0190
10695TIP3    H153576   4.478   1.877  14.764 -0.0329  0.4650  0.8448
10695TIP3    H253577   4.528   2.002  14.695 -2.9939  0.7125 -1.0080
10696TIP3   OH253578   1.185   1.785  12.944  0.1635  0.8030 -0.7485
10696TIP3    H153579   1.173   1.795  12.849  0.7925  0.8247 -0.8270
10696TIP3    H253580   1.278   1.800  12.958  0.3305 -0.5753 -0.2946
10697TIP3   OH253581   2.145   5.072   3.725  0.2503 -0.2164 -0.0688
10697TIP3    H153582   2.054   5.055   3.701  0.4114 -2.0846  0.5142
10697TIP3    H253583   2.176   4.990   3.763  1.0763  1.4069  3.1698
10698TIP3   OH253584   1.243   6.335   2.251 -0.4502 -0.3300 -0.2404
10698TIP3    H153585   1.306   6.401   2.221  0.2068 -0.9042 -0.1718
10698TIP3    H253586   1.298   6.265   2.287 -1.1968  0.2067  2.0838
10699TIP3   OH253587   6.651   5.300  13.427 -0.0962  0.4955  0.3140
10699TIP3    H153588   6.704   5.326  13.502 -0.7564  0.6421  0.7356
10699TIP3    H253589   6.584   5.368  13.419 -1.3832 -0.6299  0.9722
10700TIP3   OH253590   0.712   2.932  13.267 -0.8904  0.1272 -0.4458
10700TIP3    H153591   0.771   2.883  13.324 -1.1252  2.1740  1.6985
10700TIP3    H253592   0.768   2.966  13.197 -0.1469 -0.5341 -0.1798
10701TIP3   OH253593   6.001   0.633  16.879 -0.1795  0.5233  0.4488
10701TIP3    H153594   6.023   0.549  16.840 -0.7840  0.5960 -0.0605
10701TIP3    H253595   5.907   0.627  16.898 -0.2084  1.0490  0.4952
10702TIP3   OH253596   5.070   4.029   1.484 -0.3861  0.4468  0.1614
10702TIP3    H153597   5.093   4.114   1.521 -1.1199  1.1753 -0.9856
10702TIP3    H253598   5.127   3.967   1.529  0.1818  1.5405  1.0034
10703TIP3   OH253599   6.219   5.774   5.217 -0.6154  0.0264  0.4863
10703TIP3    H153600   6.164   5.792   5.141 -1.8372  1.4791  1.6510
10703TIP3    H253601   6.291   5.720   5.182 -1.4522  0.1240 -1.5485
10704TIP3   OH253602   1.371   1.513   1.897 -0.1108 -0.1320 -0.3226
10704TIP3    H153603   1.369   1.577   1.826 -2.1849 -0.5559 -0.7193
10704TIP3    H253604   1.362   1.428   1.853 -0.8710 -0.4362  0.3801
10705TIP3   OH253605   6.306   1.063   4.650 -0.6195 -0.6932 -0.1206
10705TIP3    H153606   6.249   1.025   4.716 -0.9321 -0.8456 -0.4744
10705TIP3    H253607   6.364   0.991   4.624  0.4977 -0.2534  1.0417
10706TIP3   OH253608   2.116   1.138  10.685  0.8987 -0.4249  0.0977
10706TIP3    H153609   2.056   1.194  10.636  0.3704 -0.9544  0.1253
10706TIP3    H253610   2.094   1.049  10.657 -0.0988 -0.8206  2.0180
10707TIP3   OH253611   5.652   0.989   4.490 -0.2592  0.5133 -0.1114
10707TIP3    H153612   5.658   0.950   4.403  1.0817  1.0320 -0.2889
10707TIP3    H253613   5.598   1.068   4.477  3.9924  3.5550 -1.7476
10708TIP3   OH253614   0.391   1.659  11.672 -0.1274  0.0015 -0.1250
10708TIP3    H153615   0.403   1.706  11.754  1.3637 -1.7476  0.7496
10708TIP3    H253616   0.453   1.700  11.611 -1.1997  1.2686 -0.3890
10709TIP3   OH253617   2.018   0.425  15.213  0.2385  0.3293 -0.3194
10709TIP3    H153618   1.969   0.491  15.164  1.1636 -0.2350 -2.1048
10709TIP3    H253619   2.103   0.467  15.230  0.3143  0.1132 -0.1704
10710TIP3   OH253620   4.905   2.677  14.158  0.0994  0.0115  0.4815
10710TIP3    H153621   4.854   2.637  14.228  0.5881 -0.8688  0.3503
10710TIP3    H253622   4.941   2.603  14.109 -1.1759  0.5756 -1.4272
10711TIP3   OH253623   1.634   5.286   0.098 -0.0067  0.3364 -0.0527
10711TIP3    H153624   1.667   5.376   0.098  0.2511  0.2537  0.7737
10711TIP3    H253625   1.712   5.232   0.112 -0.5490  0.2065  3.3768
10712TIP3   OH253626   6.256   2.024   4.615  0.3663  0.0682 -0.1691
10712TIP3    H153627   6.327   2.086   4.624 -0.2801  0.8413 -0.2593
10712TIP3    H253628   6.210   2.027   4.698 -1.4342  1.9832 -1.1363
10713TIP3   OH253629   0.252   0.225  14.704 -0.0400 -0.2665 -0.0096
10713TIP3    H153630   0.169   0.267  14.726  0.1171 -0.0343  0.1424
10713TIP3    H253631   0.267   0.248  14.612 -0.4010 -0.7428 -0.1925
10714TIP3   OH253632   2.252   5.341  16.444  0.7597 -0.1850  0.3495
10714TIP3    H153633   2.282   5.349  16.354 -0.6038 -1.3118 -0.2360
10714TIP3    H253634   2.157   5.344  16.439  0.6173 -1.2570  1.6329
10715TIP3   OH253635   1.223   6.738   4.910  0.4846 -0.8461 -0.3619
10715TIP3    H153636   1.183   6.651   4.918  0.6465 -1.0437 -1.5098
10715TIP3    H253637   1.149   6.796   4.892  0.5194 -0.9618 -0.9022
10716TIP3   OH253638   2.364   4.405   2.544 -0.1430 -0.4839 -0.5035
10716TIP3    H153639   2.343   4.497   2.557 -0.5985 -0.3835 -1.8228
10716TIP3    H253640   2.330   4.361   2.622 -0.3545  0.3897 -0.0918
10717TIP3   OH253641   0.363   0.348   3.019 -0.0078  0.5833  0.0015
10717TIP3    H153642   0.355   0.444   3.016 -0.5410  0.5315 -0.7378
10717TIP3    H253643   0.442   0.332   3.070 -0.9644  1.3695  1.8286
10718TIP3   OH253644   2.696   3.794  12.510 -0.0370  0.1444 -0.0827
10718TIP3    H153645   2.777   3.753  12.540  0.3932 -0.4144 -1.8453
10718TIP3    H253646   2.630   3.726  12.518  0.0286  0.0662 -0.2118
10719TIP3   OH253647   4.677   4.056  16.979 -0.2263  0.3924 -0.1776
10719TIP3    H153648   4.611   4.105  17.027 -0.4641 -0.8610  0.8328
10719TIP3    H253649   4.627   3.992  16.929  0.1958 -0.6442  0.6824
10720TIP3   OH253650   0.204   1.026  11.169  0.1686 -0.1873  0.8009
10720TIP3    H153651   0.160   0.947  11.138  1.1951 -0.5921  0.3384
10720TIP3    H253652   0.223   1.008  11.261 -0.1307 -0.2290  0.8563
10721TIP3   OH253653   4.343   5.623   4.998 -0.3962 -0.4808 -0.6131
10721TIP3    H153654   4.286   5.585   4.931 -0.6894 -0.0114 -0.6282
10721TIP3    H253655   4.374   5.705   4.960 -1.7824  0.5589  0.4148
10722TIP3   OH253656   1.677   5.319   3.668 -0.1394  0.1354 -0.4834
10722TIP3    H153657   1.669   5.318   3.764 -1.9742 -0.3896 -0.5952
10722TIP3    H253658   1.754   5.265   3.650  1.2880  1.6614  0.7402
10723TIP3   OH253659   0.557   1.253   5.977  0.0579  0.0741  0.0651
10723TIP3    H153660   0.552   1.308   6.056  3.0035  0.2746  0.2478
10723TIP3    H253661   0.651   1.251   5.956 -0.3889 -1.8622 -2.1213
10724TIP3   OH253662   3.133   3.777   6.190  0.2459 -0.3190 -0.1927
10724TIP3    H153663   3.185   3.785   6.271 -1.3215  1.2543  0.7338
10724TIP3    H253664   3.088   3.693   6.199  0.8369 -0.6133  0.0893
10725TIP3   OH253665   4.688   3.023   2.086 -0.3909  0.0774  0.0502
10725TIP3    H153666   4.624   2.962   2.121  0.3987  0.0895  1.6027
10725TIP3    H253667   4.760   2.966   2.055 -1.1299  0.0567 -1.7589
10726TIP3   OH253668   1.912   2.636  14.268  0.1325  0.7917 -0.3145
10726TIP3    H153669   1.962   2.557  14.289  0.2138  1.1811  1.0705
10726TIP3    H253670   1.953   2.704  14.322 -1.9079  1.1111  0.9290
10727TIP3   OH253671   5.141   2.692   4.304 -0.4564 -0.2540 -0.1938
10727TIP3    H153672   5.177   2.645   4.228  0.7148 -1.7423  1.2174
10727TIP3    H253673   5.179   2.648   4.380 -0.8845  1.7680  1.2720
10728TIP3   OH253674   6.761   2.902  10.824 -0.3824  0.1634 -0.4801
10728TIP3    H153675   6.757   2.934  10.734  0.3432 -0.2938 -0.6810
10728TIP3    H253676   6.678   2.930  10.863 -0.7218  0.3265 -1.2984
10729TIP3   OH253677   2.986   1.461   5.092  0.0672  0.2177  0.2243
10729TIP3    H153678   2.952   1.489   5.007  1.6834 -0.2312 -0.6052
10729TIP3    H253679   2.914   1.479   5.153 -1.2571  0.2531 -1.2672
10730TIP3   OH253680   4.138   4.049   4.963 -0.5441  0.3620  0.0853
10730TIP3    H153681   4.233   4.046   4.975  0.0061  0.7816 -3.2361
10730TIP3    H253682   4.116   4.142   4.969 -0.2479  0.5876 -1.7429
10731TIP3   OH253683   6.684   0.813  10.323  0.6652 -0.0555  0.3510
10731TIP3    H153684   6.778   0.807  10.338  0.3777 -0.8338  2.0984
10731TIP3    H253685   6.668   0.753  10.250  1.2576 -1.7434  1.5381
10732TIP3   OH253686   4.552   6.508   1.129 -0.1173  0.0570 -0.3815
10732TIP3    H153687   4.613   6.580   1.115 -1.4464  1.1851 -0.5944
10732TIP3    H253688   4.503   6.533   1.207 -1.0197 -0.2938 -0.8222
10733TIP3   OH253689   1.751   4.576  15.173 -0.7044  0.0142  0.4305
10733TIP3    H153690   1.674   4.627  15.197 -0.2941  0.3675  1.0270
10733TIP3    H253691   1.810   4.585  15.248 -0.2956 -0.6770  0.1979
10734TIP3   OH253692   6.666   5.006  15.138 -0.4429  0.3382 -0.4929
10734TIP3    H153693   6.761   4.999  15.124 -0.6381  0.0959 -1.8190
10734TIP3    H253694   6.647   4.939  15.204  0.0947 -0.7359 -1.3914
10735TIP3   OH253695   6.752   1.928   4.755  0.1358  0.4942  0.5854
10735TIP3    H153696   6.711   1.968   4.678  0.7611  1.5520  0.7882
10735TIP3    H253697   6.693   1.857   4.779 -0.6322  0.8433 -0.2190
10736TIP3   OH253698   6.632   4.216  13.303 -0.3233  0.1156  0.1599
10736TIP3    H153699   6.655   4.302  13.266  0.3477 -0.8506 -1.8120
10736TIP3    H253700   6.593   4.168  13.230  0.3149 -1.6287  0.9097
10737TIP3   OH253701   1.293   4.057  12.686  0.9012 -0.4277  0.3004
10737TIP3    H153702   1.329   3.993  12.748 -0.3606 -1.9601 -0.4653
10737TIP3    H253703   1.249   4.121  12.742  0.5309 -1.2975  1.0512
10738TIP3   OH253704   2.073   2.491   2.526  0.3027 -0.3615  0.6922
10738TIP3    H153705   2.046   2.402   2.501  0.4974 -0.4831  0.9093
10738TIP3    H253706   2.158   2.479   2.567  0.6480  0.0046  0.1067
10739TIP3   OH253707   3.315   5.391   3.008 -0.5037 -0.2324 -0.4212
10739TIP3    H153708   3.401   5.350   3.020  0.7921  2.5071  0.4410
10739TIP3    H253709   3.296   5.378   2.915  0.2200 -1.9571 -0.3781
10740TIP3   OH253710   0.651   3.938  12.834  0.2638 -0.3591  0.3668
10740TIP3    H153711   0.735   3.952  12.878  1.2939 -0.6651 -1.4070
10740TIP3    H253712   0.674   3.893  12.752 -1.6192 -0.2734 -0.2587
10741TIP3   OH253713   4.660   6.243   0.114  0.1051  0.4991  0.3313
10741TIP3    H153714   4.668   6.334   0.143 -0.8405  0.7290 -0.0824
10741TIP3    H253715   4.579   6.211   0.155  0.1984 -0.0183  0.1252
10742TIP3   OH253716   4.998   2.837   4.826  0.2718  0.1239  0.0247
10742TIP3    H153717   4.944   2.906   4.864  0.0407 -0.8538  1.5907
10742TIP3    H253718   5.001   2.770   4.894  1.7351 -0.7529 -0.8578
10743TIP3   OH253719   2.217   4.135   1.566 -0.1182  0.4141 -0.1019
10743TIP3    H153720   2.122   4.147   1.571  0.0167  2.1573 -0.6976
10743TIP3    H253721   2.249   4.156   1.654 -0.2809 -0.0990  0.0790
10744TIP3   OH253722   2.045   3.617  11.992  0.1865  0.2937 -0.4758
10744TIP3    H153723   2.000   3.650  12.070 -3.3332 -0.4841 -1.9956
10744TIP3    H253724   2.104   3.550  12.025 -1.9938 -0.8048  1.5082
10745TIP3   OH253725   6.268   6.449  14.373 -0.2242  0.0351 -0.1392
10745TIP3    H153726   6.321   6.524  14.345 -1.0786  0.5516 -0.4050
10745TIP3    H253727   6.179   6.470  14.345 -0.4241 -1.2498 -0.5387
10746TIP3   OH253728   3.422   1.253   0.255 -0.3254  0.3154  0.2556
10746TIP3    H153729   3.357   1.287   0.193  0.9978  0.7175 -0.9748
10746TIP3    H253730   3.503   1.298   0.231  0.1178  0.9291  2.6971
10747TIP3   OH253731   2.098   5.039   2.726  0.4204  0.1895  0.5952
10747TIP3    H153732   2.058   5.115   2.766  1.4815  0.7030  0.7282
10747TIP3    H253733   2.068   5.040   2.635  0.6220  0.9097  0.5325
10748TIP3   OH253734   1.803   4.650   6.027 -0.3538  0.2089 -0.1159
10748TIP3    H153735   1.887   4.668   6.070  1.0729 -2.2681 -1.6050
10748TIP3    H253736   1.751   4.606   6.094 -0.0495  0.7571  0.4941
10749TIP3   OH253737   5.120   4.191   5.301 -0.3808 -0.4886  0.0179
10749TIP3    H153738   5.102   4.203   5.208  0.2344 -1.8746 -0.3058
10749TIP3    H253739   5.134   4.096   5.311  0.5829 -0.2403  1.3268
10750TIP3   OH253740   0.500   2.785  11.827 -0.0575  0.0793 -0.3184
10750TIP3    H153741   0.441   2.844  11.781  1.9696  2.6314  0.1066
10750TIP3    H253742   0.536   2.728  11.758  0.4235  1.6067 -1.3742
10751TIP3   OH253743   1.688   1.388   3.639 -0.8368  0.8044  0.1610
10751TIP3    H153744   1.714   1.454   3.574  0.5969  0.7659  0.6513
10751TIP3    H253745   1.685   1.306   3.590  0.4836  0.7312  0.1452
10752TIP3   OH253746   3.509   0.484  11.195  0.1949 -0.1250  0.8585
10752TIP3    H153747   3.588   0.444  11.233  0.6217 -2.0178 -1.6964
10752TIP3    H253748   3.540   0.564  11.154  1.2230 -1.5079 -1.2944
10753TIP3   OH253749   0.666   2.468   6.307  0.0100  0.1954 -0.2939
10753TIP3    H153750   0.705   2.516   6.233 -0.5840 -0.1375 -0.8356
10753TIP3    H253751   0.741   2.428   6.351  0.4737  1.2793 -0.0754
10754TIP3   OH253752   4.355   6.015   0.665  0.8163 -0.0920 -0.6978
10754TIP3    H153753   4.425   5.987   0.724  2.7721  0.7645 -2.4883
10754TIP3    H253754   4.339   6.106   0.688  0.5395 -0.1824 -0.5296
10755TIP3   OH253755   4.355   4.278   0.547  0.4010 -0.1131  0.0573
10755TIP3    H153756   4.363   4.335   0.470 -0.7815 -0.4386 -0.3196
10755TIP3    H253757   4.412   4.204   0.527 -1.1704 -1.0163 -1.2925
10756TIP3   OH253758   4.930   1.379   0.063 -0.0869 -0.1868 -0.9351
10756TIP3    H153759   4.898   1.393   0.152  0.1322  2.3759 -1.1829
10756TIP3    H253760   4.992   1.306   0.071 -1.2197 -1.0406  0.6786
10757TIP3   OH253761   1.098   1.471  10.681  0.6325  0.3232 -0.8248
10757TIP3    H153762   1.020   1.421  10.703 -1.0013  1.8573 -2.8194
10757TIP3    H253763   1.170   1.407  10.689 -0.9867 -1.5504 -0.4660
10758TIP3   OH253764   3.989   3.604   1.070 -0.1883  0.1228 -0.4437
10758TIP3    H153765   3.928   3.676   1.054  0.4509  0.6220 -0.6410
10758TIP3    H253766   4.048   3.637   1.138  1.0071  0.3336 -1.5590
10759TIP3   OH253767   2.510   1.754  11.717 -0.0408 -0.0333 -0.1222
10759TIP3    H153768   2.591   1.799  11.740  1.3659 -1.6886 -1.5420
10759TIP3    H253769   2.479   1.798  11.637 -1.1083  1.1898  0.9146
10760TIP3   OH253770   2.336   5.151  14.115 -0.1704 -0.4274 -0.0399
10760TIP3    H153771   2.381   5.146  14.200  0.7026 -0.3175 -0.4854
10760TIP3    H253772   2.295   5.237  14.116  0.8303  0.0697 -0.1984
10761TIP3   OH253773   0.672   0.235  13.783  0.0973  0.8295 -0.2055
10761TIP3    H153774   0.698   0.328  13.783  1.2357  0.5283 -0.2229
10761TIP3    H253775   0.624   0.224  13.865  2.2211  0.8665  1.1264
10762TIP3   OH253776   5.461   3.251   0.224 -0.1608  0.2039  0.2912
10762TIP3    H153777   5.547   3.208   0.234 -0.3025 -0.1121  0.1765
10762TIP3    H253778   5.398   3.178   0.224 -0.3767  0.3857 -0.2369
10763TIP3   OH253779   2.757   3.114   1.394  0.5138 -0.0451 -0.2198
10763TIP3    H153780   2.684   3.175   1.401  0.2143 -0.4837  0.6095
10763TIP3    H253781   2.762   3.092   1.301  1.2891  2.0323 -0.7277
10764TIP3   OH253782   1.251   6.048   1.094 -0.0261 -0.4378  1.1311
10764TIP3    H153783   1.244   5.976   1.157 -0.9106 -0.8720  0.5651
10764TIP3    H253784   1.268   6.004   1.010 -0.4819  0.0122  0.7965
10765TIP3   OH253785   2.243   1.029   2.273  0.1460  0.2583  0.1570
10765TIP3    H153786   2.209   0.964   2.334  0.3980  0.0558  0.0810
10765TIP3    H253787   2.207   1.112   2.304 -2.2867 -0.1823 -1.2039
10766TIP3   OH253788   0.286   4.932  15.637 -0.2191 -0.0070 -0.0522
10766TIP3    H153789   0.310   4.929  15.544  0.8242  3.6082 -0.0624
10766TIP3    H253790   0.308   4.845  15.670 -0.2779 -1.3082 -3.0705
10767TIP3   OH253791   0.003   0.652  13.688  0.1643 -0.1039 -0.6103
10767TIP3    H153792  -0.089   0.680  13.688 -0.2224 -1.2695  0.7766
10767TIP3    H253793   0.044   0.705  13.757  0.1031 -0.8374  0.0017
10768TIP3   OH253794   0.859   2.128   0.334 -0.7329 -0.9149  0.1219
10768TIP3    H153795   0.919   2.054   0.326  0.7961  0.1613  1.0585
10768TIP3    H253796   0.829   2.124   0.425  0.8602  0.6297  0.7868
10769TIP3   OH253797   0.625   0.249  14.246  0.3844 -0.2487  0.0187
10769TIP3    H153798   0.676   0.169  14.261 -0.9589 -1.0066  0.6992
10769TIP3    H253799   0.623   0.293  14.331  0.3330  0.0397 -0.1292
10770TIP3   OH253800   6.638   1.212  12.502 -0.0366 -0.2145  0.1977
10770TIP3    H153801   6.593   1.147  12.450 -0.2018  0.0439  0.0150
10770TIP3    H253802   6.684   1.162  12.570 -0.6604 -0.4719  0.4381
10771TIP3   OH253803   3.222   4.336  16.556 -0.4010  0.1126 -0.2431
10771TIP3    H153804   3.313   4.362  16.574 -0.8003  1.8151 -0.5871
10771TIP3    H253805   3.229   4.277  16.481  0.4119  0.3814 -0.3898
10772TIP3   OH253806   5.249   0.814  13.700 -0.3020  0.2229  0.1290
10772TIP3    H153807   5.290   0.859  13.774  0.2252 -0.2003  0.0987
10772TIP3    H253808   5.251   0.879  13.629 -1.3094  0.8226  0.6303
10773TIP3   OH253809   5.617   4.041  14.450 -0.7449 -0.1354 -0.0997
10773TIP3    H153810   5.552   3.997  14.395 -2.6157  1.1178  0.9762
10773TIP3    H253811   5.570   4.117  14.486  2.2317  2.8068 -1.8040
10774TIP3   OH253812   0.952   3.808   0.806 -0.4202  0.3384 -0.0738
10774TIP3    H153813   0.947   3.837   0.897  2.9521  0.5068  0.1964
10774TIP3    H253814   1.001   3.726   0.810  0.1733  0.5735 -1.7438
10775TIP3   OH253815   1.205   5.495   1.914 -0.4106 -0.0311  0.0769
10775TIP3    H153816   1.207   5.404   1.885 -2.3262 -0.7215  1.8736
10775TIP3    H253817   1.190   5.490   2.008 -1.2900  2.1553  0.1114
10776TIP3   OH253818   5.924   0.103   2.898 -0.0645  0.5442 -0.4703
10776TIP3    H153819   5.864   0.062   2.959 -0.6657 -0.3352 -1.6144
10776TIP3    H253820   6.008   0.060   2.915 -0.0255  0.8917  0.2752
10777TIP3   OH253821   3.503   4.940   1.904 -0.3488  0.2773 -0.7347
10777TIP3    H153822   3.422   4.896   1.881 -1.0303  1.8638 -1.5092
10777TIP3    H253823   3.550   4.950   1.821  0.1658  0.3170 -0.4487
10778TIP3   OH253824   6.342   2.285  15.118 -0.2878 -0.1565  0.1470
10778TIP3    H153825   6.250   2.304  15.138 -0.4182  1.7467 -1.8976
10778TIP3    H253826   6.390   2.354  15.165 -0.1849  0.8243 -1.3513
10779TIP3   OH253827   1.328   5.592  17.092 -0.3797  0.0671 -0.2208
10779TIP3    H153828   1.396   5.621  17.030  0.6720 -0.0116  0.8609
10779TIP3    H253829   1.365   5.514  17.132 -1.3163 -0.2329  0.0784
10780TIP3   OH253830   4.770   4.847   3.797  0.2655 -0.0954 -0.9863
10780TIP3    H153831   4.748   4.757   3.823 -0.0190 -0.0860 -1.1899
10780TIP3    H253832   4.697   4.900   3.830  0.3369  0.0351 -1.0382
10781TIP3   OH253833   4.691   4.268   2.010  0.1166 -0.1046  0.6282
10781TIP3    H153834   4.607   4.267   2.055  0.5261 -0.2512  1.4145
10781TIP3    H253835   4.755   4.248   2.079  0.8245  0.3793  0.1232
10782TIP3   OH253836   2.350   6.392  14.472  0.1104  0.0432  0.4257
10782TIP3    H153837   2.406   6.361  14.543  1.5502 -0.0084 -0.6719
10782TIP3    H253838   2.343   6.486  14.486 -0.2158 -0.0655  1.0239
10783TIP3   OH253839   4.453   5.961  14.483  0.2859 -0.2024 -0.5862
10783TIP3    H153840   4.488   6.040  14.526  0.4296 -1.7858  2.4987
10783TIP3    H253841   4.526   5.899  14.484 -0.2081 -0.8272 -1.7393
10784TIP3   OH253842   2.034   6.239  12.893  0.7959  0.9266 -0.0902
10784TIP3    H153843   2.072   6.165  12.845 -0.3063  1.0672 -1.2436
10784TIP3    H253844   2.046   6.313  12.834 -1.2190  0.9711 -0.5124
10785TIP3   OH253845   2.250   2.332   1.201 -0.2309 -0.2335 -0.6132
10785TIP3    H153846   2.293   2.274   1.264 -1.4123 -0.6681 -0.1712
10785TIP3    H253847   2.321   2.383   1.163  0.7211 -1.2581 -0.2655
10786TIP3   OH253848   2.164   3.454  16.906  0.2788 -0.2737 -0.0037
10786TIP3    H153849   2.172   3.428  16.814 -0.4827 -2.6045  0.5099
10786TIP3    H253850   2.071   3.444  16.926 -0.0571  2.7908  0.3858
10787TIP3   OH253851   2.255   1.882   1.441 -0.3379  0.2473  0.0962
10787TIP3    H153852   2.264   1.919   1.529 -0.6701 -0.0723  0.2665
10787TIP3    H253853   2.179   1.824   1.447  1.6113 -2.4456  0.5064
10788TIP3   OH253854   5.631   2.189  13.531 -0.3697  0.0314 -0.3632
10788TIP3    H153855   5.566   2.207  13.599  0.0420  2.5972 -0.5577
10788TIP3    H253856   5.716   2.202  13.575 -0.0864  0.8157 -1.1325
10789TIP3   OH253857   4.465   1.078   6.203  0.3034 -0.5163 -0.5349
10789TIP3    H153858   4.483   0.991   6.168  0.9266  0.4459 -2.8423
10789TIP3    H253859   4.551   1.117   6.215  0.0465 -0.3458  0.9381
10790TIP3   OH253860   6.562   2.285  17.123 -0.1772  0.1694  0.1046
10790TIP3    H153861   6.548   2.359  17.181 -0.1771 -0.0947  0.4460
10790TIP3    H253862   6.647   2.250  17.149 -0.1525  0.0829 -0.0896
10791TIP3   OH253863   4.146   5.210  15.987  0.4491  0.3386  0.0260
10791TIP3    H153864   4.233   5.209  16.026  0.3979 -0.5413  0.1183
10791TIP3    H253865   4.103   5.285  16.028  1.8415  2.1311 -1.5772
10792TIP3   OH253866   3.533   3.007   2.934 -0.1688  0.3061 -0.0320
10792TIP3    H153867   3.548   3.065   3.009  2.8958  0.2274 -0.4557
10792TIP3    H253868   3.471   3.055   2.879 -0.4362  1.5645  1.2879
10793TIP3   OH253869   1.921   0.272   2.483  0.0503  0.1223 -0.2768
10793TIP3    H153870   1.939   0.324   2.561  3.5738 -1.7460  0.3673
10793TIP3    H253871   1.847   0.216   2.507  0.7511 -0.0648  1.5970
10794TIP3   OH253872   5.794   4.306  14.219  0.5270  0.2692 -0.0891
10794TIP3    H153873   5.703   4.320  14.195  0.4098 -1.5653 -0.8814
10794TIP3    H253874   5.800   4.335  14.310 -1.6720 -2.3721  1.0567
10795TIP3   OH253875   1.381   1.121  15.257 -0.0687  0.3223 -0.1080
10795TIP3    H153876   1.347   1.045  15.209  0.6736 -0.2666  0.2732
10795TIP3    H253877   1.408   1.182  15.188 -0.7939  0.3087 -0.4198
10796TIP3   OH253878   2.354   4.563  12.688 -0.6938  0.3954 -0.3556
10796TIP3    H153879   2.342   4.475  12.652  0.5856 -0.2089  0.6101
10796TIP3    H253880   2.428   4.599  12.639 -0.2151  0.3164  0.2858
10797TIP3   OH253881   5.023   1.398   4.792 -0.3555  0.1804 -0.3320
10797TIP3    H153882   5.032   1.487   4.759 -0.7619 -0.2123 -1.5778
10797TIP3    H253883   5.098   1.386   4.850  0.2692  1.0099 -0.9332
10798TIP3   OH253884   5.435   6.538   3.360  0.3673  0.0033 -0.2254
10798TIP3    H153885   5.431   6.575   3.272 -0.7156  1.4561  0.3758
10798TIP3    H253886   5.519   6.567   3.395 -0.1039  1.2835 -0.0666
10799TIP3   OH253887   6.098   2.298  14.745  0.8993  0.3082  0.3222
10799TIP3    H153888   6.165   2.365  14.732 -1.1555  2.4142 -0.0365
10799TIP3    H253889   6.059   2.287  14.658 -0.2634  0.2932  0.8405
10800TIP3   OH253890   5.071   0.117  10.454  0.0264 -0.1750  0.3815
10800TIP3    H153891   5.058   0.189  10.392  1.3646 -1.5246 -1.5953
10800TIP3    H253892   5.133   0.151  10.518  2.3158 -0.1371 -1.7226
10801TIP3   OH253893   5.673   5.603  11.358 -0.4892  0.0347  0.0093
10801TIP3    H153894   5.686   5.658  11.281  0.8662 -0.1645  0.0572
10801TIP3    H253895   5.731   5.640  11.424 -1.0625 -0.2568  0.6864
10802TIP3   OH253896   0.058   4.978   5.960  0.2982  0.5715 -0.0044
10802TIP3    H153897   0.018   4.996   6.045 -1.9440 -1.7142 -0.4428
10802TIP3    H253898   0.023   5.047   5.902 -1.5581 -0.2301  0.0768
10803TIP3   OH253899   0.077   5.873   2.372 -0.2859 -0.0233 -0.4188
10803TIP3    H153900   0.003   5.932   2.357 -1.1703 -1.1444 -0.7012
10803TIP3    H253901   0.051   5.822   2.449  0.1128 -0.5271 -0.6124
10804TIP3   OH253902   3.792   3.680   4.732 -0.3938  0.0226 -0.3063
10804TIP3    H153903   3.799   3.774   4.751  0.6436  0.4768 -2.5785
10804TIP3    H253904   3.698   3.662   4.733 -0.5438  0.3551  2.9872
10805TIP3   OH253905   4.207   0.208   2.785  0.3548  0.0069  0.1199
10805TIP3    H153906   4.274   0.154   2.742 -0.0906  1.7713 -3.0550
10805TIP3    H253907   4.252   0.290   2.806 -0.6913  1.1836 -1.9781
10806TIP3   OH253908   1.142   3.762  15.248  0.5070  0.0185 -0.1739
10806TIP3    H153909   1.064   3.711  15.266  0.8970 -1.2596 -1.8183
10806TIP3    H253910   1.144   3.828  15.317 -0.5564 -1.5539  1.4515
10807TIP3   OH253911   2.872   0.299   1.879 -0.1554  0.6787  0.6528
10807TIP3    H153912   2.816   0.373   1.855 -3.0836 -2.2368 -2.7136
10807TIP3    H253913   2.950   0.309   1.824 -0.9299  0.8873 -0.4543
10808TIP3   OH253914   2.792   1.098   6.516 -0.5803  0.0129 -0.6139
10808TIP3    H153915   2.701   1.081   6.491 -0.9874 -0.8159  1.2591
10808TIP3    H253916   2.845   1.056   6.449 -1.5967 -1.0585 -0.7613
10809TIP3   OH253917   3.925   4.549   5.628  0.3046  0.3935 -0.1691
10809TIP3    H153918   3.937   4.643   5.634 -1.8430  0.6450  2.5080
10809TIP3    H253919   3.998   4.512   5.678  0.9689  0.6534 -0.9470
10810TIP3   OH253920   6.822   3.833  16.973  0.6614  0.1779 -0.1750
10810TIP3    H153921   6.746   3.888  16.989 -0.0856 -0.0135 -2.6454
10810TIP3    H253922   6.892   3.894  16.949  0.8154  0.2450  0.4295
10811TIP3   OH253923   0.483   1.337   2.038 -0.1783  0.0897  0.1261
10811TIP3    H153924   0.518   1.365   1.953 -0.4536 -1.1085 -0.4116
10811TIP3    H253925   0.505   1.244   2.043  0.5829  0.3263  1.7665
10812TIP3   OH253926   6.593   4.502  15.377 -0.4811  0.2438  0.1127
10812TIP3    H153927   6.553   4.415  15.370 -0.9029  0.3432  1.1066
10812TIP3    H253928   6.546   4.544  15.448  0.9281  0.6350  0.8505
10813TIP3   OH253929   5.291   6.760  12.876  0.3512 -0.1196  0.1351
10813TIP3    H153930   5.315   6.776  12.785  0.6432 -0.3395  0.1726
10813TIP3    H253931   5.373   6.765  12.925  0.0634  1.0355  0.5452
10814TIP3   OH253932   1.133   0.124  14.463  0.1682  0.3919  0.2664
10814TIP3    H153933   1.140   0.186  14.535 -0.1282  0.4877  0.2149
10814TIP3    H253934   1.115   0.178  14.386 -0.0275  0.2514  0.2096
10815TIP3   OH253935   0.113   4.846   0.032  0.1307  0.1829 -0.0558
10815TIP3    H153936   0.080   4.844  -0.057  0.5479  2.8124 -0.3411
10815TIP3    H253937   0.199   4.804   0.027 -0.3607 -0.7872 -0.6088
10816TIP3   OH253938   6.638   4.489   2.068 -0.4566  0.5939  0.2972
10816TIP3    H153939   6.660   4.542   2.145 -2.0288  0.7170  0.6886
10816TIP3    H253940   6.626   4.553   1.998  2.7834  0.3920 -0.6129
10817TIP3   OH253941   0.244   3.365   4.281  0.0484  0.1245  0.1049
10817TIP3    H153942   0.298   3.422   4.226  1.1789 -0.6363  0.3748
10817TIP3    H253943   0.214   3.421   4.352 -0.5743  0.8696 -0.7176
10818TIP3   OH253944   4.446   2.699   1.521  0.6316 -0.2870 -0.2230
10818TIP3    H153945   4.525   2.669   1.475  0.5770 -0.9130  0.0814
10818TIP3    H253946   4.464   2.791   1.541  0.5688  0.0827 -1.6964
10819TIP3   OH253947   1.922   2.269  10.929 -0.2928 -0.2709 -0.2994
10819TIP3    H153948   1.875   2.274  10.846  0.5682 -1.8773 -0.9112
10819TIP3    H253949   1.986   2.340  10.924 -0.9194  0.2927 -0.5459
10820TIP3   OH253950   2.222   6.246   2.544  0.6192  0.1722 -0.0598
10820TIP3    H153951   2.187   6.281   2.626 -0.1706 -1.5549  0.3866
10820TIP3    H253952   2.279   6.173   2.572  2.6345  1.3453 -0.9159
10821TIP3   OH253953   5.733   2.892   3.357 -0.3593  0.6002 -0.0281
10821TIP3    H153954   5.696   2.816   3.313 -0.5833  0.1517  0.9243
10821TIP3    H253955   5.730   2.961   3.291 -2.4636  0.4662 -0.1429
10822TIP3   OH253956   2.813   3.420   2.733 -0.0895  0.2215  0.3996
10822TIP3    H153957   2.837   3.494   2.789  0.5736  0.3639 -0.0553
10822TIP3    H253958   2.718   3.413   2.741 -0.1535  1.0957  0.4893
10823TIP3   OH253959   1.621   3.864  11.977 -0.2488 -0.5523  0.4033
10823TIP3    H153960   1.676   3.904  12.045  0.2901 -1.6056  0.6034
10823TIP3    H253961   1.681   3.811  11.925 -0.8975 -0.8683 -0.0387
10824TIP3   OH253962   6.069   3.535  13.213  0.1740  0.5720  0.4863
10824TIP3    H153963   6.141   3.514  13.274  0.5452  0.3108 -0.0342
10824TIP3    H253964   6.042   3.450  13.178 -0.9648  0.5761  1.2992
10825TIP3   OH253965   2.091   4.655   2.580 -0.1899  0.4492  0.5163
10825TIP3    H153966   2.023   4.724   2.579  0.3795  1.0939 -2.2050
10825TIP3    H253967   2.042   4.573   2.575 -0.8469  0.8637 -0.2218
10826TIP3   OH253968   2.365   2.967  15.553 -0.2828 -0.3747  0.1706
10826TIP3    H153969   2.434   2.913  15.514 -0.2237  0.8002 -1.5006
10826TIP3    H253970   2.300   2.976  15.484 -0.1641  1.8349  0.2570
10827TIP3   OH253971   2.940   2.010   0.939 -0.3134  0.2185 -0.0722
10827TIP3    H153972   2.923   1.945   1.008 -0.9282  0.7586  0.2943
10827TIP3    H253973   3.029   1.991   0.911 -0.0164  0.0308  0.9298
10828TIP3   OH253974   6.087   0.194   0.993  0.6288  0.1339 -0.0055
10828TIP3    H153975   6.152   0.178   0.924 -2.0340  1.7050 -3.1207
10828TIP3    H253976   6.114   0.277   1.032  0.0644  1.2731 -1.9372
10829TIP3   OH253977   5.207   1.544  13.193  0.1778  0.1052  0.4735
10829TIP3    H153978   5.252   1.504  13.268  1.9869  0.7492 -0.2175
10829TIP3    H253979   5.192   1.635  13.219  0.3986  0.2128  0.2274
10830TIP3   OH253980   5.862   4.935  16.012  0.2875  0.0700 -0.0631
10830TIP3    H153981   5.818   4.862  16.055  0.0414 -0.6864 -1.5339
10830TIP3    H253982   5.804   4.959  15.939  1.9127 -0.4944 -1.6214
10831TIP3   OH253983   1.236   4.723   3.899 -0.0362 -0.3694 -0.2196
10831TIP3    H153984   1.177   4.686   3.965  0.6561 -1.6747 -0.3053
10831TIP3    H253985   1.189   4.712   3.816  0.6141 -2.1140 -0.3862
10832TIP3   OH253986   2.316   1.035   0.753 -0.1780 -0.4242  0.1091
10832TIP3    H153987   2.271   1.008   0.833  1.4613  0.1030  1.2520
10832TIP3    H253988   2.402   0.994   0.758 -0.2544 -0.9325 -1.7357
10833TIP3   OH253989   5.869   2.754  15.665  0.2161 -0.0295 -0.2456
10833TIP3    H153990   5.852   2.660  15.660  3.9028 -1.0305  2.1563
10833TIP3    H253991   5.894   2.778  15.576 -1.9078 -0.9579 -1.1663
10834TIP3   OH253992   1.677   4.829  13.405 -0.3420  0.4344 -0.1332
10834TIP3    H153993   1.689   4.859  13.495 -0.6064  0.8298 -0.2215
10834TIP3    H253994   1.602   4.880  13.373 -1.2933 -0.8705 -0.0560
10835TIP3   OH253995   0.272   3.857  12.377  0.4277  0.4968  0.1375
10835TIP3    H153996   0.205   3.794  12.350  1.1057 -0.1293 -0.1125
10835TIP3    H253997   0.353   3.806  12.380  0.7812  1.0959  1.0883
10836TIP3   OH253998   4.989   6.029  11.765  0.5795  0.7050  0.1185
10836TIP3    H153999   5.066   6.052  11.711  0.8604 -0.0869  0.1697
10836TIP3    H254000   5.001   6.079  11.846 -1.0226  3.7723 -1.3541
10837TIP3   OH254001   5.759   4.111  11.308 -0.1668  0.2600  0.2106
10837TIP3    H154002   5.696   4.101  11.379  0.4344 -1.6299  0.5570
10837TIP3    H254003   5.815   4.183  11.335 -0.8319  0.5122  0.9471
10838TIP3   OH254004   2.093   2.468   4.212  0.2420  0.5464 -0.1100
10838TIP3    H154005   2.155   2.399   4.236 -1.3456 -1.3381 -1.1655
10838TIP3    H254006   2.135   2.549   4.240  1.7614 -0.9005  2.0962
10839TIP3   OH254007   1.711   5.309   1.450 -0.0394 -0.2320 -0.7736
10839TIP3    H154008   1.679   5.399   1.449 -0.4915 -0.3527  0.7112
10839TIP3    H254009   1.800   5.315   1.414  0.3755  0.9984  0.3727
10840TIP3   OH254010   0.626   3.844  14.473 -0.3685  0.0765  0.3070
10840TIP3    H154011   0.540   3.813  14.502 -0.2908 -2.3398 -1.6794
10840TIP3    H254012   0.606   3.913  14.410 -0.8274  0.1980  0.5809
10841TIP3   OH254013   1.145   1.778   5.071  0.1341 -0.2719  0.0985
10841TIP3    H154014   1.057   1.807   5.094  0.4921  0.1378  0.9972
10841TIP3    H254015   1.134   1.686   5.046 -0.8520  0.3245 -1.7783
10842TIP3   OH254016   6.817   3.690   0.741  0.2998 -0.2253 -0.0669
10842TIP3    H154017   6.889   3.645   0.697 -0.3762 -0.7733 -0.6493
10842TIP3    H254018   6.741   3.674   0.685 -0.8342 -1.8806  1.8031
10843TIP3   OH254019   1.844   3.830  11.242 -0.6193  0.0993  0.0029
10843TIP3    H154020   1.893   3.773  11.182 -1.5808 -0.6921 -0.0506
10843TIP3    H254021   1.873   3.802  11.329 -1.4948 -0.8696 -0.0041
10844TIP3   OH254022   5.180   2.264   5.458 -0.4853  0.3478 -0.1339
10844TIP3    H154023   5.114   2.301   5.399  0.3437  1.8308 -0.1688
10844TIP3    H254024   5.176   2.319   5.536  0.1760 -0.0369  0.1784
10845TIP3   OH254025   0.878   4.968  11.769  0.5113 -0.1346  0.1949
10845TIP3    H154026   0.892   4.887  11.818 -0.9431 -0.1737  0.6041
10845TIP3    H254027   0.937   4.962  11.694  1.3319 -0.9836  0.8895
10846TIP3   OH254028   6.715   1.342   2.663 -0.0275 -0.0544 -0.3464
10846TIP3    H154029   6.704   1.420   2.608  1.2698  0.2846 -0.1575
10846TIP3    H254030   6.804   1.312   2.644  0.2409 -0.2680  1.1440
10847TIP3   OH254031   1.960   5.351   5.389  0.3707  0.2703  0.0154
10847TIP3    H154032   2.042   5.338   5.438  0.0886 -1.5300  0.0707
10847TIP3    H254033   1.907   5.274   5.410 -0.7766  0.7030 -1.1550
10848TIP3   OH254034   5.727   1.408  11.170 -0.1156 -0.4117  0.4648
10848TIP3    H154035   5.673   1.398  11.248  0.4664  0.5342  1.0014
10848TIP3    H254036   5.664   1.412  11.098 -0.8317  1.2809  1.1369
10849TIP3   OH254037   1.642   5.487  11.666  0.0715  0.2531  0.1548
10849TIP3    H154038   1.552   5.462  11.648  0.3130 -0.3149 -0.2894
10849TIP3    H254039   1.671   5.427  11.735  0.7820 -1.0173 -1.1970
10850TIP3   OH254040   0.062   0.424   1.144 -0.5411 -0.6417 -0.2766
10850TIP3    H154041   0.100   0.397   1.060  1.0958 -1.2145  0.5971
10850TIP3    H254042   0.091   0.356   1.205  0.6098  1.1579  1.2898
10851TIP3   OH254043   5.080   2.895  12.290 -0.0505 -0.1969 -0.4531
10851TIP3    H154044   5.125   2.956  12.348 -1.2755  0.5961 -0.3110
10851TIP3    H254045   5.117   2.914  12.203  1.3534 -0.9821 -0.0614
10852TIP3   OH254046   2.664   4.358  12.392  0.2252 -0.3143 -0.1343
10852TIP3    H154047   2.622   4.433  12.351 -0.4842  0.7849  2.3957
10852TIP3    H254048   2.754   4.360  12.359 -0.0687  0.9995 -0.9354
10853TIP3   OH254049   4.666   3.066  11.348  0.1563 -0.4358  0.4735
10853TIP3    H154050   4.742   3.094  11.400  1.2932  0.0650 -1.3925
10853TIP3    H254051   4.678   2.971  11.339  1.4245 -0.1646 -1.0699
10854TIP3   OH254052   6.043   4.039  11.000 -0.0376 -0.3545  0.2885
10854TIP3    H154053   6.013   4.042  10.909 -0.7572  0.9042  0.5357
10854TIP3    H254054   6.023   4.126  11.035  1.0489 -0.5162  1.4031
10855TIP3   OH254055   2.589   1.376   5.296  0.1274 -0.1207 -0.1392
10855TIP3    H154056   2.682   1.373   5.319  0.2097 -0.0200 -0.4578
10855TIP3    H254057   2.582   1.322   5.217 -0.0633 -0.0285 -0.1860
10856TIP3   OH254058   0.699   0.532  11.071  0.1167 -0.7215 -0.0281
10856TIP3    H154059   0.608   0.520  11.097 -0.1489  1.6351  0.3689
10856TIP3    H254060   0.696   0.601  11.005  1.6328 -0.4867  0.1036
10857TIP3   OH254061   5.001   1.107   5.056  0.0484 -0.2353 -0.4528
10857TIP3    H154062   4.980   1.027   5.103  0.7842  0.0628  0.4100
10857TIP3    H254063   5.032   1.168   5.123  1.5161  0.0635 -1.3411
10858TIP3   OH254064   5.101   5.877   2.091  0.1858  0.6486  0.1154
10858TIP3    H154065   5.152   5.958   2.098 -0.6149  1.2169 -0.5725
10858TIP3    H254066   5.166   5.809   2.073  0.6903  1.3869 -0.8838
10859TIP3   OH254067   5.297   2.396  13.645  0.2675 -0.3404 -0.1264
10859TIP3    H154068   5.349   2.457  13.698  0.6725 -0.0459 -0.8540
10859TIP3    H254069   5.294   2.436  13.558 -1.2539 -0.3166 -0.0898
10860TIP3   OH254070   5.668   4.434  15.496 -0.3252 -0.2679 -0.1249
10860TIP3    H154071   5.671   4.353  15.445  2.1078  0.7704 -1.8615
10860TIP3    H254072   5.758   4.467  15.493 -1.4303  3.1066 -0.5356
10861TIP3   OH254073   3.647   6.205   0.387  0.0321  0.6329  0.1541
10861TIP3    H154074   3.577   6.257   0.347 -0.6314  0.4951  1.1077
10861TIP3    H254075   3.721   6.265   0.392 -1.0131  1.8733  2.1527
10862TIP3   OH254076   4.034   3.757   3.108 -0.0150 -0.2470  0.0721
10862TIP3    H154077   4.129   3.760   3.096 -0.2465  1.4039 -1.7380
10862TIP3    H254078   3.998   3.778   3.022 -2.0629 -1.5169  0.5466
10863TIP3   OH254079   5.098   6.113   1.344  0.1212  0.3064 -0.0792
10863TIP3    H154080   5.073   6.026   1.376 -0.1949 -0.1102 -1.4273
10863TIP3    H254081   5.183   6.129   1.384 -0.0237 -0.4120  0.5567
10864TIP3   OH254082   4.501   4.554  16.404 -0.2893  0.4989 -0.2715
10864TIP3    H154083   4.547   4.629  16.441 -2.5015  1.0672  1.5426
10864TIP3    H254084   4.524   4.555  16.311  2.0209  1.6436  0.2412
10865TIP3   OH254085   0.306   6.334   4.079  0.6155  0.2363 -0.4173
10865TIP3    H154086   0.370   6.276   4.120  0.4059 -0.9907 -1.7492
10865TIP3    H254087   0.226   6.281   4.075 -0.6165  1.8003  1.4128
10866TIP3   OH254088   4.343   4.258  13.094 -0.3891 -0.1392 -0.4936
10866TIP3    H154089   4.293   4.330  13.055  0.7439 -0.4516 -2.6543
10866TIP3    H254090   4.409   4.237  13.029  1.3048 -1.0835  1.4255
10867TIP3   OH254091   6.654   3.947   1.749  0.7395  0.2337  0.0297
10867TIP3    H154092   6.710   3.870   1.747 -0.0973 -0.3714 -0.6452
10867TIP3    H254093   6.572   3.919   1.709  1.1047  1.9964 -2.1954
10868TIP3   OH254094   6.507   3.597   0.274  0.1266  0.0108 -0.4795
10868TIP3    H154095   6.423   3.635   0.300 -0.6976 -1.0858 -1.3898
10868TIP3    H254096   6.533   3.647   0.197  1.4120  1.7409  1.0024
10869TIP3   OH254097   4.308   1.734  11.791 -0.1512 -0.5733  0.1311
10869TIP3    H154098   4.218   1.765  11.802  0.0016 -0.3200  0.7120
10869TIP3    H254099   4.362   1.799  11.837  0.1792 -1.6799  1.3920
10870TIP3   OH254100   6.820   5.749  16.954 -0.1904  0.0273 -0.1168
10870TIP3    H154101   6.752   5.723  16.893 -1.1502  0.2092  0.8533
10870TIP3    H254102   6.894   5.692  16.933 -0.4050  0.2503 -1.5988
10871TIP3   OH254103   5.229   4.628  15.524 -0.2191 -0.2359  0.4500
10871TIP3    H154104   5.244   4.625  15.430  0.4945  0.0573  0.5461
10871TIP3    H254105   5.313   4.604  15.563 -0.4241 -0.0631  1.0112
10872TIP3   OH254106   2.919   2.536  12.327 -0.1306 -0.0615  0.3059
10872TIP3    H154107   2.830   2.510  12.304 -0.0595  0.2297 -0.2898
10872TIP3    H254108   2.929   2.624  12.291  0.4198 -0.1198  0.3137
10873TIP3   OH254109   5.848   0.397  10.684  0.3209 -0.4101  0.1785
10873TIP3    H154110   5.923   0.426  10.735 -0.7980  0.2221  1.5104
10873TIP3    H254111   5.859   0.302  10.678  0.3522 -0.5418  1.8518
10874TIP3   OH254112   6.086   3.721  15.995 -0.0034  0.5818 -0.0421
10874TIP3    H154113   6.056   3.791  16.053  1.1185  0.4598  0.7208
10874TIP3    H254114   6.082   3.760  15.907  1.4153  1.9337  0.4547
10875TIP3   OH254115   3.767   3.120   3.919  0.2516 -0.1724  0.2617
10875TIP3    H154116   3.729   3.037   3.946 -0.0411  0.1589  0.8988
10875TIP3    H254117   3.775   3.170   4.000  1.7855 -0.1270  0.1097
10876TIP3   OH254118   0.912   1.505  13.033  0.1454  0.5790  0.0423
10876TIP3    H154119   0.819   1.505  13.009 -0.1105  2.0275  0.8722
10876TIP3    H254120   0.921   1.431  13.093 -0.3259  0.0370 -0.5451
10877TIP3   OH254121   5.594   2.606  15.581  0.0960  0.0362  0.1853
10877TIP3    H154122   5.544   2.598  15.663 -0.5010  0.9844 -0.0727
10877TIP3    H254123   5.678   2.564  15.600 -0.0880  0.1209  1.2461
10878TIP3   OH254124   0.677   4.153   1.582 -0.3274  0.1562 -0.0066
10878TIP3    H154125   0.761   4.196   1.596 -0.7077  1.2279 -0.8721
10878TIP3    H254126   0.658   4.167   1.489  0.1226 -2.9849 -0.7045
10879TIP3   OH254127   5.088   5.472   1.875  0.8514 -0.2467 -0.1118
10879TIP3    H154128   5.116   5.454   1.965 -1.0511 -2.3818  0.1340
10879TIP3    H254129   5.083   5.567   1.870 -1.2389 -0.0645  2.8433
10880TIP3   OH254130   5.846   0.829  14.800 -0.3633 -0.2944 -0.2004
10880TIP3    H154131   5.843   0.912  14.849  0.6665 -0.0298 -0.5572
10880TIP3    H254132   5.841   0.856  14.708 -0.4959 -0.6662 -0.3031
10881TIP3   OH254133   4.065   2.729  10.861  0.2857  0.0969 -0.5089
10881TIP3    H154134   4.026   2.670  10.926 -0.8856  1.1518 -0.2202
10881TIP3    H254135   4.008   2.723  10.785  0.6144  0.2546 -0.7706
10882TIP3   OH254136   5.228   6.602  12.538  0.1521 -0.6858 -0.4045
10882TIP3    H154137   5.217   6.696  12.554 -1.0843 -0.9065  0.2305
10882TIP3    H254138   5.306   6.596  12.484  1.1094  0.6014  0.7313
10883TIP3   OH254139   3.463   3.676   1.523 -0.5797 -0.1856 -0.2810
10883TIP3    H154140   3.370   3.651   1.525 -0.6023 -0.0402  0.6625
10883TIP3    H254141   3.486   3.670   1.430 -2.0709  1.8134 -0.8485
10884TIP3   OH254142   3.846   5.531   4.683  0.0461 -0.0685 -0.0334
10884TIP3    H154143   3.922   5.581   4.712 -0.2577 -0.4304  1.4879
10884TIP3    H254144   3.779   5.548   4.749 -0.9814 -0.2951 -0.9765
10885TIP3   OH254145   5.712   2.994  15.177 -0.2719 -0.3727 -0.0381
10885TIP3    H154146   5.739   3.071  15.127 -1.7579 -1.1653 -2.1938
10885TIP3    H254147   5.616   2.998  15.177 -0.3864 -2.2973 -0.3549
10886TIP3   OH254148   0.160   2.964  14.391  0.4010 -0.4785  0.3533
10886TIP3    H154149   0.077   3.009  14.377  0.2473 -0.9692 -0.3916
10886TIP3    H254150   0.149   2.880  14.346  2.8310  1.1105 -3.7675
10887TIP3   OH254151   4.790   6.326  15.033 -0.3239 -0.3931  0.4325
10887TIP3    H154152   4.745   6.320  15.118 -1.4007  2.0408  0.1038
10887TIP3    H254153   4.781   6.417  15.007  1.6426 -0.6508 -1.4534
10888TIP3   OH254154   2.589   0.703  11.579  0.1250 -0.2114 -0.2602
10888TIP3    H154155   2.679   0.699  11.610  0.4002 -1.1511 -1.1098
10888TIP3    H254156   2.581   0.627  11.520 -1.5889 -0.8897  0.7803
10889TIP3   OH254157   5.991   5.456   0.469 -1.0056 -0.6712  0.6006
10889TIP3    H154158   5.955   5.539   0.502  3.8255  1.8761  0.3778
10889TIP3    H254159   6.024   5.412   0.547  1.3430  0.4496  0.3328
10890TIP3   OH254160   3.953   1.534   1.291 -0.1948  0.1830  0.0227
10890TIP3    H154161   4.047   1.526   1.273  0.0003  1.6669  0.2130
10890TIP3    H254162   3.939   1.480   1.368  0.5361  0.0172  0.0525
10891TIP3   OH254163   6.378   0.330   0.447 -0.0207  0.2918 -0.2263
10891TIP3    H154164   6.312   0.359   0.383 -1.2890  0.1692  0.9654
10891TIP3    H254165   6.405   0.410   0.491 -0.9867  0.1108  0.7360
10892TIP3   OH254166   5.798   2.683   4.234  0.3341 -0.8664 -1.0359
10892TIP3    H154167   5.724   2.622   4.236  1.6647 -2.5555 -1.3245
10892TIP3    H254168   5.781   2.738   4.158 -3.0856  2.1446  1.5280
10893TIP3   OH254169   2.180   6.599   2.701 -0.1626 -0.2975  0.4677
10893TIP3    H154170   2.110   6.618   2.639  0.0957  0.7000  0.4539
10893TIP3    H254171   2.177   6.504   2.714 -1.0407 -0.3502 -0.0820
10894TIP3   OH254172   1.529   1.210   6.025  0.3788 -0.4932 -0.5164
10894TIP3    H154173   1.450   1.158   6.008  0.0456  0.3761 -1.7562
10894TIP3    H254174   1.498   1.285   6.076  0.8885 -1.5252  1.4310
10895TIP3   OH254175   4.737   3.369  13.127  0.1720 -0.5796  0.1431
10895TIP3    H154176   4.713   3.418  13.205 -1.4274 -0.7429 -0.2157
10895TIP3    H254177   4.689   3.287  13.134  1.8149 -1.5885  0.1022
10896TIP3   OH254178   0.707   0.240  15.735 -0.0192  0.7237  0.2187
10896TIP3    H154179   0.769   0.179  15.695 -0.9574  1.8442 -3.3539
10896TIP3    H254180   0.636   0.185  15.767  0.7225 -0.2612  0.2062
10897TIP3   OH254181   1.890   4.963   3.759  0.0685 -0.0764 -0.0799
10897TIP3    H154182   1.859   4.872   3.758 -1.3218  0.3701 -0.3688
10897TIP3    H254183   1.834   5.007   3.823 -0.1518  0.8497 -0.8828
10898TIP3   OH254184   3.857   1.996   0.710  0.4053 -0.2069  0.3478
10898TIP3    H154185   3.780   2.033   0.668 -0.0117 -1.1718  0.2287
10898TIP3    H254186   3.850   2.024   0.802  0.7690  1.0347  0.0059
10899TIP3   OH254187   4.842   2.003  15.021  0.1085 -0.2816  0.1700
10899TIP3    H154188   4.871   1.994  15.111 -0.0161 -0.7166  0.1668
10899TIP3    H254189   4.754   2.040  15.028  0.8512  1.6097  0.1617
10900TIP3   OH254190   5.138   5.891   3.646  0.2553 -0.6662 -0.3040
10900TIP3    H154191   5.088   5.972   3.639  0.9268  0.0040  1.8067
10900TIP3    H254192   5.117   5.857   3.733  1.8417 -1.4586 -0.1910
10901TIP3   OH254193   0.570   1.625   2.521 -0.1209 -0.1437 -0.1386
10901TIP3    H154194   0.491   1.571   2.521  0.0763 -0.5189  1.8996
10901TIP3    H254195   0.640   1.566   2.494  0.0623 -0.9371  1.8978
10902TIP3   OH254196   1.342   1.657   4.119 -0.3280 -0.6327 -0.1459
10902TIP3    H154197   1.414   1.612   4.074  0.6346 -0.6740  1.3490
10902TIP3    H254198   1.302   1.712   4.053  1.5231 -0.0967 -0.8744
10903TIP3   OH254199   1.461   6.526   0.928 -0.3608 -0.1753 -0.1308
10903TIP3    H154200   1.417   6.471   0.863  2.3283  0.0293 -2.3638
10903TIP3    H254201   1.491   6.465   0.995  0.0061 -1.0486 -1.0481
10904TIP3   OH254202   3.510   2.162  11.592  0.1178  0.2958  0.1927
10904TIP3    H154203   3.485   2.192  11.505 -2.0105 -0.2367  0.5571
10904TIP3    H254204   3.506   2.241  11.646 -2.9892 -0.0249  0.6374
10905TIP3   OH254205   5.417   4.531   4.704 -0.0374  0.4348 -0.7326
10905TIP3    H154206   5.329   4.522   4.665 -1.0843  2.3857  0.9783
10905TIP3    H254207   5.476   4.531   4.628 -1.7419  1.4341 -2.1589
10906TIP3   OH254208   4.769   0.825  14.774 -0.2714  0.1064  0.5897
10906TIP3    H154209   4.793   0.734  14.754 -2.2718 -0.5811  1.1348
10906TIP3    H254210   4.853   0.869  14.788  0.8028 -1.2955 -1.0929
10907TIP3   OH254211   1.948   2.645  12.756  0.4123  0.5489 -1.1827
10907TIP3    H154212   2.001   2.574  12.719  0.2923  0.0610 -0.4268
10907TIP3    H254213   1.858   2.614  12.750  0.1101  1.6201 -3.0117
10908TIP3   OH254214   1.174   4.959  16.131  0.5689 -0.1489  0.2905
10908TIP3    H154215   1.194   5.024  16.062 -0.3327 -1.0691 -0.8882
10908TIP3    H254216   1.178   4.875  16.086 -0.8107 -0.7246  1.1893
10909TIP3   OH254217   5.453   5.718  14.144  0.4574 -0.2629 -0.0501
10909TIP3    H154218   5.422   5.782  14.080  0.9669 -0.5980 -0.6417
10909TIP3    H254219   5.545   5.740  14.157  0.2982 -0.0399  0.7674
10910TIP3   OH254220   1.447   0.551  17.076 -0.6142  0.2199 -0.0296
10910TIP3    H154221   1.540   0.550  17.055 -0.7822  0.4089 -0.7940
10910TIP3    H254222   1.436   0.626  17.135 -0.5860  1.3637 -1.4262
10911TIP3   OH254223   2.567   1.250  13.784  0.0573  0.5378  0.3666
10911TIP3    H154224   2.475   1.259  13.808  0.0059  1.4286 -0.1301
10911TIP3    H254225   2.615   1.295  13.854  0.0557  0.9211  0.1227
10912TIP3   OH254226   5.858   0.144   4.876  0.2204  0.2850 -0.2821
10912TIP3    H154227   5.766   0.154   4.903  0.0492 -0.1133 -0.7140
10912TIP3    H254228   5.898   0.229   4.895 -0.2956  0.5368 -0.3177
10913TIP3   OH254229   4.231   4.786   2.082 -0.4032  0.0038  0.2272
10913TIP3    H154230   4.223   4.703   2.035 -2.3023  0.4370 -0.2841
10913TIP3    H254231   4.304   4.831   2.039  0.3094 -1.1666  0.1744
10914TIP3   OH254232   0.820   2.411  11.572  0.1439 -0.0401 -0.2449
10914TIP3    H154233   0.886   2.437  11.508 -0.3354 -2.3481 -1.7857
10914TIP3    H254234   0.859   2.336  11.617 -0.0445  0.7817  1.3657
10915TIP3   OH254235   0.450   1.312  16.929 -0.5676  0.3788 -0.0540
10915TIP3    H154236   0.470   1.220  16.946  0.2165  0.5304 -0.1082
10915TIP3    H254237   0.534   1.357  16.938 -0.8835  1.0439 -0.3363
10916TIP3   OH254238   0.793   6.698   2.422  0.1417 -0.2772  0.0018
10916TIP3    H154239   0.846   6.641   2.478 -0.1633 -0.1062  0.4688
10916TIP3    H254240   0.729   6.639   2.383 -0.9945 -0.0645  1.4793
10917TIP3   OH254241   1.776   3.798  14.393  0.3713 -0.8694  0.3509
10917TIP3    H154242   1.741   3.712  14.415 -0.8954 -0.3366  0.5193
10917TIP3    H254243   1.740   3.856  14.460 -2.7349  0.6143 -2.3149
10918TIP3   OH254244   2.401   1.301  16.786  0.7804 -0.2475  0.7206
10918TIP3    H154245   2.439   1.389  16.795 -1.0622  0.5974  0.6967
10918TIP3    H254246   2.472   1.248  16.752  1.1939  1.9197 -2.2698
10919TIP3   OH254247   6.392   2.239   0.314  0.2790 -0.1865 -0.3586
10919TIP3    H154248   6.452   2.165   0.322  0.7816  0.2417 -0.0963
10919TIP3    H254249   6.420   2.284   0.234  0.6288  0.2943  0.0309
10920TIP3   OH254250   4.023   0.412  13.912 -0.5606  0.5988 -0.1023
10920TIP3    H154251   3.989   0.501  13.917 -0.8048  0.5012 -0.0396
10920TIP3    H254252   4.006   0.375  13.999 -1.6109  0.0680 -0.5217
10921TIP3   OH254253   3.503   3.766  14.073  0.3590 -0.3730  0.0141
10921TIP3    H154254   3.586   3.773  14.027  0.4575 -2.1570 -0.1339
10921TIP3    H254255   3.444   3.722  14.012  0.0349 -1.3548  1.0024
10922TIP3   OH254256   5.993   6.176   3.791  0.2208 -0.4720  0.0386
10922TIP3    H154257   5.946   6.112   3.737 -0.3209  1.0337 -1.3697
10922TIP3    H254258   5.923   6.227   3.832  0.5416  1.3942 -1.5834
10923TIP3   OH254259   6.461   4.828  14.355  0.8167  0.4705 -0.2800
10923TIP3    H154260   6.539   4.880  14.334  0.3971  1.0452 -0.4476
10923TIP3    H254261   6.396   4.893  14.383 -0.1214  0.1885 -1.7074
10924TIP3   OH254262   0.980   1.486   3.513  0.1652 -0.2032 -0.4249
10924TIP3    H154263   0.975   1.477   3.418 -0.1417 -1.7898 -0.2789
10924TIP3    H254264   0.889   1.495   3.542  0.2562  0.2684 -0.2629
10925TIP3   OH254265   2.392   3.663  14.723  0.2294 -0.4068 -0.3137
10925TIP3    H154266   2.349   3.748  14.731 -0.6830 -0.9240  0.4757
10925TIP3    H254267   2.322   3.599  14.733  1.2717 -1.3000  2.3218
10926TIP3   OH254268   4.388   2.674  17.156  0.1229 -0.0139 -0.1449
10926TIP3    H154269   4.366   2.642  17.244 -1.6885  2.6572  0.5079
10926TIP3    H254270   4.361   2.603  17.097 -1.4596 -0.6989  1.3130
10927TIP3   OH254271   3.969   3.625   2.024 -0.2313 -0.1898  0.2555
10927TIP3    H154272   4.034   3.568   1.983  0.3132  1.0066 -0.6151
10927TIP3    H254273   4.019   3.677   2.087 -0.6291 -0.3121  0.6806
10928TIP3   OH254274   3.140   6.052   4.425  0.3368  0.3394 -0.2867
10928TIP3    H154275   3.093   6.135   4.439  1.7334  1.1141 -0.0225
10928TIP3    H254276   3.074   5.985   4.441 -0.9571  1.3905 -0.9368
10929TIP3   OH254277   2.210   4.301   0.954  0.2474  0.3153 -0.7590
10929TIP3    H154278   2.290   4.312   1.005  0.3149 -1.3678 -0.4517
10929TIP3    H254279   2.147   4.360   0.996  0.7178  0.0578  0.3597
10930TIP3   OH254280   4.496   5.789  15.558 -0.0598  0.0746 -0.3890
10930TIP3    H154281   4.432   5.780  15.629  0.7163 -1.8611  0.1428
10930TIP3    H254282   4.461   5.859  15.503 -0.9951  1.2445  1.5678
10931TIP3   OH254283   1.612   5.303   3.271 -0.3990  0.0776 -0.2280
10931TIP3    H154284   1.646   5.232   3.326 -1.7838 -0.5922 -0.1742
10931TIP3    H254285   1.525   5.321   3.308 -0.5474  0.9759 -0.9935
10932TIP3   OH254286   4.191   3.395   2.209 -0.3603  0.1937  0.2194
10932TIP3    H154287   4.219   3.475   2.254 -1.6970  1.4334 -1.0268
10932TIP3    H254288   4.147   3.427   2.130 -2.9678 -1.6585  0.8027
10933TIP3   OH254289   5.732   4.507   0.263 -0.3833 -0.0897 -0.8800
10933TIP3    H154290   5.764   4.575   0.205 -1.1434  0.2761 -0.8864
10933TIP3    H254291   5.799   4.439   0.262  0.7792  1.0175 -0.2380
10934TIP3   OH254292   6.734   0.857   1.074  0.4203  0.3633  0.0536
10934TIP3    H154293   6.694   0.774   1.099 -0.7478  0.8126 -0.2486
10934TIP3    H254294   6.824   0.851   1.106  0.2853 -0.9107  0.2511
10935TIP3   OH254295   4.225   2.400  11.541 -0.3822 -0.5815 -0.2729
10935TIP3    H154296   4.148   2.455  11.553 -0.9914 -1.3893 -0.3532
10935TIP3    H254297   4.296   2.447  11.583 -0.8240  0.4001 -0.6028
10936TIP3   OH254298   0.636   4.918  11.185 -0.4461 -0.0447 -0.4148
10936TIP3    H154299   0.621   4.987  11.121  0.3327  0.4275 -0.1128
10936TIP3    H254300   0.656   4.840  11.133 -0.3934  0.1913 -0.7499
10937TIP3   OH254301   2.002   4.123  11.875  0.2981  0.3046  1.0287
10937TIP3    H154302   1.906   4.116  11.877  0.3392 -0.2286  2.1115
10937TIP3    H254303   2.020   4.198  11.819 -0.6663 -1.0342 -1.2142
10938TIP3   OH254304   0.008   3.962   4.275  0.6661  0.9404  0.2340
10938TIP3    H154305   0.087   3.932   4.230  1.1486  2.4176  0.0659
10938TIP3    H254306   0.033   3.967   4.367 -0.0776 -1.2559  0.6347
10939TIP3   OH254307   0.148   4.927   2.598 -0.0047  0.0588 -0.0398
10939TIP3    H154308   0.088   4.945   2.526  0.8586 -0.0994 -0.8122
10939TIP3    H254309   0.122   4.841   2.630 -0.7223  0.3505  0.1936
10940TIP3   OH254310   6.001   0.926   0.743  0.4232 -0.4070 -0.2236
10940TIP3    H154311   6.019   0.904   0.834  1.3705 -0.9054 -0.5108
10940TIP3    H254312   5.952   0.852   0.708  0.6650 -0.5322 -0.2997
10941TIP3   OH254313   1.524   1.325   4.907  0.1044 -0.2195 -0.5211
10941TIP3    H154314   1.576   1.371   4.842 -1.7676  0.7436 -1.4242
10941TIP3    H254315   1.552   1.234   4.901  1.3275  0.1857 -1.2704
10942TIP3   OH254316   0.307   6.406   5.610  0.5357  1.0181  0.2231
10942TIP3    H154317   0.240   6.359   5.561  0.1193  0.2746  1.4678
10942TIP3    H254318   0.355   6.456   5.543  0.4184 -0.4616 -1.0270
10943TIP3   OH254319   3.633   6.576  13.744 -0.0018 -0.1243 -0.0244
10943TIP3    H154320   3.587   6.610  13.820 -1.1344 -1.8937  0.1348
10943TIP3    H254321   3.681   6.500  13.777 -0.1680 -0.6579 -0.9663
10944TIP3   OH254322   0.199   1.637  14.238  0.0327 -0.1613  0.5313
10944TIP3    H154323   0.207   1.547  14.208 -0.3644  0.3091 -1.1574
10944TIP3    H254324   0.117   1.640  14.287 -0.3064 -0.5977  0.0058
10945TIP3   OH254325   4.734   0.169   2.688 -1.0386 -0.2471 -0.1070
10945TIP3    H154326   4.690   0.182   2.604 -0.5236  1.1783 -0.1931
10945TIP3    H254327   4.828   0.176   2.667 -0.9439  1.8669  0.7996
10946TIP3   OH254328   5.535   5.277   6.217 -0.0524  0.1624 -0.2412
10946TIP3    H154329   5.443   5.266   6.242  0.3302  1.3942  1.8894
10946TIP3    H254330   5.584   5.233   6.286  0.9980  0.5482 -0.7236
10947TIP3   OH254331   3.055   1.875  14.005 -0.0288  0.7585  0.2043
10947TIP3    H154332   3.115   1.817  13.959 -0.4142 -0.0670  0.7148
10947TIP3    H254333   2.977   1.879  13.950  0.3099  1.4714 -0.2376
10948TIP3   OH254334   5.060   3.640   1.641  0.6722  0.3666  0.2475
10948TIP3    H154335   5.065   3.571   1.707  0.5881 -0.4159 -0.5581
10948TIP3    H254336   5.138   3.629   1.588  1.1783  1.5308  0.7124
10949TIP3   OH254337   5.268   2.392   3.726  0.2682 -0.3926  0.0703
10949TIP3    H154338   5.261   2.341   3.807  0.9880 -2.1838 -0.9371
10949TIP3    H254339   5.178   2.412   3.703  0.0591  0.5236  1.5017
10950TIP3   OH254340   2.660   5.915  12.665 -0.2058 -0.5220 -0.4466
10950TIP3    H154341   2.599   5.976  12.706  2.3196  1.7819  0.1696
10950TIP3    H254342   2.625   5.901  12.577 -1.0572  1.6002 -0.4933
10951TIP3   OH254343   0.626   5.612  17.124  0.7744 -0.3833  0.0006
10951TIP3    H154344   0.551   5.558  17.148 -0.2820  0.4040 -1.3405
10951TIP3    H254345   0.697   5.550  17.111 -0.1873 -1.3880 -0.6804
10952TIP3   OH254346   5.109   2.698  13.348  0.0931 -0.8608 -0.3702
10952TIP3    H154347   5.144   2.739  13.269 -0.2307 -1.3396 -0.7717
10952TIP3    H254348   5.131   2.759  13.419  0.9332 -0.7257 -0.7375
10953TIP3   OH254349   2.725   4.323   4.345 -0.2799  0.1522  0.6192
10953TIP3    H154350   2.695   4.267   4.273 -0.6010  1.4643 -0.3051
10953TIP3    H254351   2.708   4.272   4.424 -2.3656 -0.2898 -0.0597
10954TIP3   OH254352   4.194   6.407  13.593 -0.5632  0.8506  0.1747
10954TIP3    H154353   4.108   6.440  13.619 -0.5261 -0.2316  1.7750
10954TIP3    H254354   4.251   6.425  13.668 -0.6921 -3.3360  1.5161
10955TIP3   OH254355   0.090   2.871   2.267  1.1682  0.2538  0.3510
10955TIP3    H154356   0.118   2.781   2.285 -2.7627 -0.6254  3.8253
10955TIP3    H254357   0.036   2.865   2.188  1.8237 -0.1933 -0.0677
10956TIP3   OH254358   1.898   2.782   4.203 -0.4435 -0.4256 -0.3712
10956TIP3    H154359   1.952   2.785   4.124  2.1283  0.3215  1.2752
10956TIP3    H254360   1.943   2.720   4.260 -0.6011  1.1102  1.5331
10957TIP3   OH254361   2.189   3.373  15.974  0.3975  0.3863  0.0316
10957TIP3    H154362   2.116   3.380  16.035 -0.5425  0.1941 -1.0378
10957TIP3    H254363   2.265   3.359  16.030 -0.7181 -2.0668  1.1037
10958TIP3   OH254364   5.692   5.975  11.204  0.2214  0.2674  0.1042
10958TIP3    H154365   5.658   6.018  11.126  0.6345  0.4732  0.0372
10958TIP3    H254366   5.720   5.888  11.174  2.3729  1.0962 -0.4419
10959TIP3   OH254367   1.551   4.559   3.680 -0.0426 -0.3235  0.3649
10959TIP3    H154368   1.605   4.489   3.716  0.4480 -0.1531 -0.0207
10959TIP3    H254369   1.540   4.537   3.588  2.5930  1.5514 -0.5154
10960TIP3   OH254370   0.724   4.133   3.248  0.1039 -0.1918  0.3855
10960TIP3    H154371   0.640   4.133   3.203 -0.2596 -1.0622  1.0328
10960TIP3    H254372   0.707   4.089   3.331  1.4413 -1.4156  0.0535
10961TIP3   OH254373   4.240   3.932  12.593 -0.4176 -0.1124  0.3215
10961TIP3    H154374   4.292   4.013  12.595  0.1471 -0.4445 -0.2185
10961TIP3    H254375   4.264   3.886  12.673 -2.2566  1.1387  1.6742
10962TIP3   OH254376   4.631   1.541   1.996  0.3837  0.4771  0.1537
10962TIP3    H154377   4.626   1.583   2.082  1.7757  1.7123 -0.3049
10962TIP3    H254378   4.624   1.614   1.934 -0.5269 -0.3853 -0.7943
10963TIP3   OH254379   5.884   2.009  16.163 -0.1614  0.5241 -0.3886
10963TIP3    H154380   5.927   2.025  16.079 -1.7811 -0.0440 -1.3801
10963TIP3    H254381   5.869   2.096  16.199  0.1139  0.7953 -0.9213
10964TIP3   OH254382   6.022   3.772   0.584  0.5414  0.1210  0.5831
10964TIP3    H154383   5.961   3.766   0.511  1.0079  0.0842  0.1974
10964TIP3    H254384   6.064   3.687   0.588  0.4867  0.1049  0.9285
10965TIP3   OH254385   0.059   3.378   3.269  0.3526  0.5147  0.2790
10965TIP3    H154386   0.043   3.466   3.302 -1.3173 -0.2606  1.6782
10965TIP3    H254387   0.129   3.345   3.325  1.4835  1.1410 -0.7026
10966TIP3   OH254388   1.385   3.607  11.249 -0.9724 -0.1225 -0.0677
10966TIP3    H154389   1.345   3.522  11.266 -2.5306  0.5602 -0.2104
10966TIP3    H254390   1.478   3.594  11.267 -1.5806 -1.0948  2.7920
10967TIP3   OH254391   3.930   3.180  14.445  0.2305 -0.0311 -0.5521
10967TIP3    H154392   3.878   3.116  14.397 -0.2116  0.2179 -0.4065
10967TIP3    H254393   3.899   3.265  14.414  1.4921  0.1275 -1.4814
10968TIP3   OH254394   4.769   0.118   3.217  0.4280 -0.5272  0.9473
10968TIP3    H154395   4.818   0.063   3.156 -1.0792 -2.1149  1.0729
10968TIP3    H254396   4.686   0.134   3.172 -0.2601 -0.7730  2.0978
10969TIP3   OH254397   5.711   3.077   3.544 -0.7333 -0.4486  0.4688
10969TIP3    H154398   5.624   3.045   3.521  0.2207 -2.4504 -0.6057
10969TIP3    H254399   5.715   3.165   3.506 -1.9238 -0.7405 -0.3804
10970TIP3   OH254400   4.745   5.167  14.837 -0.4882 -0.0383 -0.5941
10970TIP3    H154401   4.824   5.159  14.785  0.1519  1.2565  0.1505
10970TIP3    H254402   4.774   5.160  14.928 -1.2708  0.1402 -0.3165
10971TIP3   OH254403   5.767   1.590  14.307 -0.1588  0.7200  0.7535
10971TIP3    H154404   5.725   1.574  14.222 -0.1019  1.1288  0.6449
10971TIP3    H254405   5.779   1.685  14.310  2.8387  0.4750 -0.2406
10972TIP3   OH254406   6.564   4.820  13.927  0.0943 -0.4448 -0.1301
10972TIP3    H154407   6.593   4.766  14.000  0.8468 -1.0971 -0.8899
10972TIP3    H254408   6.551   4.758  13.855  2.1024  0.4634 -1.3669
10973TIP3   OH254409   1.416   4.842  15.794  0.5929 -0.1957  0.1205
10973TIP3    H154410   1.444   4.780  15.861  1.1331  0.2051  0.2648
10973TIP3    H254411   1.489   4.847  15.733  1.2023  1.4727  0.9319
10974TIP3   OH254412   3.053   3.375  12.535  0.1920 -0.1663 -0.3272
10974TIP3    H154413   3.127   3.432  12.513  0.5346 -0.5808 -0.2759
10974TIP3    H254414   3.090   3.309  12.593  0.5092 -2.1183 -2.5769
10975TIP3   OH254415   1.594   1.261  14.323  0.0451 -0.1045  0.7472
10975TIP3    H154416   1.602   1.287  14.415 -0.6079  0.1726  0.7299
10975TIP3    H254417   1.521   1.312  14.290  0.1846 -0.3154  0.1090
10976TIP3   OH254418   6.439   4.170   1.678 -0.3389 -0.4624 -0.0386
10976TIP3    H154419   6.463   4.089   1.634  2.2667  0.1628  0.0695
10976TIP3    H254420   6.365   4.204   1.627 -1.6032 -2.9209  0.0248
10977TIP3   OH254421   4.280   4.943  15.179  0.2725  0.1844 -0.3699
10977TIP3    H154422   4.216   5.002  15.139  1.4322  1.5584 -0.2750
10977TIP3    H254423   4.227   4.875  15.220 -1.0459  0.2058 -1.9433
10978TIP3   OH254424   5.388   1.624  13.678  0.0803  0.3709  0.3781
10978TIP3    H154425   5.451   1.559  13.646 -1.5866 -0.5299 -1.2329
10978TIP3    H254426   5.437   1.673  13.744  2.1747 -0.8842 -0.1311
10979TIP3   OH254427   3.282   3.465   0.998  0.3438 -0.1771 -0.0897
10979TIP3    H154428   3.213   3.418   0.951  0.9540  0.7935 -2.0516
10979TIP3    H254429   3.266   3.557   0.979  1.5938  0.1230  0.2196
10980TIP3   OH254430   1.414   1.665   5.428  0.6287 -0.1970 -0.5376
10980TIP3    H154431   1.342   1.606   5.410 -0.3130  0.5160  0.6637
10980TIP3    H254432   1.410   1.730   5.358 -1.1383  0.9073  0.4962
10981TIP3   OH254433   0.328   2.639  10.910  0.0883  0.6662 -0.2252
10981TIP3    H154434   0.340   2.548  10.883 -0.2423  0.4686  0.2809
10981TIP3    H254435   0.415   2.679  10.900  0.7860 -0.2581  1.5910
10982TIP3   OH254436   5.731   2.433  13.849 -0.1389 -0.1434  0.0159
10982TIP3    H154437   5.654   2.398  13.893  0.0025  0.0898  0.4462
10982TIP3    H254438   5.801   2.428  13.914  0.2129 -0.3464 -0.3684
10983TIP3   OH254439   1.611   0.953  14.822 -0.8982  0.2645 -0.0419
10983TIP3    H154440   1.686   0.999  14.860  1.0477  0.0839 -3.2811
10983TIP3    H254441   1.634   0.860  14.826 -1.3316  0.1398 -0.3117
10984TIP3   OH254442   6.247   4.596   1.941  0.0489  0.2112  0.0150
10984TIP3    H154443   6.207   4.563   1.860 -0.6438  1.9198 -0.4000
10984TIP3    H254444   6.332   4.630   1.913 -0.9790  2.5938 -0.4605
10985TIP3   OH254445   1.583   6.152   3.443 -0.2448  0.0877 -0.0643
10985TIP3    H154446   1.572   6.060   3.467  0.8886 -0.3962 -1.2404
10985TIP3    H254447   1.673   6.173   3.469 -0.0195  0.4319 -1.0601
10986TIP3   OH254448   0.605   6.506   5.003 -0.2731 -0.0676  0.7533
10986TIP3    H154449   0.518   6.509   5.041  0.1692  0.9421  1.7555
10986TIP3    H254450   0.591   6.493   4.910 -1.4265 -1.5074  1.0906
10987TIP3   OH254451   4.595   1.968   1.766  0.1133 -0.1057  0.2380
10987TIP3    H154452   4.678   2.003   1.798  0.6503  0.2373 -1.4384
10987TIP3    H254453   4.613   1.941   1.676 -1.5115 -0.3279 -0.0518
10988TIP3   OH254454   5.225   1.973  12.321 -0.1981 -0.4332 -0.0431
10988TIP3    H154455   5.262   2.007  12.240 -1.7901 -0.8646 -1.0064
10988TIP3    H254456   5.287   1.999  12.389  0.0039  2.0406 -1.0668
10989TIP3   OH254457   2.675   6.457  13.862  0.1742  0.7465 -0.1366
10989TIP3    H154458   2.624   6.469  13.781 -0.9437 -0.1649  0.4107
10989TIP3    H254459   2.676   6.362  13.875  0.6264  0.8715  0.7522
10990TIP3   OH254460   2.830   3.775  16.488  0.3598 -0.2715 -0.0393
10990TIP3    H154461   2.780   3.814  16.416  1.0999 -0.7706 -0.8503
10990TIP3    H254462   2.788   3.691  16.504  1.1723 -0.8878 -1.0200
10991TIP3   OH254463   0.502   0.424   3.957  0.2660  0.0053  0.0459
10991TIP3    H154464   0.478   0.472   4.036 -1.3759  0.2681 -0.5614
10991TIP3    H254465   0.460   0.472   3.886 -0.3364 -1.5651 -0.7172
10992TIP3   OH254466   2.935   4.194  14.402  0.4090  0.2189  0.4344
10992TIP3    H154467   2.993   4.251  14.452 -0.5691 -0.0829  1.9988
10992TIP3    H254468   2.993   4.138  14.351  1.4022  2.1032 -0.5860
10993TIP3   OH254469   0.735   2.224   3.884 -0.3466  0.6154  0.6399
10993TIP3    H154470   0.791   2.300   3.872  0.4344 -0.1561 -0.8189
10993TIP3    H254471   0.682   2.245   3.961  1.3152  1.7301  1.5263
10994TIP3   OH254472   2.413   5.712  12.683  0.4311  0.6344  0.2770
10994TIP3    H154473   2.507   5.694  12.673  0.3632 -0.1690  1.0360
10994TIP3    H254474   2.384   5.651  12.751 -0.5792  1.0969  0.2680
10995TIP3   OH254475   4.336   5.206   0.858 -0.0918  0.1025  0.2385
10995TIP3    H154476   4.381   5.283   0.894  1.2800  0.0107 -1.1851
10995TIP3    H254477   4.395   5.174   0.790 -1.8069 -0.7477 -0.9013
10996TIP3   OH254478   2.489   6.076  13.621  0.5672  0.6282  0.2254
10996TIP3    H154479   2.400   6.110  13.615  1.4537  2.9771 -1.2428
10996TIP3    H254480   2.489   6.019  13.698 -2.1466  0.5907  0.2834
10997TIP3   OH254481   6.276   3.556   5.527  0.0094  0.4603 -0.1444
10997TIP3    H154482   6.312   3.500   5.458  0.4575  0.4494  0.0962
10997TIP3    H254483   6.195   3.590   5.490 -0.0500 -0.0062 -0.4583
10998TIP3   OH254484   5.913   3.392   5.474 -0.1501  0.2700  0.0130
10998TIP3    H154485   5.954   3.454   5.415  1.8925  0.6943  1.7678
10998TIP3    H254486   5.824   3.425   5.486 -0.2123  0.8315 -1.8253
10999TIP3   OH254487   5.572   4.701  15.415  0.0707  0.3249  0.3131
10999TIP3    H154488   5.639   4.744  15.468 -1.2567  0.4197  2.0424
10999TIP3    H254489   5.605   4.613  15.401  1.2774  0.8557 -0.3171
11000TIP3   OH254490   2.325   6.629   3.948  0.6339  0.3646 -0.2695
11000TIP3    H154491   2.306   6.681   4.027  1.4403  0.3147 -0.0387
11000TIP3    H254492   2.239   6.613   3.910  0.1409 -0.3535  1.0720
11001TIP3   OH254493   5.686   4.431  12.383 -0.3336  0.4845 -0.3576
11001TIP3    H154494   5.747   4.503  12.395 -0.6931  1.0693 -1.8719
11001TIP3    H254495   5.728   4.373  12.320 -0.8024  0.2594 -0.4686
11002TIP3   OH254496   4.150   3.859   5.655 -0.1662 -0.4981  0.4897
11002TIP3    H154497   4.156   3.772   5.695  0.4965 -1.1608 -0.9452
11002TIP3    H254498   4.211   3.855   5.581 -2.3748  0.0960 -1.4976
11003TIP3   OH254499   2.987   3.339   1.957  0.0307 -0.6071 -0.3899
11003TIP3    H154500   2.957   3.375   1.873 -1.2244  1.3059  0.8192
11003TIP3    H254501   2.947   3.253   1.961 -0.8867 -0.2415 -1.2204
11004TIP3   OH254502   0.178   3.377  12.195 -0.1149 -0.0569 -0.2701
11004TIP3    H154503   0.094   3.404  12.157 -1.1061 -1.0990  1.0642
11004TIP3    H254504   0.233   3.358  12.120 -0.4255  2.4022 -1.2248
11005TIP3   OH254505   4.773   3.497   1.371  0.0499  0.7916 -0.2166
11005TIP3    H154506   4.682   3.524   1.377 -0.1925  0.1766 -0.9906
11005TIP3    H254507   4.822   3.579   1.370 -0.4644  1.1171  0.5282
11006TIP3   OH254508   5.915   5.547   2.616  0.5168 -0.1263 -0.3718
11006TIP3    H154509   5.974   5.589   2.553  0.9671 -1.1250 -0.6403
11006TIP3    H254510   5.838   5.523   2.564 -0.4195  1.6588  0.0840
11007TIP3   OH254511   4.001   3.668   0.488 -0.3328  0.3239 -0.0510
11007TIP3    H154512   4.031   3.592   0.439  2.3085  0.9492  0.4299
11007TIP3    H254513   4.033   3.743   0.438  3.0747  0.9976  2.7338
11008TIP3   OH254514   6.050   6.380  16.765  0.3197 -0.2280 -0.5400
11008TIP3    H154515   6.031   6.471  16.785  0.6767 -0.4666  0.9941
11008TIP3    H254516   5.982   6.331  16.811  0.3180 -0.7537 -1.0933
11009TIP3   OH254517   4.121   2.457   3.993 -0.1628 -0.1884 -0.0797
11009TIP3    H154518   4.195   2.428   4.046  0.4705 -0.6492 -1.1926
11009TIP3    H254519   4.044   2.437   4.046  0.4415 -0.9068  0.5460
11010TIP3   OH254520   0.088   6.022  15.648 -1.1727  0.2191  0.9490
11010TIP3    H154521   0.153   6.071  15.698  0.0763 -0.8289  0.3859
11010TIP3    H254522   0.138   5.968  15.587 -2.4778 -1.7201  1.4803
11011TIP3   OH254523   3.077   5.665  16.113  0.1716  0.3469  0.1921
11011TIP3    H154524   2.985   5.681  16.093  0.0409  1.5525  1.5669
11011TIP3    H254525   3.082   5.667  16.208  1.6297  0.3168  0.1486
11012TIP3   OH254526   4.546   0.935   5.567  0.4084 -0.0239 -0.4838
11012TIP3    H154527   4.624   0.881   5.583  0.4521  0.1734 -0.0315
11012TIP3    H254528   4.542   0.994   5.642  0.2098  0.4276 -0.8497
11013TIP3   OH254529   4.384   5.984   4.178  0.2719 -0.3521  0.3568
11013TIP3    H154530   4.468   5.966   4.219  0.3415 -1.9671 -0.4160
11013TIP3    H254531   4.319   5.963   4.246  0.3302 -4.1369 -0.5296
11014TIP3   OH254532   4.685   0.818   6.223  0.3356 -0.3089  0.0300
11014TIP3    H154533   4.621   0.776   6.281  1.5872 -0.7371  1.1686
11014TIP3    H254534   4.759   0.840   6.281  0.6488  1.4621 -0.9602
11015TIP3   OH254535   0.651   5.923   2.045  0.6796 -0.6094 -0.5144
11015TIP3    H154536   0.659   5.997   2.105  1.2192  0.5705 -1.9814
11015TIP3    H254537   0.739   5.886   2.040  0.8423 -0.1539 -1.2215
11016TIP3   OH254538   3.841   2.276  11.415 -0.1568  0.1274 -0.0498
11016TIP3    H154539   3.821   2.349  11.356 -2.3883 -0.5680 -0.2612
11016TIP3    H254540   3.934   2.258  11.400  0.1890  2.2160 -0.7593
11017TIP3   OH254541   6.288   2.561  16.866  0.1439  0.0977 -0.1029
11017TIP3    H154542   6.335   2.590  16.945 -0.1493  0.6701 -0.1318
11017TIP3    H254543   6.214   2.511  16.900 -0.4476  1.0275  0.0320
11018TIP3   OH254544   1.141   3.854  16.877 -0.2314  0.5270 -0.2900
11018TIP3    H154545   1.215   3.899  16.919  0.8145 -0.2793 -1.2141
11018TIP3    H254546   1.092   3.924  16.833 -2.0905  1.6103  3.1660
11019TIP3   OH254547   4.888   0.626   0.806 -0.0377 -0.2231  0.2831
11019TIP3    H154548   4.856   0.596   0.891 -1.3781  1.1966  0.3038
11019TIP3    H254549   4.972   0.580   0.795 -0.0641 -0.7861  2.1356
11020TIP3   OH254550   4.598   4.358  14.734 -0.1112 -0.4146 -0.2775
11020TIP3    H154551   4.664   4.292  14.756  0.7601  0.1410 -1.1173
11020TIP3    H254552   4.519   4.329  14.779 -0.0603 -2.6368 -1.4671
11021TIP3   OH254553   4.334   1.274   5.649  0.1213 -0.4533  0.0637
11021TIP3    H154554   4.278   1.299   5.722 -0.0069  0.3926 -0.3072
11021TIP3    H254555   4.407   1.226   5.689 -0.6160 -1.1381  0.5972
11022TIP3   OH254556   1.027   3.174  14.772  0.2745 -0.5593  0.0576
11022TIP3    H154557   0.994   3.086  14.753  0.2140 -0.5562  0.1447
11022TIP3    H254558   1.095   3.190  14.707  1.1731 -1.1730  0.8133
11023TIP3   OH254559   6.482   1.439   4.244 -0.2296 -0.0256  0.0810
11023TIP3    H154560   6.409   1.456   4.184  0.2498 -1.2112 -0.8861
11023TIP3    H254561   6.555   1.413   4.187 -0.2319 -2.8985  1.1760
11024TIP3   OH254562   4.399   0.090  17.137 -0.3781  0.2251 -0.0198
11024TIP3    H154563   4.341   0.157  17.174  0.1039  0.3353  0.5587
11024TIP3    H254564   4.340   0.019  17.113 -0.6366 -0.3319  2.0511
11025TIP3   OH254565   4.762   3.057  15.387 -0.0836  0.2822  0.0708
11025TIP3    H154566   4.804   3.131  15.430  0.2132 -0.2686  0.7522
11025TIP3    H254567   4.827   3.024  15.326  0.7594 -0.9640  1.5796
11026TIP3   OH254568   3.655   5.055  10.034 -0.5124 -0.4057  0.6852
11026TIP3    H154569   3.607   5.118  10.088  0.3795  0.7164  0.2202
11026TIP3    H254570   3.705   5.003  10.097 -0.0747  0.3814  1.0137
11027TIP3   OH254571   0.949   5.770  15.571  0.0566  0.2514  0.1830
11027TIP3    H154572   1.024   5.775  15.511  0.4118  0.0585  0.6077
11027TIP3    H254573   0.883   5.827  15.531  0.2700  0.0892 -0.4150
11028TIP3   OH254574   4.455   2.240   3.674  0.6551  0.7282  0.1702
11028TIP3    H154575   4.454   2.319   3.729 -0.4340  1.3127 -0.6324
11028TIP3    H254576   4.545   2.232   3.644  0.8322  1.5371  0.4693
11029TIP3   OH254577   1.863   1.137   2.103  0.5371 -0.1301  0.0213
11029TIP3    H154578   1.890   1.213   2.052  0.9492 -0.7723 -0.7526
11029TIP3    H254579   1.946   1.098   2.131  0.3362 -0.4308  0.1922
11030TIP3   OH254580   5.778   1.616  13.296 -0.0927 -0.0825  0.2773
11030TIP3    H154581   5.832   1.619  13.217  0.6203 -0.0822  0.7531
11030TIP3    H254582   5.793   1.528  13.331  2.1504  0.9391  2.1364
11031TIP3   OH254583   1.531   4.326   1.692  0.1467 -0.3164 -0.3400
11031TIP3    H154584   1.589   4.392   1.729  0.7242 -0.1277 -1.5144
11031TIP3    H254585   1.486   4.370   1.621 -1.2473 -0.5533  0.3623
11032TIP3   OH254586   0.268   1.819  13.862 -0.1059  0.0449  0.0409
11032TIP3    H154587   0.175   1.842  13.855 -0.2193 -0.8456 -2.7206
11032TIP3    H254588   0.301   1.875  13.931 -2.8069 -0.0362  1.5621
11033TIP3   OH254589   4.482   6.024  11.304  0.4417 -0.0243  0.3049
11033TIP3    H154590   4.488   6.000  11.396  0.9245  1.2213  0.6135
11033TIP3    H254591   4.570   6.050  11.280  0.3924 -0.6427 -0.6126
11034TIP3   OH254592   1.643   4.862  14.630  0.4247  0.4032 -0.4341
11034TIP3    H154593   1.564   4.880  14.682  1.3433  2.7214  0.2837
11034TIP3    H254594   1.706   4.826  14.693 -0.2357 -2.2960 -1.1733
11035TIP3   OH254595   2.166   5.654   4.719 -0.5918  0.2951 -0.6199
11035TIP3    H154596   2.194   5.729   4.772 -3.9571  0.5359  1.0936
11035TIP3    H254597   2.228   5.584   4.743  1.4623  1.9390 -0.8357
11036TIP3   OH254598   0.609   1.333   0.348 -0.4249 -0.0803  0.1496
11036TIP3    H154599   0.685   1.277   0.366 -1.4778 -1.1808  1.3292
11036TIP3    H254600   0.538   1.272   0.327 -1.1463  0.9057 -0.3598
11037TIP3   OH254601   3.913   3.913  16.310  0.3715 -0.2047  0.1233
11037TIP3    H154602   4.000   3.907  16.350  0.9968 -0.6854 -1.2247
11037TIP3    H254603   3.860   3.852  16.359  1.4692 -1.7974 -0.5702
11038TIP3   OH254604   5.579   3.825  17.147 -0.5438  0.0864 -0.2189
11038TIP3    H154605   5.585   3.800  17.055 -0.7193 -0.1148 -0.1764
11038TIP3    H254606   5.651   3.779  17.189 -1.2037 -0.8114 -0.0428
11039TIP3   OH254607   3.085   1.538   6.496  0.5753  0.4239 -0.3398
11039TIP3    H154608   3.063   1.616   6.546 -1.8012  0.2595 -1.0253
11039TIP3    H254609   3.047   1.465   6.546 -0.8793  0.1558 -1.7331
11040TIP3   OH254610   2.811   5.120   3.552  0.0819  0.0545  0.2971
11040TIP3    H154611   2.890   5.133   3.605  0.2718  0.9841 -0.1877
11040TIP3    H254612   2.832   5.043   3.498  0.2738 -0.2908  0.8512
11041TIP3   OH254613   3.290   1.447   2.804 -0.1066 -0.8660 -0.2365
11041TIP3    H154614   3.368   1.460   2.857 -1.0242  2.3227  0.5869
11041TIP3    H254615   3.276   1.352   2.803  2.0186 -1.2940  2.1148
11042TIP3   OH254616   2.028   2.619   6.796  0.0302 -0.3829  0.1680
11042TIP3    H154617   1.996   2.702   6.831  0.9517 -0.3201  0.9196
11042TIP3    H254618   2.033   2.632   6.702 -1.4232 -0.1639  0.1069
11043TIP3   OH254619   6.076   4.716   5.074 -0.1439 -0.1355  0.3723
11043TIP3    H154620   6.070   4.640   5.015 -2.5906 -0.8279  1.4130
11043TIP3    H254621   6.064   4.679   5.162  1.2200  1.1738  1.1706
11044TIP3   OH254622   5.063   2.092   0.472 -0.3131 -0.7147  0.8451
11044TIP3    H154623   5.018   2.024   0.522 -0.9488 -1.7153 -1.0102
11044TIP3    H254624   5.125   2.131   0.535 -2.2280 -0.7221  2.8696
11045TIP3   OH254625   2.020   5.499  15.118 -0.5784  0.3566  0.0628
11045TIP3    H154626   2.010   5.469  15.208 -0.3226  0.3403  0.0884
11045TIP3    H254627   2.060   5.586  15.126  0.7108 -0.1995 -0.0624
11046TIP3   OH254628   6.741   6.219  17.256 -0.5321 -0.0564 -0.5713
11046TIP3    H154629   6.761   6.154  17.188  0.8230 -2.2813  1.8042
11046TIP3    H254630   6.825   6.258  17.279 -1.2158  2.0542 -1.3546
11047TIP3   OH254631   0.046   3.126  13.823  0.3750  0.1789 -0.4049
11047TIP3    H154632   0.012   3.075  13.749  1.4782 -0.3528 -0.5628
11047TIP3    H254633  -0.031   3.142  13.878 -0.3712  0.1630 -1.4195
11048TIP3   OH254634   4.750   6.075   1.225 -0.0416  0.4314  0.3329
11048TIP3    H154635   4.822   6.105   1.169  0.4830 -2.8360 -0.9331
11048TIP3    H254636   4.768   5.983   1.242 -2.5093  0.1912  2.3329
11049TIP3   OH254637   1.300   2.658  13.667  0.5027 -0.5724 -0.6710
11049TIP3    H154638   1.316   2.660  13.573 -1.2378 -2.0800 -1.0517
11049TIP3    H254639   1.224   2.602  13.678 -0.5821  1.1332  1.4880
11050TIP3   OH254640   2.773   0.438   3.116  0.2358  0.4899 -0.2847
11050TIP3    H154641   2.826   0.512   3.087 -1.9390  1.4193 -2.1171
11050TIP3    H254642   2.713   0.475   3.181 -0.7493  0.3393 -1.0874
11051TIP3   OH254643   2.270   0.836   1.440 -0.3953 -0.1078 -0.4741
11051TIP3    H154644   2.360   0.826   1.470  0.3419  0.8676 -2.1907
11051TIP3    H254645   2.228   0.891   1.506  1.0139  1.5577 -0.8982
11052TIP3   OH254646   5.431   1.280   0.247  0.3717  0.3448  0.0412
11052TIP3    H154647   5.524   1.258   0.249  0.8056  1.3850 -3.1233
11052TIP3    H254648   5.421   1.346   0.316  1.9776  0.3030  0.3624
11053TIP3   OH254649   5.285   4.278   0.134  0.4166  0.7400  0.0677
11053TIP3    H154650   5.341   4.341   0.088  0.6408  0.9786  0.6665
11053TIP3    H254651   5.329   4.262   0.217 -1.4058  2.4946  1.4543
11054TIP3   OH254652   2.556   5.540  12.464  0.1765  0.1583 -0.0639
11054TIP3    H154653   2.549   5.634  12.485  0.0706  0.0780  0.2726
11054TIP3    H254654   2.519   5.532  12.376 -3.6195 -0.1408  1.3722
11055TIP3   OH254655   5.366   0.104  12.636  0.1399 -0.1919 -0.1848
11055TIP3    H154656   5.277   0.083  12.608 -0.4108  0.3716  1.0439
11055TIP3    H254657   5.387   0.186  12.590 -1.1334  1.2640  1.6889
11056TIP3   OH254658   6.055   5.029  11.927  0.2736 -0.1288  0.1478
11056TIP3    H154659   6.099   5.102  11.884 -0.5922 -0.0200 -0.5989
11056TIP3    H254660   6.125   4.969  11.950  0.8901  0.4216 -0.2449
11057TIP3   OH254661   3.229   0.481  13.787 -0.1462 -0.1249  0.1182
11057TIP3    H154662   3.134   0.483  13.799 -0.2304 -1.7203  0.0360
11057TIP3    H254663   3.241   0.482  13.692  0.0447  2.0668  0.1172
11058TIP3   OH254664   4.204   1.770  14.158  0.2578 -0.5047 -0.1380
11058TIP3    H154665   4.185   1.846  14.214 -2.3288 -2.0314  1.2853
11058TIP3    H254666   4.259   1.714  14.212 -2.1624 -1.9349  1.0501
11059TIP3   OH254667   0.002   4.289   6.282  0.3704  0.0456 -0.4489
11059TIP3    H154668  -0.076   4.235   6.272  0.9080 -0.4906 -2.0135
11059TIP3    H254669   0.046   4.285   6.197  1.9111  0.6339  0.2707
11060TIP3   OH254670   3.840   3.221   1.103 -0.6076  0.5741  0.4491
11060TIP3    H154671   3.845   3.206   1.197 -0.0980  2.6071  0.7968
11060TIP3    H254672   3.787   3.300   1.094 -0.0750  0.8017 -0.9278
11061TIP3   OH254673   0.973   6.126   1.894  0.3576 -0.4167  0.0233
11061TIP3    H154674   1.007   6.074   1.967 -3.4814 -1.9405  1.0224
11061TIP3    H254675   0.998   6.078   1.816 -2.3374 -3.6617  0.8758
11062TIP3   OH254676   3.123   5.064   2.025  0.2339 -0.2866 -0.4250
11062TIP3    H154677   3.068   5.012   1.966  1.4789 -0.2415 -1.6957
11062TIP3    H254678   3.162   4.999   2.084 -0.9262 -0.3515  0.2804
11063TIP3   OH254679   4.108   6.147  16.887 -0.1024  0.8788  0.2462
11063TIP3    H154680   4.181   6.085  16.884 -1.6453 -1.0638  0.6137
11063TIP3    H254681   4.127   6.209  16.816  0.7435 -0.9445 -1.2405
11064TIP3   OH254682   0.354   0.682   3.027 -0.1383  0.5438 -0.1368
11064TIP3    H154683   0.291   0.663   2.957 -0.2940  1.6003 -0.3072
11064TIP3    H254684   0.311   0.750   3.079 -0.3595 -0.7713  1.4792
11065TIP3   OH254685   4.561   1.804  12.378 -0.1222  0.0059 -0.1286
11065TIP3    H154686   4.523   1.809  12.290 -2.0609  0.4839  0.6691
11065TIP3    H254687   4.587   1.894  12.398 -1.0531  0.1890  0.3190
11066TIP3   OH254688   4.159   4.865  13.365  0.2517 -0.1796  0.0825
11066TIP3    H154689   4.244   4.894  13.398 -0.1556  1.5617 -0.2964
11066TIP3    H254690   4.159   4.891  13.273 -0.7429 -0.0319  0.1152
11067TIP3   OH254691   3.884   6.698   3.140  0.5190  0.2897  0.4707
11067TIP3    H154692   3.911   6.741   3.059 -2.2499 -0.8253 -1.2161
11067TIP3    H254693   3.797   6.735   3.158 -0.6543 -2.3733  0.6281
11068TIP3   OH254694   6.097   0.914   0.993  0.1758  0.6227  0.0998
11068TIP3    H154695   6.162   0.845   1.005  0.1309  0.4477 -0.6287
11068TIP3    H254696   6.075   0.942   1.082  0.3631 -0.1405  0.3930
11069TIP3   OH254697   6.244   5.533  15.799  0.5364 -0.4838  0.1219
11069TIP3    H154698   6.190   5.455  15.806  0.9093 -0.7077  0.5286
11069TIP3    H254699   6.321   5.505  15.749  0.4555 -0.2581 -0.1356
11070TIP3   OH254700   6.466   0.778   2.630  0.1032  0.1070  0.0686
11070TIP3    H154701   6.396   0.844   2.631 -0.7388 -0.7284 -0.9497
11070TIP3    H254702   6.470   0.746   2.721 -2.0724 -1.0435 -0.1675
11071TIP3   OH254703   3.599   6.472   3.461  0.4217 -0.1124  0.4917
11071TIP3    H154704   3.593   6.557   3.416 -1.0585 -0.2271  0.4112
11071TIP3    H254705   3.668   6.425   3.414  1.1096  0.9540  0.3943
11072TIP3   OH254706   3.650   3.948  10.830 -0.7316  0.5010 -0.0959
11072TIP3    H154707   3.684   3.858  10.828  0.6163  0.9221  1.2296
11072TIP3    H254708   3.587   3.952  10.759  0.7922 -0.8700 -1.6041
11073TIP3   OH254709   5.509   5.879   1.827  0.2129  0.0409 -0.3495
11073TIP3    H154710   5.537   5.943   1.893  1.0045  0.5572 -1.1432
11073TIP3    H254711   5.433   5.835   1.865  1.6244 -0.8534  1.6086
11074TIP3   OH254712   3.843   3.137  12.912  0.3510  0.6559  0.3579
11074TIP3    H154713   3.834   3.122  13.006 -0.9855 -0.3004  0.1048
11074TIP3    H254714   3.899   3.066  12.881  0.2791  0.6042  0.3451
11075TIP3   OH254715   4.990   2.516  15.879  0.2789  0.1416 -0.3622
11075TIP3    H154716   4.896   2.530  15.886  0.4930  1.0291  1.0153
11075TIP3    H254717   5.029   2.584  15.934  1.6784 -0.9720  0.0896
11076TIP3   OH254718   2.992   1.262   1.965 -0.2946  0.0499 -0.4584
11076TIP3    H154719   2.920   1.252   1.903  0.6835 -0.9570 -1.5042
11076TIP3    H254720   3.066   1.220   1.921  0.5055 -0.4421  1.2859
11077TIP3   OH254721   1.724   1.826   5.683 -0.2810  0.6187  0.0454
11077TIP3    H154722   1.639   1.822   5.640 -0.6065 -1.3311  0.7851
11077TIP3    H254723   1.728   1.747   5.737  2.0148  0.6252 -0.0047
11078TIP3   OH254724   4.487   3.146  15.015 -0.9078 -0.1073 -0.2868
11078TIP3    H154725   4.469   3.082  15.084 -1.7592 -0.4208 -0.7761
11078TIP3    H254726   4.557   3.201  15.050 -0.3676 -1.1120  0.2722
11079TIP3   OH254727   2.465   3.018   0.140  0.0688 -0.1610  0.4075
11079TIP3    H154728   2.515   3.066   0.074 -0.3666  0.5529  0.5877
11079TIP3    H254729   2.463   3.075   0.216  0.9995 -1.2013  1.2334
11080TIP3   OH254730   0.304   2.790   6.131 -0.4616  0.1300 -0.4823
11080TIP3    H154731   0.233   2.742   6.172 -1.2393  0.3534 -1.5292
11080TIP3    H254732   0.381   2.771   6.185 -1.2065 -0.5156  0.3675
11081TIP3   OH254733   2.248   6.067   2.001  0.5264  0.0311  0.1715
11081TIP3    H154734   2.180   6.000   1.998  0.1262  0.4631 -1.6408
11081TIP3    H254735   2.330   6.018   2.002  0.2206 -0.4874  0.0728
11082TIP3   OH254736   5.554   0.941   2.875 -0.3895  0.0008  0.4799
11082TIP3    H154737   5.494   0.957   2.802  1.9888 -1.2136 -1.8764
11082TIP3    H254738   5.513   0.986   2.949 -2.7674  1.6093 -1.6370
11083TIP3   OH254739   6.007   1.057   2.717 -0.4303  0.3848 -0.3880
11083TIP3    H154740   6.056   1.112   2.778 -1.6898  1.4136 -0.2764
11083TIP3    H254741   5.948   1.117   2.672 -2.3735 -0.9842  0.2387
11084TIP3   OH254742   2.213   1.943  15.495  0.1853 -0.0102 -0.0107
11084TIP3    H154743   2.138   1.883  15.497 -0.9251  1.3110  0.1200
11084TIP3    H254744   2.176   2.027  15.522  2.2322  0.1874  2.5594
11085TIP3   OH254745   1.127   1.455  13.915 -0.2523  0.0987  0.5465
11085TIP3    H154746   1.183   1.383  13.944 -0.6501 -0.2697  0.4060
11085TIP3    H254747   1.187   1.516  13.871 -0.2181 -1.1594 -1.2506
11086TIP3   OH254748   0.771   5.106  10.849  0.2042  0.1732  0.0106
11086TIP3    H154749   0.741   5.032  10.796 -1.0864  2.1800 -2.3229
11086TIP3    H254750   0.702   5.118  10.914  0.0161 -0.2062 -0.1109
11087TIP3   OH254751   5.369   0.280  12.402 -0.3647 -0.4120  0.2923
11087TIP3    H154752   5.377   0.213  12.334  0.5173 -0.8860  0.8419
11087TIP3    H254753   5.460   0.301  12.426 -0.6132  1.0794  0.0393
11088TIP3   OH254754   5.237   4.428  13.379 -0.3854 -0.2616  0.0867
11088TIP3    H154755   5.208   4.423  13.471 -0.7010  1.7486  0.1449
11088TIP3    H254756   5.226   4.521  13.356  1.4902 -0.3627 -1.3998
11089TIP3   OH254757   4.382   1.535   4.015 -0.4515  0.3433 -0.4459
11089TIP3    H154758   4.472   1.507   4.004 -0.7872 -0.3175 -1.5765
11089TIP3    H254759   4.361   1.582   3.935 -0.7432  1.5847  0.3185
11090TIP3   OH254760   3.747   6.789  12.547  0.3465  0.5892  0.7203
11090TIP3    H154761   3.661   6.830  12.553 -0.1077 -0.2864  0.4503
11090TIP3    H254762   3.797   6.825  12.620 -0.6060  0.3067  1.5331
11091TIP3   OH254763   3.434   5.579   4.650 -0.0418 -0.3898  0.0225
11091TIP3    H154764   3.361   5.637   4.628  0.0374 -0.8692 -1.6128
11091TIP3    H254765   3.509   5.615   4.604  1.1364  0.8536  2.7325
11092TIP3   OH254766   4.102   6.175  14.998 -0.3522  0.3587 -0.0159
11092TIP3    H154767   4.128   6.183  14.906  1.0066 -1.2669  0.1753
11092TIP3    H254768   4.182   6.150  15.044 -1.3962 -0.8017  1.2790
11093TIP3   OH254769   0.847   4.462  16.466 -0.1604  0.0001 -0.1836
11093TIP3    H154770   0.763   4.491  16.501 -0.3651 -0.2595 -0.4543
11093TIP3    H254771   0.863   4.517  16.390  1.0056  1.5987  1.1314
11094TIP3   OH254772   4.726   3.074   5.263 -0.0571 -0.1234  0.1774
11094TIP3    H154773   4.778   3.152   5.284  0.6033 -0.2046 -1.0003
11094TIP3    H254774   4.645   3.085   5.311  0.2113  1.0765  0.3958
11095TIP3   OH254775   4.442   5.693  10.535  0.0272  0.0971 -0.0507
11095TIP3    H154776   4.480   5.771  10.496 -0.0145  1.4708  2.4389
11095TIP3    H254777   4.351   5.693  10.504  0.6221 -0.3416 -1.9284
11096TIP3   OH254778   3.909   6.280   3.958 -0.2703 -0.0877 -0.2248
11096TIP3    H154779   3.866   6.226   4.023 -0.4289 -0.2135 -0.4314
11096TIP3    H254780   3.933   6.361   4.004  0.9347 -0.7564  0.3673
11097TIP3   OH254781   5.045   2.263   4.970  0.0025  0.1953 -0.3552
11097TIP3    H154782   5.090   2.180   4.954  0.2054  0.2434 -0.0507
11097TIP3    H254783   4.955   2.238   4.992  0.4356 -0.0499  1.2557
11098TIP3   OH254784   6.489   1.668   1.019 -0.1187  0.4207 -0.1735
11098TIP3    H154785   6.541   1.672   0.938 -0.5551 -0.3889 -0.5038
11098TIP3    H254786   6.436   1.747   1.017 -0.7922 -0.0367 -1.1459
11099TIP3   OH254787   5.594   0.492  16.398 -0.7024 -0.3548 -0.8438
11099TIP3    H154788   5.549   0.424  16.447 -1.4933  0.6861 -0.0639
11099TIP3    H254789   5.674   0.451  16.366 -0.0239 -1.0363  1.5387
11100TIP3   OH254790   4.597   2.828  11.016  0.3107  0.5079  0.1883
11100TIP3    H154791   4.618   2.735  11.012 -0.8089  0.1071  2.2594
11100TIP3    H254792   4.682   2.872  11.007  1.1608 -0.7911  1.4656
11101TIP3   OH254793   4.332   3.348  12.548  0.1111 -1.0599 -0.3262
11101TIP3    H154794   4.365   3.416  12.606 -1.1724 -1.0240  0.3967
11101TIP3    H254795   4.397   3.278  12.554  0.6789 -0.5073  0.1038
11102TIP3   OH254796   3.636   0.944   2.884 -0.0417 -0.4646  0.0801
11102TIP3    H154797   3.665   0.871   2.829  0.8504 -0.9059  1.1027
11102TIP3    H254798   3.544   0.924   2.903 -0.0731 -0.8200 -0.4284
11103TIP3   OH254799   5.178   2.111   1.779 -0.3745 -0.5948 -0.0305
11103TIP3    H154800   5.262   2.109   1.824 -1.2198 -0.4388  1.6389
11103TIP3    H254801   5.114   2.090   1.847 -1.8462  1.0268 -0.8242
11104TIP3   OH254802   4.127   4.260   2.110 -0.1814  0.3493  0.0040
11104TIP3    H154803   4.058   4.307   2.063  1.6160  0.8170 -2.3791
11104TIP3    H254804   4.196   4.248   2.045  0.9516 -2.4247  1.5397
11105TIP3   OH254805   6.102   2.471   0.206 -0.0937  0.2506 -0.0546
11105TIP3    H154806   6.113   2.445   0.297  1.6644  1.7474  0.2266
11105TIP3    H254807   6.013   2.506   0.202 -0.6133 -0.9120  0.7773
11106TIP3   OH254808   0.190   1.929  16.894 -0.1673  0.0137  0.6068
11106TIP3    H154809   0.282   1.958  16.894 -0.3044  0.4603  1.2251
11106TIP3    H254810   0.170   1.917  16.801  1.2073 -2.3728  0.5409
11107TIP3   OH254811   5.814   1.124  16.154 -0.0809  0.5798 -0.2192
11107TIP3    H154812   5.811   1.218  16.173 -0.3967  0.5062  0.1191
11107TIP3    H254813   5.802   1.117  16.060 -0.7286  0.8478 -0.1590
11108TIP3   OH254814   1.804   2.719   6.202  0.4678 -0.2078  0.0780
11108TIP3    H154815   1.773   2.767   6.279  0.4069 -0.2225  0.0627
11108TIP3    H254816   1.787   2.627   6.222  0.2148 -0.1903 -0.0614
11109TIP3   OH254817   0.218   2.099   1.930 -0.8333  0.1858 -0.4080
11109TIP3    H154818   0.281   2.035   1.963  0.3816 -0.0388 -2.8761
11109TIP3    H254819   0.272   2.161   1.880 -2.4858  0.2354 -2.2481
11110TIP3   OH254820   5.952   0.447  15.110  0.0333  0.1576 -0.4431
11110TIP3    H154821   5.922   0.420  15.023 -0.5684 -0.5207 -0.0380
11110TIP3    H254822   6.005   0.374  15.141 -2.2249 -1.0195  0.9734
11111TIP3   OH254823   3.273   4.207  13.677  0.2460  0.6872 -0.5077
11111TIP3    H154824   3.322   4.187  13.598  1.7698 -2.8759  1.1222
11111TIP3    H254825   3.298   4.297  13.699  0.3304  1.5056 -3.5815
11112TIP3   OH254826   5.814   3.353  15.583  0.3213  0.1831  0.0506
11112TIP3    H154827   5.890   3.299  15.563 -0.1549 -0.1505 -0.9599
11112TIP3    H254828   5.849   3.442  15.593  0.9916 -0.1579  0.8385
11113TIP3   OH254829   1.463   3.647   6.169 -0.1743 -0.2694  0.7493
11113TIP3    H154830   1.522   3.695   6.228 -0.3680 -0.9499  1.4977
11113TIP3    H254831   1.467   3.556   6.198  0.1359 -0.7246 -0.6201
11114TIP3   OH254832   5.147   6.166  12.864  0.0397  0.1931 -1.0448
11114TIP3    H154833   5.191   6.192  12.945 -0.3732  0.8188 -1.0168
11114TIP3    H254834   5.174   6.231  12.799 -0.0059 -0.0304 -1.2914
11115TIP3   OH254835   2.894   6.501   1.686 -0.0303  0.1664 -0.0786
11115TIP3    H154836   2.844   6.424   1.658 -1.6143 -0.0771  2.9922
11115TIP3    H254837   2.965   6.465   1.739  0.5708  0.7491 -0.4745
11116TIP3   OH254838   1.087   0.148  14.927 -0.2987 -0.6111 -0.7026
11116TIP3    H154839   1.102   0.066  14.881  0.5250  0.4872 -2.5013
11116TIP3    H254840   1.173   0.189  14.933 -0.4907 -0.3831  1.2645
11117TIP3   OH254841   1.159   1.021  17.020 -0.6713 -0.0663  0.3105
11117TIP3    H154842   1.232   1.016  16.958 -0.5150 -2.0018  0.6060
11117TIP3    H254843   1.082   1.032  16.964 -0.2463  1.3370 -0.0398
11118TIP3   OH254844   5.788   6.504  14.233  0.2621  0.1225 -0.0899
11118TIP3    H154845   5.734   6.579  14.209  0.5618  0.1459 -0.6837
11118TIP3    H254846   5.743   6.429  14.194 -1.5983 -0.4358  2.7503
11119TIP3   OH254847   0.778   1.807  12.146 -0.0418  0.9679 -0.0889
11119TIP3    H154848   0.764   1.734  12.206  0.9179  1.4192  0.7207
11119TIP3    H254849   0.698   1.859  12.151  0.5280  1.7408  1.8795
11120TIP3   OH254850   4.359   5.307   2.455  0.1880  0.2972 -0.0505
11120TIP3    H154851   4.269   5.301   2.423 -0.0844 -1.5333  0.8982
11120TIP3    H254852   4.359   5.382   2.514 -0.9157 -0.0794  0.4573
11121TIP3   OH254853   4.562   1.630  16.890 -0.2619  0.2143 -0.1121
11121TIP3    H154854   4.641   1.683  16.903 -0.2878  0.8478 -2.0876
11121TIP3    H254855   4.530   1.611  16.978  1.9152  0.1994  0.7279
11122TIP3   OH254856   2.356   5.296   5.031  0.0280 -0.3899 -0.4491
11122TIP3    H154857   2.282   5.250   5.070  0.2514 -1.1976 -0.9454
11122TIP3    H254858   2.426   5.231   5.030  0.4488  0.0655 -0.8713
11123TIP3   OH254859   0.347   5.234  12.221  0.6558  0.4472 -0.2298
11123TIP3    H154860   0.424   5.191  12.258 -0.2080 -1.0957 -0.1322
11123TIP3    H254861   0.347   5.209  12.129  0.4240  0.6730 -0.2947
11124TIP3   OH254862   1.269   6.740   0.410 -0.2428 -0.3175 -0.4714
11124TIP3    H154863   1.196   6.679   0.400 -0.6286  0.1165 -0.3380
11124TIP3    H254864   1.346   6.684   0.421 -0.8304 -0.8101  1.5139
11125TIP3   OH254865   4.989   6.258   4.471  0.3233 -0.0507 -0.2690
11125TIP3    H154866   4.954   6.319   4.406 -1.0794 -1.2560 -0.6978
11125TIP3    H254867   4.912   6.213   4.506  0.9423  1.0263  2.7617
11126TIP3   OH254868   6.693   6.573  12.595  0.3011 -0.0515  0.2384
11126TIP3    H154869   6.765   6.621  12.555  0.2931  0.7983  1.1968
11126TIP3    H254870   6.733   6.491  12.624  1.2093  0.8655  1.7759
11127TIP3   OH254871   3.377   6.426   4.602 -0.4300 -0.0838  0.4730
11127TIP3    H154872   3.462   6.382   4.612 -0.6741 -0.7500 -0.2731
11127TIP3    H254873   3.390   6.512   4.642  0.0825 -0.7907  1.9126
11128TIP3   OH254874   6.663   5.796  10.858 -0.8271  0.0809 -0.3780
11128TIP3    H154875   6.620   5.839  10.784  0.9645  0.9005 -0.9936
11128TIP3    H254876   6.712   5.724  10.819 -1.4528 -0.7291  0.2889
11129TIP3   OH254877   4.138   5.542   3.233 -0.2439  0.5522 -0.7641
11129TIP3    H154878   4.193   5.466   3.252 -1.4633 -0.2485 -0.3276
11129TIP3    H254879   4.194   5.617   3.254 -0.1800 -0.2251  2.3619
11130TIP3   OH254880   6.721   4.329  14.277  0.5043  0.1166 -0.3699
11130TIP3    H154881   6.771   4.410  14.292  1.3732 -0.1509 -1.7044
11130TIP3    H254882   6.630   4.357  14.282  0.7852  1.1060 -0.4320
11131TIP3   OH254883   4.013   1.987   1.239 -0.3155 -0.1408 -0.1828
11131TIP3    H154884   4.053   2.009   1.323 -2.5222  1.4489  0.5411
11131TIP3    H254885   4.079   2.011   1.174  0.5663  0.7282  0.9923
11132TIP3   OH254886   2.721   1.903   1.722 -0.4017 -0.6845 -0.1477
11132TIP3    H154887   2.690   1.973   1.779 -1.3607 -1.9423  0.9489
11132TIP3    H254888   2.802   1.873   1.764  0.3259  0.1374 -0.9418
11133TIP3   OH254889   0.336   4.343  11.400 -0.2590 -0.0899 -0.5160
11133TIP3    H154890   0.268   4.283  11.431  0.9194 -1.4917 -0.4859
11133TIP3    H254891   0.292   4.399  11.337 -1.6358 -0.3519  0.1762
11134TIP3   OH254892   4.216   1.935   3.123  0.4579  0.2961 -0.1050
11134TIP3    H154893   4.302   1.942   3.079  0.7490  1.5116  0.6045
11134TIP3    H254894   4.160   1.996   3.075  0.5080  0.8914  0.5751
11135TIP3   OH254895   2.880   1.467   3.250 -0.1537  0.0395 -0.2569
11135TIP3    H154896   2.972   1.464   3.278  0.2436  0.1677 -1.5154
11135TIP3    H254897   2.858   1.560   3.249 -0.7008 -0.0457  1.2560
11136TIP3   OH254898   5.866   5.735  16.457 -0.5672 -0.2378 -0.6130
11136TIP3    H154899   5.937   5.794  16.484 -1.6918  0.5507  0.7709
11136TIP3    H254900   5.845   5.685  16.536 -0.4922 -1.5921 -1.4357
11137TIP3   OH254901   5.277   2.377  10.683 -0.0608  0.5732 -0.0723
11137TIP3    H154902   5.312   2.333  10.761  0.9398  1.3740 -0.0555
11137TIP3    H254903   5.319   2.332  10.610  0.2112  0.8584 -0.0909
11138TIP3   OH254904   4.159   5.096   6.366  0.0616  0.3493  0.2677
11138TIP3    H154905   4.097   5.024   6.352 -1.7110  2.0273 -1.2075
11138TIP3    H254906   4.225   5.084   6.298 -0.3139  0.1934 -0.0735
11139TIP3   OH254907   4.687   3.350  16.543 -0.0626  0.2899 -0.2792
11139TIP3    H154908   4.752   3.304  16.596 -0.0172 -0.1470 -0.6989
11139TIP3    H254909   4.665   3.428  16.593  1.0288  0.6124 -0.2751
11140TIP3   OH254910   0.146   5.078   0.548 -0.5147  0.3441 -0.0851
11140TIP3    H154911   0.109   5.012   0.489 -1.4115 -0.4829  1.3465
11140TIP3    H254912   0.103   5.160   0.522  0.6523  0.4236 -1.9181
11141TIP3   OH254913   4.416   2.966   4.964  0.1483 -0.2711 -0.1441
11141TIP3    H154914   4.481   3.035   4.976  2.1291 -2.1425  0.4670
11141TIP3    H254915   4.346   2.988   5.025  0.5706  1.3599 -0.2116
11142TIP3   OH254916   5.195   6.304   0.117 -0.4145 -0.4711 -0.1925
11142TIP3    H154917   5.130   6.374   0.116 -1.4755 -1.2732  2.8154
11142TIP3    H254918   5.144   6.224   0.099  0.4678 -0.7563 -1.6869
11143TIP3   OH254919   0.047   3.307  12.441 -0.0986  0.1778 -0.7284
11143TIP3    H154920   0.109   3.334  12.373 -0.3507  0.0288 -1.0189
11143TIP3    H254921  -0.039   3.335  12.408 -0.6077 -2.3705 -1.8173
11144TIP3   OH254922   4.292   4.354  15.560  0.0334 -0.2729 -0.3564
11144TIP3    H154923   4.383   4.382  15.552  0.0272 -0.2277 -0.2665
11144TIP3    H254924   4.288   4.309  15.644 -0.7855  2.6716  1.3418
11145TIP3   OH254925   1.471   4.642   5.365  0.0669 -0.3752  0.1332
11145TIP3    H154926   1.479   4.715   5.426  0.9712 -0.8985  0.6638
11145TIP3    H254927   1.557   4.636   5.324 -0.6038  0.1677 -1.4571
11146TIP3   OH254928   1.291   0.008   3.328 -0.1849  0.1129 -0.5465
11146TIP3    H154929   1.314   0.069   3.258  0.5546  0.4443 -0.0224
11146TIP3    H254930   1.369   0.003   3.382 -1.3013  1.1891  1.2446
11147TIP3   OH254931   0.723   4.854  16.585 -0.1092 -0.5153  0.1224
11147TIP3    H154932   0.790   4.792  16.611  0.3010 -0.4459 -0.7322
11147TIP3    H254933   0.771   4.922  16.537 -0.9531 -1.3083 -1.9784
11148TIP3   OH254934   5.905   4.569   0.053 -0.5924 -0.1075  0.0991
11148TIP3    H154935   5.993   4.549   0.086 -1.0735 -1.6794  0.5396
11148TIP3    H254936   5.905   4.664   0.038  2.0521 -0.3838 -2.5681
11149TIP3   OH254937   2.200   3.053   0.805 -0.0261 -0.1355 -0.2952
11149TIP3    H154938   2.217   3.145   0.785  2.6233  0.0006  1.9655
11149TIP3    H254939   2.286   3.016   0.821 -1.2196 -2.2431  1.8828
11150TIP3   OH254940   5.805   2.819   4.005  0.2606 -0.0921  0.1305
11150TIP3    H154941   5.723   2.841   3.961  0.2503 -0.3116  0.0386
11150TIP3    H254942   5.851   2.761   3.944  0.5048  0.0645  0.1626
11151TIP3   OH254943   0.912   2.823   1.667  0.5166  0.3990 -0.5006
11151TIP3    H154944   0.998   2.819   1.707 -0.0913  0.5245  0.8912
11151TIP3    H254945   0.928   2.855   1.578  1.8530  0.7488 -0.1551
11152TIP3   OH254946   3.664   1.815   2.329 -0.2178 -0.5964  0.2589
11152TIP3    H154947   3.647   1.903   2.293 -1.2209 -1.2025 -0.8391
11152TIP3    H254948   3.613   1.757   2.272  0.4293 -1.8895  0.9810
11153TIP3   OH254949   2.403   2.492  11.798  0.1974 -0.7651 -0.9711
11153TIP3    H154950   2.397   2.585  11.777  2.7180 -0.6044 -1.3405
11153TIP3    H254951   2.320   2.471  11.840 -0.4084  1.6539 -0.8208
11154TIP3   OH254952   5.652   0.084   4.277 -0.7413 -0.3611  0.2800
11154TIP3    H154953   5.730   0.038   4.245 -0.9526 -0.2942 -0.3495
11154TIP3    H254954   5.629   0.144   4.206 -1.7651 -0.8652  0.1597
11155TIP3   OH254955   0.560   1.041  14.605  0.9000  0.1614  0.0684
11155TIP3    H154956   0.555   0.949  14.581  0.5443  0.6774 -1.9679
11155TIP3    H254957   0.470   1.073  14.600  0.9217  0.4942  1.4011
11156TIP3   OH254958   6.532   0.696  13.658 -0.0048  0.1817 -0.1199
11156TIP3    H154959   6.515   0.633  13.589  4.1118 -0.1519 -1.1240
11156TIP3    H254960   6.520   0.781  13.617 -0.4013  0.0139 -0.3537
11157TIP3   OH254961   1.618   6.731   2.173 -0.5412 -0.1894  0.5133
11157TIP3    H154962   1.611   6.826   2.186  0.9387 -0.0078  0.1259
11157TIP3    H254963   1.606   6.720   2.078 -0.1101 -0.3233  0.4737
11158TIP3   OH254964   1.840   1.830  15.721 -0.3658 -0.5647 -0.2023
11158TIP3    H154965   1.771   1.764  15.717 -2.3082  1.4205 -1.2767
11158TIP3    H254966   1.797   1.908  15.755  1.6279  0.4781  0.1034
11159TIP3   OH254967   4.477   1.532   3.452 -0.3764  0.0773  0.0886
11159TIP3    H154968   4.407   1.593   3.473 -1.5638 -1.5265  0.9928
11159TIP3    H254969   4.441   1.445   3.471  1.2685 -0.9283 -1.0756
11160TIP3   OH254970   4.987   1.654   5.342 -0.5466  0.2412 -0.2271
11160TIP3    H154971   4.938   1.736   5.341 -1.7196 -0.4153  0.7827
11160TIP3    H254972   4.959   1.609   5.262 -1.2539  0.0624  0.1182
11161TIP3   OH254973   1.541   0.085   4.697  0.1240 -0.7530  0.4385
11161TIP3    H154974   1.462   0.090   4.644  1.0116 -0.8623 -0.9280
11161TIP3    H254975   1.575   0.174   4.699 -0.4769 -0.5244  1.7708
11162TIP3   OH254976   5.469   6.536   4.686 -1.0634  0.0399 -0.1304
11162TIP3    H154977   5.525   6.588   4.743 -3.8192  0.7169  2.1981
11162TIP3    H254978   5.511   6.450   4.682  1.9339  1.4116 -1.4988
11163TIP3   OH254979   5.812   0.335  16.296 -0.1418  0.0594 -0.1089
11163TIP3    H154980   5.881   0.333  16.362 -0.0834  0.0581 -0.1698
11163TIP3    H254981   5.851   0.383  16.223  0.0666 -0.6036 -0.4431
11164TIP3   OH254982   2.041   3.483  11.550  0.3972  0.0798  0.4573
11164TIP3    H154983   2.134   3.461  11.542  0.6076  0.8992  0.5580
11164TIP3    H254984   2.010   3.493  11.460  0.9898  2.1105  0.4401
11165TIP3   OH254985   2.081   3.787  14.570 -0.3068  0.4026  0.0591
11165TIP3    H154986   2.169   3.822  14.584  0.1056 -0.3418 -0.5999
11165TIP3    H254987   2.062   3.805  14.478 -0.1566 -0.9146 -0.2475
11166TIP3   OH254988   3.429   1.226   0.871  0.0020  0.5942 -0.1311
11166TIP3    H154989   3.336   1.244   0.862 -0.2230  1.0292  2.4274
11166TIP3    H254990   3.464   1.304   0.915  0.9595 -0.8273  1.7545
11167TIP3   OH254991   3.896   2.229   5.779  0.1710  0.0981 -0.1744
11167TIP3    H154992   3.845   2.310   5.785  0.0311 -0.0622  1.0553
11167TIP3    H254993   3.836   2.161   5.810  0.4640 -0.4047 -0.6913
11168TIP3   OH254994   2.566   3.217   5.252  0.1417  0.0736  0.5332
11168TIP3    H154995   2.539   3.127   5.273  1.2327 -0.4976 -0.3625
11168TIP3    H254996   2.655   3.207   5.217 -0.7379  1.1710 -2.2431
11169TIP3   OH254997   2.972   5.440   5.601 -0.0735  0.6214 -0.3293
11169TIP3    H154998   3.057   5.402   5.579 -0.4635 -0.5970  0.1860
11169TIP3    H254999   2.913   5.408   5.533 -0.2839  0.8127 -0.2380
11170TIP3   OH255000   1.470   3.510   0.612 -0.2026 -0.1348 -0.0515
11170TIP3    H155001   1.470   3.557   0.695  0.6262 -1.6252  0.8140
11170TIP3    H255002   1.485   3.579   0.546 -1.4196  1.1441  0.9326
11171TIP3   OH255003   1.810   5.871  17.237  0.3046  0.2093  0.4651
11171TIP3    H155004   1.843   5.961  17.239 -1.8787  1.0628  1.0781
11171TIP3    H255005   1.886   5.817  17.256  1.8094  1.8748 -0.5763
11172TIP3   OH255006   6.768   3.982   2.032 -0.0380 -0.3235 -0.4186
11172TIP3    H155007   6.753   4.021   1.946 -2.1241  1.9119  0.8470
11172TIP3    H255008   6.681   3.975   2.071  0.9079 -0.6828  1.7721
11173TIP3   OH255009   2.489   1.778   4.725  0.5263  0.0465  0.0643
11173TIP3    H155010   2.485   1.738   4.638 -2.0994  0.3093 -0.0154
11173TIP3    H255011   2.409   1.749   4.768 -0.4754  3.4608  0.7795
11174TIP3   OH255012   5.877   1.762  12.678  0.0550 -0.1120 -0.1601
11174TIP3    H155013   5.855   1.851  12.705  0.0628  0.3535 -1.6082
11174TIP3    H255014   5.804   1.709  12.709 -0.1840  0.4646  0.2861
11175TIP3   OH255015   1.870   3.535  13.308  0.3561  0.1518 -0.4999
11175TIP3    H155016   1.849   3.505  13.397  0.1209 -3.6241 -1.6249
11175TIP3    H255017   1.818   3.614  13.296  0.3551  0.7480  2.6807
11176TIP3   OH255018   0.911   5.584   4.996  0.0111  0.4262  0.5643
11176TIP3    H155019   0.867   5.660   4.959 -0.8814  0.0916  0.9158
11176TIP3    H255020   0.989   5.620   5.038  0.0666  1.0291 -0.0368
11177TIP3   OH255021   6.372   6.088  16.539 -0.1490  0.3015  0.0264
11177TIP3    H155022   6.423   6.079  16.459  0.9376 -0.2018  0.7550
11177TIP3    H255023   6.306   6.019  16.534  0.0967  0.0886 -0.3063
11178TIP3   OH255024   6.478   1.910   5.143  0.7009 -0.2955  0.2271
11178TIP3    H155025   6.565   1.937   5.116 -0.1090  1.9180 -0.3583
11178TIP3    H255026   6.425   1.917   5.064 -0.0179 -1.7259  0.5471
11179TIP3   OH255027   2.485   5.270   4.593  0.7296  0.3484 -0.0276
11179TIP3    H155028   2.561   5.249   4.539  1.0530 -1.6266  1.0829
11179TIP3    H255029   2.486   5.204   4.663 -2.1597  0.0694 -0.1093
11180TIP3   OH255030   6.347   0.559  11.804  0.0041  0.1203 -0.4203
11180TIP3    H155031   6.411   0.596  11.743 -1.7960  0.8689 -1.9584
11180TIP3    H255032   6.299   0.494  11.752 -0.7409 -0.1510  0.5721
11181TIP3   OH255033   3.728   1.627   0.796  0.1860 -0.2868  0.5503
11181TIP3    H155034   3.643   1.586   0.811 -0.4058  0.4017 -0.7278
11181TIP3    H255035   3.713   1.687   0.723  2.3963 -2.1671 -1.6144
11182TIP3   OH255036   1.416   0.183  17.218  0.0402 -0.0295  0.1923
11182TIP3    H155037   1.508   0.188  17.195  0.5912  1.7253  2.3477
11182TIP3    H255038   1.414   0.136  17.302 -1.1424 -0.9233 -0.3094
11183TIP3   OH255039   1.207   4.562  15.008 -0.4011  0.2815  0.0446
11183TIP3    H155040   1.271   4.490  15.004 -0.3638  0.2311  1.2043
11183TIP3    H255041   1.133   4.531  14.957  0.2311  0.0713 -0.7790
11184TIP3   OH255042   5.615   3.829   5.883  0.3444  0.5800 -0.2885
11184TIP3    H155043   5.641   3.847   5.973 -0.6121  0.0654  0.1154
11184TIP3    H255044   5.696   3.829   5.833  0.9453  0.3771  0.6697
11185TIP3   OH255045   3.810   0.274  14.519  0.4005 -0.4647 -0.3616
11185TIP3    H155046   3.900   0.287  14.490 -0.0165  2.3776 -0.6149
11185TIP3    H255047   3.802   0.325  14.599 -0.6997 -1.6473  0.3287
11186TIP3   OH255048   0.675   4.646   5.325 -0.8775  0.4906  0.4850
11186TIP3    H155049   0.713   4.561   5.347 -3.8960 -1.2075 -0.3118
11186TIP3    H255050   0.619   4.667   5.399 -1.1335  1.1544  0.1085
11187TIP3   OH255051   4.896   0.357   4.620 -0.0818  0.2437  0.2292
11187TIP3    H155052   4.820   0.384   4.670  0.6616 -0.6062  1.8769
11187TIP3    H255053   4.951   0.435   4.616  0.1964  0.1316  1.4381
11188TIP3   OH255054   2.423   4.616   2.885 -0.0041 -0.1962 -0.6994
11188TIP3    H155055   2.498   4.556   2.883  0.3015  0.1868 -2.1771
11188TIP3    H255056   2.414   4.646   2.795 -1.7424  0.0437 -0.4815
11189TIP3   OH255057   6.004   3.812   5.259  0.4523 -0.8697 -0.4334
11189TIP3    H155058   6.032   3.824   5.168 -0.2554  0.1880 -0.5281
11189TIP3    H255059   5.911   3.832   5.258  0.1534 -2.1395  0.2910
11190TIP3   OH255060   3.327   0.546  15.275  0.1689 -0.0617  0.0541
11190TIP3    H155061   3.376   0.495  15.340 -0.2952 -0.1215  0.3647
11190TIP3    H255062   3.284   0.615  15.327  0.3673  0.3214 -0.2896
11191TIP3   OH255063   1.335   3.280  13.598 -0.0066  0.9825 -1.0827
11191TIP3    H155064   1.271   3.257  13.531  1.0444  0.6033 -1.9988
11191TIP3    H255065   1.361   3.196  13.635  1.8764  0.8328 -2.5756
11192TIP3   OH255066   0.499   1.109   3.815 -0.6035  0.0798 -0.6021
11192TIP3    H155067   0.590   1.118   3.841  0.2185  0.3465 -3.2739
11192TIP3    H255068   0.492   1.018   3.784 -1.1531  0.1918 -0.8167
11193TIP3   OH255069   5.364   3.183  16.660 -0.2009 -0.2442  0.4604
11193TIP3    H155070   5.437   3.179  16.598  1.0663 -1.4043  1.9585
11193TIP3    H255071   5.404   3.207  16.744 -1.8299  0.9919  0.9524
11194TIP3   OH255072   2.278   5.787  15.431 -0.0026  0.3765  0.4379
11194TIP3    H155073   2.372   5.794  15.420  0.1340 -0.6328  0.7901
11194TIP3    H255074   2.266   5.765  15.524 -0.4476 -1.2229  0.0354
11195TIP3   OH255075   6.295   3.877  11.004  0.3767 -0.2855 -0.2180
11195TIP3    H155076   6.253   3.844  11.083 -0.6337  0.9362 -0.2066
11195TIP3    H255077   6.255   3.963  10.990 -0.0090 -0.7766 -2.4762
11196TIP3   OH255078   4.662   2.787  16.137 -0.4017 -0.2894 -0.0622
11196TIP3    H155079   4.708   2.722  16.084 -0.7136  0.2219 -0.9844
11196TIP3    H255080   4.708   2.869  16.119 -1.5911  0.2151 -0.9276
11197TIP3   OH255081   3.801   3.242  13.713 -0.1182 -0.2127  0.1376
11197TIP3    H155082   3.795   3.187  13.791 -4.1313  1.2997  1.0955
11197TIP3    H255083   3.862   3.312  13.738  0.4926 -1.0275  1.0096
11198TIP3   OH255084   2.701   3.466  10.858 -0.4146 -0.0392 -0.1816
11198TIP3    H155085   2.631   3.508  10.807 -1.8186 -0.3077  1.4353
11198TIP3    H255086   2.689   3.373  10.844 -0.3800 -0.0862  0.0940
11199TIP3   OH255087   5.883   6.073   4.053 -0.2776  0.0984 -0.1414
11199TIP3    H155088   5.821   6.101   3.986  0.9247  2.4170 -0.3559
11199TIP3    H255089   5.944   6.145   4.061  1.4281 -1.4180  1.2776
11200TIP3   OH255090   3.773   5.081   2.098 -0.1758  0.3681  0.3815
11200TIP3    H155091   3.828   5.003   2.103 -0.1320  0.4840  2.8522
11200TIP3    H255092   3.707   5.060   2.031  0.0924 -1.6064  0.6798
11201TIP3   OH255093   2.125   4.737  15.669 -0.3122  0.7168  0.2645
11201TIP3    H155094   2.132   4.676  15.743  0.0647  0.7295  0.2434
11201TIP3    H255095   2.127   4.681  15.591  0.3886  0.7728  0.2340
11202TIP3   OH255096   5.132   5.010  14.045 -0.2473  0.1726  0.0493
11202TIP3    H155097   5.195   5.082  14.035 -2.1695  2.1578  1.3706
11202TIP3    H255098   5.078   5.015  13.966 -3.2862  3.3803  2.0216
11203TIP3   OH255099   4.398   4.049   5.423  0.1699  0.0508 -0.4892
11203TIP3    H155100   4.361   4.134   5.401  0.2704 -0.2743 -2.0385
11203TIP3    H255101   4.491   4.066   5.435  0.1032  0.2483 -0.2427
11204TIP3   OH255102   3.003   4.885  13.470  0.0985  0.1307 -0.0689
11204TIP3    H155103   2.916   4.870  13.506  1.0080 -0.0202  2.2133
11204TIP3    H255104   2.995   4.858  13.378 -2.2471  0.1831  0.0480
11205TIP3   OH255105   1.023   4.648   0.534  0.1557 -0.0081  0.0444
11205TIP3    H155106   0.956   4.686   0.591  1.5877  2.1599  0.4044
11205TIP3    H255107   1.105   4.686   0.564  1.8957 -3.8214  0.6694
11206TIP3   OH255108   3.213   5.331   3.247  0.1679 -0.4079  0.0253
11206TIP3    H155109   3.126   5.363   3.269  0.7725  0.4679  1.2760
11206TIP3    H255110   3.224   5.355   3.155  0.2281  2.2944  0.6509
11207TIP3   OH255111   3.833   2.967   5.549 -0.1451  0.8633 -0.0202
11207TIP3    H155112   3.921   2.959   5.587 -0.4405 -0.0848  0.5048
11207TIP3    H255113   3.793   3.039   5.598  0.0323  0.6954  0.3851
11208TIP3   OH255114   5.325   2.685  15.003  0.6855  0.0785  0.2182
11208TIP3    H155115   5.372   2.710  14.923 -1.2795  0.1857 -0.9452
11208TIP3    H255116   5.365   2.601  15.028 -0.2091 -1.1846 -2.2575
11209TIP3   OH255117   2.083   5.184  15.850 -0.1774  1.2332  0.5972
11209TIP3    H155118   2.131   5.106  15.826  1.7895  2.6056 -0.1690
11209TIP3    H255119   1.997   5.173  15.809  0.0540 -0.4716  0.4939
11210TIP3   OH255120   4.909   2.876   1.961 -0.2869 -0.5350  0.8805
11210TIP3    H155121   4.968   2.801   1.976  1.4689  0.3805 -0.9695
11210TIP3    H255122   4.865   2.856   1.879  0.3519  0.5343  0.2656
11211TIP3   OH255123   1.114   1.803   1.632 -0.1944 -0.4943 -0.8070
11211TIP3    H155124   1.147   1.880   1.677  0.5691  0.0154 -2.1918
11211TIP3    H255125   1.084   1.835   1.547 -2.6090 -1.2391 -0.3235
11212TIP3   OH255126   0.650   0.581  15.519 -0.7323  0.5377 -0.3991
11212TIP3    H155127   0.596   0.538  15.586  0.7398  0.2294  0.6200
11212TIP3    H255128   0.656   0.672  15.548  2.1732 -0.1284  1.5158
11213TIP3   OH255129   6.502   3.366  11.429  0.1485 -0.4991 -0.3579
11213TIP3    H155130   6.526   3.405  11.513 -0.0567 -0.7757 -0.1653
11213TIP3    H255131   6.462   3.437  11.380 -0.8677 -0.6204  0.2579
11214TIP3   OH255132   5.631   5.985   0.693  0.0447  0.3186  0.5185
11214TIP3    H155133   5.602   6.052   0.631  1.2086  0.0290 -0.3911
11214TIP3    H255134   5.720   6.012   0.718 -0.3303  0.3108  1.9151
11215TIP3   OH255135   1.301   1.554  15.142 -0.5324 -1.0290 -0.3847
11215TIP3    H155136   1.263   1.601  15.068 -0.4400 -0.8146 -0.2955
11215TIP3    H255137   1.301   1.617  15.214  1.1238 -0.6268 -0.7016
11216TIP3   OH255138   1.278   0.847   5.378  0.0642  0.2546  0.1259
11216TIP3    H155139   1.318   0.892   5.452  1.3098 -0.5767 -0.0052
11216TIP3    H255140   1.185   0.868   5.385  0.3540  1.3827  1.0673
11217TIP3   OH255141   3.269   4.515  12.958 -0.1605 -0.1385 -0.1206
11217TIP3    H155142   3.254   4.549  12.869  1.2420  0.4175 -0.1585
11217TIP3    H255143   3.299   4.590  13.008 -1.4098 -0.3402  0.9837
11218TIP3   OH255144   3.488   0.375  13.376 -0.0201  0.5070  0.0830
11218TIP3    H155145   3.521   0.325  13.301 -2.3994 -2.0640  0.5746
11218TIP3    H255146   3.515   0.323  13.452  0.3175  1.8072  0.8717
11219TIP3   OH255147   2.819   6.629   6.034 -0.6222 -0.1345 -0.1382
11219TIP3    H155148   2.876   6.692   6.077 -0.6916  0.4327 -0.8501
11219TIP3    H255149   2.847   6.631   5.942 -2.7640  1.2827 -0.8250
11220TIP3   OH255150   1.846   2.317  16.154 -0.2628 -0.2100  0.3548
11220TIP3    H155151   1.788   2.352  16.222 -1.8452  0.3664 -1.2270
11220TIP3    H255152   1.918   2.380  16.149 -1.5212  1.2319 -0.3411
11221TIP3   OH255153   2.646   0.224   1.407  0.2253  0.1935 -0.4196
11221TIP3    H155154   2.727   0.200   1.450  0.1216  1.8743  0.8029
11221TIP3    H255155   2.579   0.220   1.476  0.0866  3.0874 -0.2643
11222TIP3   OH255156   1.460   5.202  16.091  0.5019  0.2896  0.8542
11222TIP3    H155157   1.383   5.188  16.147 -0.1779 -1.6024 -0.4703
11222TIP3    H255158   1.430   5.180  16.003  1.9612  1.7704 -0.0707
11223TIP3   OH255159   4.440   0.803  12.453 -0.0891 -0.0322  0.3014
11223TIP3    H155160   4.458   0.860  12.527  0.2316 -1.0047  0.9930
11223TIP3    H255161   4.486   0.722  12.474 -2.4991 -1.4277  0.5076
11224TIP3   OH255162   3.985   6.741   6.653 -0.1196 -0.3324 -0.1599
11224TIP3    H155163   3.899   6.781   6.638 -0.0030  0.1525  0.4202
11224TIP3    H255164   3.969   6.678   6.723 -0.1846 -0.9001 -0.6806
11225TIP3   OH255165   0.531   4.874  14.501  0.1531  0.1858  0.3279
11225TIP3    H155166   0.443   4.894  14.531 -0.5698 -0.7462 -1.0421
11225TIP3    H255167   0.522   4.865  14.406  1.4436 -1.2337  0.3012
11226TIP3   OH255168   5.457   2.934  13.002 -0.1249 -0.2207 -0.7343
11226TIP3    H155169   5.516   2.895  13.067  0.6797  2.2300  0.1488
11226TIP3    H255170   5.493   2.907  12.918 -1.4203 -3.8089 -0.3187
11227TIP3   OH255171   5.646   6.026  11.641  0.5469  0.4447  0.1953
11227TIP3    H155172   5.739   6.024  11.665  0.7085  0.3653 -0.4121
11227TIP3    H255173   5.610   6.101  11.688  0.4936 -0.5934  1.9224
11228TIP3   OH255174   0.763   5.830  14.158  0.1840 -0.0370 -0.5611
11228TIP3    H155175   0.688   5.864  14.206 -0.7911 -2.0551 -0.5389
11228TIP3    H255176   0.729   5.756  14.108  1.7148  0.3602 -2.3413
11229TIP3   OH255177   4.059   4.463  14.569 -0.1428 -0.2558  0.7026
11229TIP3    H155178   4.082   4.413  14.647  1.9468 -0.0716  0.2759
11229TIP3    H255179   4.097   4.550  14.585 -1.9360  0.5865  0.5621
11230TIP3   OH255180   1.269   2.119  15.895  0.2842 -0.2997 -0.0283
11230TIP3    H155181   1.198   2.182  15.905  0.6121 -0.2274  2.3385
11230TIP3    H255182   1.230   2.035  15.919  1.3975  0.0398  3.5854
11231TIP3   OH255183   3.391   6.345   2.446 -0.4460 -0.0934  0.6995
11231TIP3    H155184   3.443   6.405   2.500 -1.4884  2.1907 -0.6498
11231TIP3    H255185   3.450   6.317   2.377 -0.8258  2.3822 -0.7508
11232TIP3   OH255186   2.296   2.413   4.752 -0.1949 -0.3757 -0.1853
11232TIP3    H155187   2.274   2.336   4.699 -1.8422  0.7154 -1.2211
11232TIP3    H255188   2.285   2.385   4.842 -1.1425 -1.2805 -0.5595
11233TIP3   OH255189   5.343   2.680  13.814 -0.0917 -0.0898  0.3733
11233TIP3    H155190   5.254   2.699  13.843 -0.1296  0.3061 -0.0013
11233TIP3    H255191   5.391   2.661  13.895 -0.5480 -0.4623  0.5656
11234TIP3   OH255192   0.211   4.450  12.853 -0.0329  0.0181  0.2244
11234TIP3    H155193   0.237   4.360  12.873  0.0578 -0.0091 -0.0090
11234TIP3    H255194   0.294   4.498  12.845 -0.0990  0.4462  1.7709
11235TIP3   OH255195   1.515   0.723  11.152 -0.0357 -0.1750 -0.0293
11235TIP3    H155196   1.504   0.776  11.231 -0.8294  0.2851 -0.4410
11235TIP3    H255197   1.553   0.782  11.087  1.0517 -0.6707  0.1240
11236TIP3   OH255198   0.658   2.831   1.160  0.4370 -0.5960 -0.2715
11236TIP3    H155199   0.691   2.814   1.071 -0.4887  1.2238 -1.0131
11236TIP3    H255200   0.684   2.921   1.178 -2.0768  0.1233  0.0424
11237TIP3   OH255201   1.752   5.630   3.747  0.3831  0.1165  0.1003
11237TIP3    H155202   1.779   5.541   3.772 -3.4603 -0.8052  1.6859
11237TIP3    H255203   1.746   5.626   3.651  0.5620 -1.2497  0.1216
11238TIP3   OH255204   4.964   2.562  12.402 -0.5869  0.2716 -0.7328
11238TIP3    H155205   4.942   2.481  12.354  0.4591  0.1825 -1.0865
11238TIP3    H255206   5.035   2.601  12.351  1.9850 -0.8357  1.7617
11239TIP3   OH255207   6.054   1.105  12.723  0.2399  0.1080  0.5147
11239TIP3    H155208   6.145   1.121  12.697  0.3794 -0.0075  0.9350
11239TIP3    H255209   6.010   1.080  12.642 -0.1500  3.2666 -0.4004
11240TIP3   OH255210   3.998   1.173   1.635 -0.2378 -0.6363  0.1698
11240TIP3    H155211   3.936   1.213   1.573  0.8626 -0.9772 -1.2172
11240TIP3    H255212   3.972   1.205   1.720 -1.1854  0.6965 -0.5952
11241TIP3   OH255213   6.295   4.112  15.942  0.3094  0.0104  0.2095
11241TIP3    H155214   6.346   4.072  15.871  1.8726  1.2143  0.5888
11241TIP3    H255215   6.341   4.086  16.021 -0.2357  0.3320  0.6361
11242TIP3   OH255216   0.694   6.754  12.156  0.4807 -0.3669 -0.5875
11242TIP3    H155217   0.710   6.719  12.068  1.3146 -0.1300 -0.5392
11242TIP3    H255218   0.719   6.846  12.150  0.5785 -0.3566 -0.0898
11243TIP3   OH255219   4.979   5.423   3.121 -0.2116 -0.3548  0.5811
11243TIP3    H155220   4.966   5.395   3.030  1.1027 -0.8503  0.5237
11243TIP3    H255221   4.989   5.342   3.170  1.3943 -0.0831  0.7706
11244TIP3   OH255222   0.774   1.063   0.916 -0.3964 -0.0521  0.2705
11244TIP3    H155223   0.843   1.017   0.868  0.4817 -0.2134  1.6277
11244TIP3    H255224   0.723   1.108   0.848  1.0000  0.0118 -0.7788
11245TIP3   OH255225   6.431   3.365  16.129 -0.3459  0.4072  0.8801
11245TIP3    H155226   6.357   3.424  16.114 -0.1855 -0.1624 -3.4473
11245TIP3    H255227   6.396   3.278  16.110  1.1344 -0.0001 -0.0791
11246TIP3   OH255228   1.961   6.058  15.573  0.1796  0.7999  0.2208
11246TIP3    H155229   2.038   6.068  15.517  0.7614  3.2744  1.3143
11246TIP3    H255230   1.895   6.115  15.533 -0.0462  1.0543  0.9419
11247TIP3   OH255231   5.329   2.508  14.656  0.0671  0.0991 -0.2705
11247TIP3    H155232   5.272   2.449  14.606 -1.9096  0.5879  1.2635
11247TIP3    H255233   5.357   2.456  14.731  0.1749  0.4150 -0.0900
11248TIP3   OH255234   6.120   4.323  16.473  0.3405  0.1413  0.6673
11248TIP3    H155235   6.151   4.311  16.563  0.3777  0.7659  0.7357
11248TIP3    H255236   6.053   4.391  16.479  1.4099  1.2862  0.0019
11249TIP3   OH255237   6.107   5.335   0.717  0.4012  0.0707  0.4220
11249TIP3    H155238   6.180   5.332   0.656 -0.4553  0.0929 -0.6461
11249TIP3    H255239   6.115   5.419   0.761  1.3991 -0.2246  0.8273
11250TIP3   OH255240   1.079   6.481   1.601 -0.3415 -0.1088 -0.5106
11250TIP3    H155241   1.149   6.442   1.652 -0.6621 -1.9617 -1.3968
11250TIP3    H255242   0.998   6.453   1.645 -0.5676  1.4899  0.1458
11251TIP3   OH255243   3.338   2.689  11.559  0.5173  0.3468 -0.3232
11251TIP3    H155244   3.391   2.768  11.543  1.3885  0.0427  0.9275
11251TIP3    H255245   3.247   2.721  11.558  0.8937  1.6472  1.4188
11252TIP3   OH255246   0.848   2.622  12.451 -0.1071 -0.0183  0.2276
11252TIP3    H155247   0.798   2.572  12.515 -0.6447 -1.6927 -1.3822
11252TIP3    H255248   0.831   2.578  12.368  2.5761  0.4703 -0.6985
11253TIP3   OH255249   3.701   0.239  12.075  0.3060  0.5262  0.3044
11253TIP3    H155250   3.744   0.219  12.158  1.4822 -1.8619 -0.8013
11253TIP3    H255251   3.644   0.313  12.095 -0.6298 -0.9185  3.6221
11254TIP3   OH255252   4.283   6.336  16.261 -0.0186  0.4846 -0.0224
11254TIP3    H155253   4.213   6.315  16.324  0.2009 -0.5976 -0.1272
11254TIP3    H255254   4.254   6.418  16.221 -1.6844 -0.3858 -0.7037
11255TIP3   OH255255   0.839   5.889   3.805  0.1850 -0.0234  0.0355
11255TIP3    H155256   0.896   5.927   3.738 -0.4522 -0.7211 -0.9312
11255TIP3    H255257   0.759   5.942   3.801 -0.1939 -0.6175 -0.3824
11256TIP3   OH255258   3.878   1.768   5.170  0.3350 -0.0949  0.3948
11256TIP3    H155259   3.918   1.774   5.083  3.2773  0.6740  1.6781
11256TIP3    H255260   3.846   1.678   5.175 -1.2273  0.2438 -1.9464
11257TIP3   OH255261   2.296   3.089   2.471  0.2961  0.1086 -0.8875
11257TIP3    H155262   2.362   3.138   2.422  0.9218  0.8320  0.5856
11257TIP3    H255263   2.337   3.075   2.557 -1.6411  1.0355  0.2461
11258TIP3   OH255264   0.805   0.818  11.498  0.9009 -0.1475 -0.6569
11258TIP3    H155265   0.886   0.849  11.539  0.6938  0.8587 -0.9775
11258TIP3    H255266   0.834   0.775  11.417  1.1886 -0.7410 -0.2418
11259TIP3   OH255267   2.501   4.885  12.664 -0.0081 -0.0146  0.2243
11259TIP3    H155268   2.414   4.899  12.702  0.5042  3.3403  0.4766
11259TIP3    H255269   2.497   4.929  12.579  1.7558  1.2706  0.7539
11260TIP3   OH255270   4.903   5.482  13.642  0.0122  0.6511  0.1759
11260TIP3    H155271   4.891   5.393  13.609 -0.8849  0.6789  0.4148
11260TIP3    H255272   4.986   5.511  13.602 -0.1133  0.0193 -0.5691
11261TIP3   OH255273   5.398   5.017   5.028  0.4446  0.1015  0.0924
11261TIP3    H155274   5.331   4.948   5.023 -0.4650  0.7023  2.4128
11261TIP3    H255275   5.475   4.979   4.988 -0.9065 -1.0957 -1.5340
11262TIP3   OH255276   1.745   1.847   4.306 -0.8462 -0.4936  0.0563
11262TIP3    H155277   1.737   1.893   4.389 -1.1324 -0.8576  0.2343
11262TIP3    H255278   1.748   1.754   4.330 -0.0660 -0.5657 -0.2813
11263TIP3   OH255279   0.122   0.074  11.377 -0.1654 -0.0425 -0.5967
11263TIP3    H155280   0.215   0.051  11.376  0.1157  1.0321 -1.1306
11263TIP3    H255281   0.077  -0.007  11.401  1.0112 -0.2125  1.1925
11264TIP3   OH255282   1.430   5.702   4.712 -0.0289  0.1227  0.1425
11264TIP3    H155283   1.484   5.776   4.740  0.8621 -0.8342  1.0212
11264TIP3    H255284   1.485   5.654   4.650  0.6703 -1.5115  1.9181
11265TIP3   OH255285   2.670   6.582  14.886  0.0623 -0.1981  0.8540
11265TIP3    H155286   2.677   6.584  14.982  4.2328  1.6552  0.7423
11265TIP3    H255287   2.669   6.675  14.861 -0.8151 -0.6497 -0.9471
11266TIP3   OH255288   0.374   0.079  16.876  0.3069  0.3805 -0.4151
11266TIP3    H155289   0.314   0.048  16.809 -0.5403  0.1010  0.4372
11266TIP3    H255290   0.333   0.159  16.909  1.8256  1.7659 -1.7159
11267TIP3   OH255291   0.125   6.511  12.853 -0.4834  0.0899  0.2231
11267TIP3    H155292   0.201   6.454  12.855 -0.6015 -0.0971  2.1590
11267TIP3    H255293   0.147   6.582  12.915 -1.3681  0.7155 -0.1564
11268TIP3   OH255294   4.285   4.706  16.491  0.0597 -0.4369  0.2468
11268TIP3    H155295   4.329   4.634  16.446  1.2526 -1.0572  2.3080
11268TIP3    H255296   4.342   4.728  16.565 -0.3237  2.5658 -0.1961
11269TIP3   OH255297   0.938   2.621   1.323  0.4655  0.1834  0.3430
11269TIP3    H155298   0.858   2.671   1.339  0.1620  0.0659 -0.7364
11269TIP3    H255299   0.914   2.531   1.342 -0.3297 -0.1731 -2.0143
11270TIP3   OH255300   5.607   1.563  15.181  0.0639 -0.2842  0.0119
11270TIP3    H155301   5.658   1.630  15.135 -1.5191  1.6033  0.8637
11270TIP3    H255302   5.604   1.593  15.272 -0.0774 -1.9176  0.5820
11271TIP3   OH255303   3.986   2.661  15.140  0.6344 -0.5443 -0.0051
11271TIP3    H155304   4.019   2.712  15.213  0.2165  0.2978 -0.3965
11271TIP3    H255305   3.897   2.694  15.125  0.5617 -0.9906 -0.6323
11272TIP3   OH255306   3.636   6.746  13.539  0.3514 -0.2877  0.1538
11272TIP3    H155307   3.618   6.711  13.626  0.7362  0.0578  0.3761
11272TIP3    H255308   3.717   6.796  13.549 -0.0441  0.4506 -0.2146
11273TIP3   OH255309   1.571   5.078  13.326 -0.0878  0.5563  0.0913
11273TIP3    H155310   1.528   5.154  13.365  1.9128  0.9840  1.6173
11273TIP3    H255311   1.518   5.057  13.249 -0.6985  3.5195 -0.4174
11274TIP3   OH255312   0.977   0.301  14.641  0.4484  0.2522  0.0427
11274TIP3    H155313   0.926   0.227  14.673  2.4177 -1.3963 -0.3869
11274TIP3    H255314   0.952   0.310  14.550 -1.4050  1.6033  0.6416
11275TIP3   OH255315   3.831   2.163  16.227 -0.5145 -0.3434  0.3469
11275TIP3    H155316   3.772   2.203  16.162 -0.3933 -1.2319 -0.3298
11275TIP3    H255317   3.792   2.078  16.246  0.6994 -1.0840 -0.3505
11276TIP3   OH255318   2.664   5.310  13.005 -0.1237 -0.3820 -0.9763
11276TIP3    H155319   2.719   5.271  13.073  0.8342  0.4021 -1.2802
11276TIP3    H255320   2.658   5.243  12.937  3.1440  0.5694 -2.4031
11277TIP3   OH255321   5.486   2.934   0.512 -0.4314  0.3388  0.6082
11277TIP3    H155322   5.521   2.909   0.597  0.7930  1.3205  0.4197
11277TIP3    H255323   5.558   2.981   0.469 -0.7514 -0.7974 -1.2763
11278TIP3   OH255324   1.955   1.018   1.664  0.1395  0.1809  0.5293
11278TIP3    H155325   1.907   1.100   1.672  1.1416  0.8121  0.1810
11278TIP3    H255326   1.936   0.987   1.575  0.8014  0.7229  0.1854
11279TIP3   OH255327   2.238   4.457  11.148  0.0010  0.4275 -0.1020
11279TIP3    H155328   2.205   4.378  11.104  0.7953 -0.3445  0.6654
11279TIP3    H255329   2.229   4.526  11.082 -0.1270 -0.4275 -1.0013
11280TIP3   OH255330   5.108   3.774   4.427 -0.1142 -0.2488 -0.2841
11280TIP3    H155331   5.135   3.716   4.356  0.7695  0.0605 -0.2093
11280TIP3    H255332   5.183   3.831   4.442  0.1934 -1.0734  1.6953
11281TIP3   OH255333   1.505   4.585   1.162  1.1005  0.1175 -0.0219
11281TIP3    H155334   1.585   4.634   1.179  3.0578 -2.5327 -0.9494
11281TIP3    H255335   1.524   4.535   1.082 -1.5629 -0.4568 -0.3873
11282TIP3   OH255336   4.013   2.834  13.551 -0.1204  0.6168  0.2218
11282TIP3    H155337   4.019   2.900  13.620 -1.0024  1.9239 -0.9052
11282TIP3    H255338   3.934   2.857  13.502 -0.1605 -0.9736 -0.5414
11283TIP3   OH255339   3.990   5.386  13.416  0.3610  0.2223 -0.2431
11283TIP3    H155340   4.026   5.302  13.385 -0.0778 -0.0886  0.0741
11283TIP3    H255341   3.956   5.427  13.336 -2.2885 -1.3277 -0.0316
11284TIP3   OH255342   2.634   5.398  14.720 -0.0521 -0.4019 -0.1563
11284TIP3    H155343   2.656   5.335  14.789 -1.6617 -0.0364  0.7561
11284TIP3    H255344   2.567   5.454  14.759  0.9699  1.6134 -1.0962
11285TIP3   OH255345   0.025   6.544   4.587 -0.2995 -0.3098  0.1218
11285TIP3    H155346   0.081   6.502   4.522 -0.6012  0.5351 -0.6954
11285TIP3    H255347  -0.053   6.488   4.592  0.9861 -2.1026  2.0468
11286TIP3   OH255348   5.200   3.286   2.259 -0.2915  0.6132 -0.7155
11286TIP3    H155349   5.279   3.338   2.245 -0.2706  1.3404  1.6037
11286TIP3    H255350   5.232   3.199   2.283  0.1377  1.6879  3.4852
11287TIP3   OH255351   6.806   1.962   2.595 -0.3621  0.6459 -0.1124
11287TIP3    H155352   6.787   1.903   2.521  1.1262 -0.0306  0.0085
11287TIP3    H255353   6.847   1.905   2.660 -2.2077  1.1063  1.5317
11288TIP3   OH255354   1.493   4.533  16.662  0.2534  0.7826  0.0891
11288TIP3    H155355   1.512   4.499  16.749 -2.2918  0.6448  0.6823
11288TIP3    H255356   1.415   4.587  16.674  1.3108  2.8363 -1.7030
11289TIP3   OH255357   4.731   2.160   5.482  0.2593 -0.1221  0.6094
11289TIP3    H155358   4.800   2.152   5.548  0.4993 -0.4938  0.3217
11289TIP3    H255359   4.651   2.170   5.533  0.5731  0.7949  0.9419
11290TIP3   OH255360   2.223   0.787   4.229 -0.6441  0.6479 -0.4312
11290TIP3    H155361   2.253   0.734   4.303  1.4402 -2.7870 -3.4182
11290TIP3    H255362   2.268   0.871   4.239 -0.4289  0.3117  2.0759
11291TIP3   OH255363   4.113   2.089  15.518 -0.1817 -0.2848 -0.5116
11291TIP3    H155364   4.101   2.006  15.563 -1.6751 -0.8090 -1.7969
11291TIP3    H255365   4.201   2.084  15.481 -0.0346 -1.0423 -0.0666
11292TIP3   OH255366   0.625   6.106   0.696 -0.6034 -0.1090 -0.8002
11292TIP3    H155367   0.561   6.059   0.750 -0.9016  0.5134 -0.6004
11292TIP3    H255368   0.655   6.041   0.632 -0.4036 -0.7943 -0.0247
11293TIP3   OH255369   0.287   5.609  16.515  0.0294 -0.4224 -0.6686
11293TIP3    H155370   0.201   5.573  16.493 -0.7976  1.2470 -0.3052
11293TIP3    H255371   0.326   5.544  16.574 -1.1777 -0.9800 -0.4587
11294TIP3   OH255372   4.995   4.142  12.164 -0.1940 -0.6600  0.2107
11294TIP3    H155373   5.062   4.199  12.201  1.5333 -1.2761 -1.7382
11294TIP3    H255374   4.993   4.066  12.222  1.6092 -1.1025 -0.2363
11295TIP3   OH255375   0.580   5.350  14.299  0.1806 -0.0981  0.0278
11295TIP3    H155376   0.633   5.424  14.329 -0.5949 -0.7753  3.6229
11295TIP3    H255377   0.627   5.273  14.332 -2.0690 -0.7838  1.9743
11296TIP3   OH255378   5.495   1.244   4.497  0.3589 -0.3364  0.5684
11296TIP3    H155379   5.466   1.322   4.449  1.2031 -0.2681  0.1640
11296TIP3    H255380   5.481   1.266   4.589 -1.6262 -0.6087  0.3858
11297TIP3   OH255381   0.787   2.559  12.983 -0.5473  0.1808  0.4239
11297TIP3    H155382   0.810   2.562  12.890  0.3443 -1.2519  0.5719
11297TIP3    H255383   0.697   2.529  12.984 -0.1447 -1.0969  0.0408
11298TIP3   OH255384   4.463   2.023  17.007  0.0169  0.7516 -0.0753
11298TIP3    H155385   4.524   2.097  17.008  0.7838  0.1194  0.8746
11298TIP3    H255386   4.518   1.945  17.001 -0.7885  0.2334 -1.0565
11299TIP3   OH255387   4.138   2.021   2.171  0.1084  0.0275  0.3244
11299TIP3    H155388   4.053   1.996   2.134 -0.4697  0.6201  1.2206
11299TIP3    H255389   4.151   2.112   2.144  0.4987 -0.0837  0.1262
11300TIP3   OH255390   6.726   0.558  11.806 -0.1611  0.2671 -0.3222
11300TIP3    H155391   6.704   0.637  11.855  1.4833  0.5711 -0.0209
11300TIP3    H255392   6.662   0.556  11.734 -1.1223  1.0737  0.4766
11301TIP3   OH255393   0.106   2.208   0.505 -0.3509 -0.3628 -0.1639
11301TIP3    H155394   0.141   2.171   0.424  0.0399  1.3146 -0.8083
11301TIP3    H255395   0.182   2.243   0.551 -0.8299  0.9622 -0.3206
11302TIP3   OH255396   4.940   1.777  11.944  0.1608  0.6517  0.4269
11302TIP3    H155397   4.883   1.843  11.903 -0.2334  0.4460  0.6397
11302TIP3    H255398   5.018   1.774  11.888 -0.2703  0.5488 -0.1725
11303TIP3   OH255399   1.621   1.211  11.463  0.0669 -0.0211  0.5034
11303TIP3    H155400   1.682   1.139  11.480 -0.5963 -0.5268  0.7865
11303TIP3    H255401   1.653   1.283  11.518  1.6995  0.4725 -0.9878
11304TIP3   OH255402   6.816   6.212   4.702 -0.3256  0.3323  0.2265
11304TIP3    H155403   6.830   6.181   4.612 -1.5403 -0.4534  0.2712
11304TIP3    H255404   6.783   6.301   4.692  1.0428  0.8312 -0.0194
11305TIP3   OH255405   0.453   2.242  17.092  0.6849  0.3067  0.4330
11305TIP3    H155406   0.521   2.191  17.048  0.8830  0.2338  0.8228
11305TIP3    H255407   0.395   2.271  17.021  1.9257  1.6065 -0.0947
11306TIP3   OH255408   4.662   4.219  13.682 -0.5473 -0.0331  0.3141
11306TIP3    H155409   4.652   4.228  13.587  1.2378  0.1912  0.1016
11306TIP3    H255410   4.600   4.151  13.706 -1.8070  0.6521 -0.8388
11307TIP3   OH255411   3.837   1.493  15.492 -0.3552 -0.2832 -0.4014
11307TIP3    H155412   3.840   1.552  15.567 -2.3352 -1.6421  0.8719
11307TIP3    H255413   3.806   1.547  15.420 -0.6017  0.5759  0.3284
11308TIP3   OH255414   2.788   2.401  14.266 -0.8689 -0.1278 -0.0854
11308TIP3    H155415   2.783   2.437  14.354 -2.8600  1.8820 -0.9405
11308TIP3    H255416   2.882   2.399  14.246 -0.2834 -1.5550  2.3526
11309TIP3   OH255417   1.538   5.679  11.323 -0.3930 -1.0392 -0.2186
11309TIP3    H155418   1.610   5.617  11.338  0.2002 -0.0272  1.3926
11309TIP3    H255419   1.546   5.703  11.231 -0.0682 -2.6480 -0.6335
11310TIP3   OH255420   3.357   5.978   4.063  0.4381 -0.4489 -0.3386
11310TIP3    H155421   3.262   5.976   4.062  0.4514 -0.7649 -0.9669
11310TIP3    H255422   3.382   5.991   3.972  0.9822  0.4784 -0.0740
11311TIP3   OH255423   0.744   2.607  11.166 -0.3679  0.5453  0.4920
11311TIP3    H155424   0.709   2.652  11.243  0.8233 -1.9193  2.6371
11311TIP3    H255425   0.838   2.601  11.182 -0.0684  0.0484 -1.2496
11312TIP3   OH255426   1.591   0.723   3.943 -0.0507 -0.1279 -0.4859
11312TIP3    H155427   1.638   0.747   3.864  0.9331 -0.6255 -0.0610
11312TIP3    H255428   1.502   0.704   3.913 -0.1719  1.4359 -1.2009
11313TIP3   OH255429   1.611   3.966  15.026 -0.0803 -0.0465  0.5942
11313TIP3    H155430   1.612   3.960  14.931 -0.2512  0.2249  0.5748
11313TIP3    H255431   1.644   3.881  15.056 -0.1798 -0.1894  0.2961
11314TIP3   OH255432   6.354   5.504   5.512  0.3319  0.2511  0.1019
11314TIP3    H155433   6.280   5.446   5.530 -0.1067  1.2345  1.6341
11314TIP3    H255434   6.343   5.530   5.421  0.1016 -1.4300 -0.3748
11315TIP3   OH255435   1.815   4.131   5.967 -0.0597  0.0491  0.4118
11315TIP3    H155436   1.788   4.115   6.057 -0.2474 -0.2538  0.3038
11315TIP3    H255437   1.856   4.217   5.969 -1.5332  0.7687  0.4796
11316TIP3   OH255438   0.921   3.192   3.501  0.2452  0.0512 -0.2470
11316TIP3    H155439   0.862   3.117   3.500 -0.3183  0.4885 -0.8148
11316TIP3    H255440   0.921   3.224   3.411  0.4184  0.7779  0.0035
11317TIP3   OH255441   0.519   6.278   1.317 -0.1101 -0.2250 -0.0978
11317TIP3    H155442   0.557   6.197   1.351  1.2218  0.5774  0.3878
11317TIP3    H255443   0.523   6.339   1.390  0.5532  0.7978 -0.9513
11318TIP3   OH255444   5.021   0.714   5.833  0.0056  0.3733  0.3886
11318TIP3    H155445   4.952   0.692   5.896  0.7528 -0.8534  0.8271
11318TIP3    H255446   5.062   0.792   5.869 -0.5105  0.5268  0.6548
11319TIP3   OH255447   6.822   4.364   3.498  0.7039 -0.0302  0.0132
11319TIP3    H155448   6.786   4.448   3.528  2.1305  0.4259  0.4934
11319TIP3    H255449   6.760   4.299   3.532  1.3485  0.5934  2.5824
11320TIP3   OH255450   4.101   5.386  15.109 -0.4749  0.6625 -0.9671
11320TIP3    H155451   4.189   5.416  15.133  0.3566 -1.8491 -0.5668
11320TIP3    H255452   4.114   5.296  15.081 -2.7399  0.7282 -2.4393
11321TIP3   OH255453   1.626   3.263   3.144 -0.1454  0.0923  0.1270
11321TIP3    H155454   1.712   3.264   3.102  0.0178 -2.1342  0.3203
11321TIP3    H255455   1.565   3.286   3.074  0.3960 -0.6309 -0.6002
11322TIP3   OH255456   5.615   4.070   1.238  0.4213 -0.0479  0.6597
11322TIP3    H155457   5.679   4.050   1.307 -0.4349 -0.0018  1.4886
11322TIP3    H255458   5.589   4.160   1.255  0.6661  0.1816 -0.1276
11323TIP3   OH255459   0.875   0.136   0.804  0.5279 -0.2493  0.2310
11323TIP3    H155460   0.960   0.094   0.815  0.5566 -0.4411 -0.6593
11323TIP3    H255461   0.877   0.211   0.863  0.3737 -1.6136  2.0919
11324TIP3   OH255462   5.420   0.822   4.583 -0.0009 -0.1557  0.2896
11324TIP3    H155463   5.443   0.879   4.510 -0.3718 -0.6050 -0.1780
11324TIP3    H255464   5.432   0.733   4.550 -0.3956 -0.3655  0.6980
11325TIP3   OH255465   4.277   6.270  14.638 -0.2496  0.0154 -0.9289
11325TIP3    H155466   4.255   6.180  14.663 -0.3298  0.2492 -0.1550
11325TIP3    H255467   4.252   6.323  14.713  0.8039  0.5673 -0.9454
11326TIP3   OH255468   4.215   5.388   4.556 -0.5907  0.1922 -0.0758
11326TIP3    H155469   4.242   5.477   4.534 -2.3122  0.9280  0.5788
11326TIP3    H255470   4.218   5.384   4.651 -0.8079 -0.3498 -0.0880
11327TIP3   OH255471   4.891   1.345  14.831  0.1917 -0.4553  0.0122
11327TIP3    H155472   4.815   1.330  14.888  0.1688  1.3040  0.5108
11327TIP3    H255473   4.965   1.355  14.891  0.0887  1.8851 -0.1527
11328TIP3   OH255474   5.349   5.771  14.739  0.5936 -0.3191  0.7274
11328TIP3    H155475   5.311   5.704  14.682 -0.6315  2.4850 -2.0645
11328TIP3    H255476   5.289   5.777  14.813  0.0905 -1.5001  0.4289
11329TIP3   OH255477   1.297   0.313   3.691  0.4080 -0.2227 -0.2649
11329TIP3    H155478   1.341   0.377   3.635 -0.5683 -1.5703 -2.6957
11329TIP3    H255479   1.218   0.357   3.721  0.7907  0.4040 -0.1525
11330TIP3   OH255480   0.387   5.963   4.285  0.0980  0.0052 -0.1289
11330TIP3    H155481   0.304   5.938   4.243 -2.4228  3.2759  2.2962
11330TIP3    H255482   0.393   5.906   4.362  1.6062 -1.9824 -1.6234
11331TIP3   OH255483   2.206   2.837  15.130 -0.0839 -0.3801  0.9850
11331TIP3    H155484   2.277   2.887  15.171  1.7528 -2.5531  0.6410
11331TIP3    H255485   2.179   2.774  15.196  2.6681 -3.6842 -0.6972
11332TIP3   OH255486   5.105   6.056  10.873 -0.0781  0.2409  0.4044
11332TIP3    H155487   5.170   6.059  10.944 -0.3772 -0.1815  0.7011
11332TIP3    H255488   5.062   5.971  10.884 -0.3580  0.3196 -0.0799
11333TIP3   OH255489   1.133   2.514  15.524 -0.0316  0.8515  0.1447
11333TIP3    H155490   1.078   2.436  15.521  0.8360  0.2381 -0.1281
11333TIP3    H255491   1.130   2.550  15.435 -1.6749  2.0375  0.6334
11334TIP3   OH255492   3.096   6.292  13.987  0.2542  0.1754 -0.3523
11334TIP3    H155493   3.071   6.379  14.016  0.4685  0.1648 -0.1377
11334TIP3    H255494   3.014   6.242  13.988  0.2976  0.1088  0.4555
11335TIP3   OH255495   2.673   1.025  14.615 -0.0577  0.6764  0.9270
11335TIP3    H155496   2.620   1.013  14.694 -1.0338 -0.8416  0.0972
11335TIP3    H255497   2.742   0.958  14.623  0.7380  1.5055  1.1757
11336TIP3   OH255498   2.726   2.804  17.132  0.3050  0.1771  0.1056
11336TIP3    H155499   2.655   2.818  17.071  0.9923 -0.8677 -0.9889
11336TIP3    H255500   2.723   2.710  17.151  0.9972  0.2339  0.5414
11337TIP3   OH255501   1.536   5.993  13.802  0.1041  0.2203 -0.3438
11337TIP3    H155502   1.573   6.026  13.884  0.2492 -1.2275  0.1866
11337TIP3    H255503   1.465   6.055  13.782  0.6421  1.0998  0.3852
11338TIP3   OH255504   6.142   5.938   0.334 -0.1478  0.9649 -0.1573
11338TIP3    H155505   6.118   5.935   0.241  0.7023  1.6994 -0.4173
11338TIP3    H255506   6.224   5.889   0.338 -0.0666  1.1273  0.1637
11339TIP3   OH255507   3.387   5.435  16.367 -0.1461  0.4584  0.0238
11339TIP3    H155508   3.332   5.509  16.394 -0.0325  0.6251 -0.1979
11339TIP3    H255509   3.432   5.409  16.447  1.0882  1.7129 -0.2244
11340TIP3   OH255510   5.213   5.192   2.875  0.1300 -0.1379  0.4636
11340TIP3    H155511   5.169   5.178   2.959 -0.2351 -1.4627  0.0742
11340TIP3    H255512   5.222   5.287   2.868  0.8996 -0.0314  2.3658
11341TIP3   OH255513   2.173   3.246   6.751  0.5320 -0.1090 -0.5171
11341TIP3    H155514   2.258   3.202   6.760  0.5095 -0.1327 -0.4186
11341TIP3    H255515   2.115   3.178   6.717 -0.3542 -1.1695  2.7840
11342TIP3   OH255516   2.493   5.899   2.376  0.3197  0.2939 -0.1034
11342TIP3    H155517   2.402   5.890   2.348  0.0530  2.1028  0.1187
11342TIP3    H255518   2.493   5.972   2.438  1.9709  0.5466 -0.3504
11343TIP3   OH255519   1.216   3.267  12.731 -0.2164  0.4714  0.4217
11343TIP3    H155520   1.191   3.199  12.669 -0.4964  1.7074 -0.8786
11343TIP3    H255521   1.276   3.224  12.792  0.9104 -0.5413 -1.3342
11344TIP3   OH255522   5.328   6.680  14.659  0.1601  0.2166 -0.3737
11344TIP3    H155523   5.359   6.589  14.663  1.2159  0.5821  0.0984
11344TIP3    H255524   5.382   6.726  14.723 -0.5401  1.1316 -0.4305
11345TIP3   OH255525   1.293   3.155   5.103  0.6554 -0.2344  0.5858
11345TIP3    H155526   1.385   3.145   5.126  0.2692  0.8606  3.0081
11345TIP3    H255527   1.246   3.137   5.185 -1.4285 -2.1285 -0.8735
11346TIP3   OH255528   5.177   3.039   5.129  0.3842 -0.6017  0.5802
11346TIP3    H155529   5.238   3.037   5.055 -1.6438  0.5935 -1.2346
11346TIP3    H255530   5.204   2.966   5.185  4.3660  0.7206  0.6991
11347TIP3   OH255531   3.193   4.553  15.873 -0.8947  0.3297 -0.1569
11347TIP3    H155532   3.263   4.602  15.830 -0.2163 -0.2330  0.2958
11347TIP3    H255533   3.131   4.620  15.902  0.4370  1.0150  1.2363
11348TIP3   OH255534   2.980   3.684  12.014  0.0248  0.0884 -0.2171
11348TIP3    H155535   2.971   3.751  12.081  0.1397  0.4189 -0.5272
11348TIP3    H255536   2.958   3.729  11.932  0.2828 -0.2043 -0.4502
11349TIP3   OH255537   0.824   3.526  14.636  0.2819 -0.5826  0.0485
11349TIP3    H155538   0.788   3.491  14.718  2.0713  0.4268  1.3397
11349TIP3    H255539   0.915   3.495  14.634  0.5389  0.1734 -1.0825
11350TIP3   OH255540   0.039   4.955   1.450  0.2242  0.1660  0.5583
11350TIP3    H155541   0.027   5.010   1.527 -0.2452  1.4640 -0.3998
11350TIP3    H255542  -0.050   4.928   1.426  0.4859 -1.6962  1.4366
11351TIP3   OH255543   3.254   0.535  16.452 -0.1179 -0.3619  0.5308
11351TIP3    H155544   3.268   0.504  16.542  0.5743 -0.4275  0.4048
11351TIP3    H255545   3.230   0.456  16.403  0.1749 -0.4439  0.5177
11352TIP3   OH255546   4.385   5.816   5.264  0.0680  1.3255 -0.2482
11352TIP3    H155547   4.375   5.787   5.355  3.1542  0.4188 -0.0574
11352TIP3    H255548   4.353   5.743   5.212  1.0757  0.5426  0.1858
11353TIP3   OH255549   6.251   0.675   1.079  0.8888 -0.1208  0.2335
11353TIP3    H155550   6.335   0.695   1.121 -0.1800  1.6904  1.6628
11353TIP3    H255551   6.188   0.672   1.150 -0.4050 -0.7172 -0.8907
11354TIP3   OH255552   2.960   5.798  13.492  0.1389 -0.8149  0.2589
11354TIP3    H155553   2.882   5.843  13.524  0.3320 -0.6898  0.5505
11354TIP3    H255554   2.946   5.789  13.398  0.5928  0.8247  0.0078
11355TIP3   OH255555   3.119   0.289  13.350 -0.3728  0.1247 -0.9370
11355TIP3    H155556   3.074   0.207  13.328  0.6428 -0.5566 -0.5282
11355TIP3    H255557   3.151   0.321  13.266  0.1438 -0.4599 -0.9723
11356TIP3   OH255558   4.716   1.212  15.417 -0.1888  0.1271 -0.1358
11356TIP3    H155559   4.721   1.269  15.340 -0.0078 -1.2316 -1.1489
11356TIP3    H255560   4.632   1.235  15.457  0.8564  2.7154  0.8144
11357TIP3   OH255561   0.919   0.701   5.533  0.6865  0.4897  0.1560
11357TIP3    H155562   0.922   0.650   5.452 -1.1354  1.4416 -0.5886
11357TIP3    H255563   0.937   0.791   5.506 -0.1936  0.8632  0.7342
11358TIP3   OH255564   5.456   0.376   5.091 -0.4673 -0.3559  0.2734
11358TIP3    H155565   5.403   0.382   5.170 -0.9470 -0.8646  0.0025
11358TIP3    H255566   5.398   0.334   5.027 -0.1840  0.3090 -0.4303
11359TIP3   OH255567   1.451   0.112   2.564 -0.0749 -0.6371  0.5103
11359TIP3    H155568   1.400   0.078   2.491 -0.1662 -3.0873  1.6379
11359TIP3    H255569   1.536   0.068   2.557  1.2681  1.8073 -0.1122
11360TIP3   OH255570   2.492   2.431  14.181  0.5002  0.3711  0.1901
11360TIP3    H155571   2.582   2.451  14.206  1.0508 -0.0680 -1.3608
11360TIP3    H255572   2.479   2.340  14.208  1.4307 -0.4395 -1.8642
11361TIP3   OH255573   2.986   6.343   4.109  0.1903 -0.6798  0.0051
11361TIP3    H155574   2.932   6.347   4.030 -0.4141  0.8201  0.4571
11361TIP3    H255575   3.076   6.354   4.077 -0.0076 -0.5068 -0.5100
11362TIP3   OH255576   0.344   4.436   1.645 -0.1061 -0.2540  0.8450
11362TIP3    H155577   0.332   4.524   1.680 -2.3591  1.0444 -2.6856
11362TIP3    H255578   0.265   4.389   1.670 -0.6600 -0.0375 -0.4574
11363TIP3   OH255579   0.935   4.642  14.692  0.4392  0.2147  0.0572
11363TIP3    H155580   0.860   4.666  14.638 -0.9345 -1.0376  1.2988
11363TIP3    H255581   0.899   4.636  14.781  1.8047 -1.2486  0.5525
11364TIP3   OH255582   5.989   5.932  14.630  0.0320  0.1555 -0.5038
11364TIP3    H155583   5.977   5.838  14.636 -0.1577  0.2312  0.3764
11364TIP3    H255584   5.960   5.954  14.542 -1.0889 -0.4336 -0.2976
11365TIP3   OH255585   5.013   5.808  11.004 -0.1196 -0.0166 -0.1427
11365TIP3    H155586   5.004   5.717  11.033 -0.5576 -0.0688 -0.4351
11365TIP3    H255587   5.088   5.841  11.054  1.1307 -1.0164 -1.2789
11366TIP3   OH255588   4.851   5.736   5.008 -0.4473 -0.6355  0.2174
11366TIP3    H155589   4.870   5.685   5.087 -4.3339  1.4731  2.8705
11366TIP3    H255590   4.901   5.817   5.020  0.6173 -1.1462 -0.6440
11367TIP3   OH255591   1.741   2.350   0.749  0.1415  0.3271  0.0076
11367TIP3    H155592   1.673   2.375   0.812 -1.1929 -0.5022 -1.0533
11367TIP3    H255593   1.733   2.414   0.679  1.4268  1.0668  0.5045
11368TIP3   OH255594   2.876   2.046  13.475 -0.0130 -0.2998  0.0679
11368TIP3    H155595   2.874   2.057  13.570  2.0397  1.5113 -0.0272
11368TIP3    H255596   2.904   1.955  13.462  0.4061 -0.3480  1.2114
11369TIP3   OH255597   3.313   1.604  15.775 -0.0679  0.4456  0.4749
11369TIP3    H155598   3.403   1.576  15.756 -0.6223 -0.0148 -1.8315
11369TIP3    H255599   3.323   1.689  15.818  1.4925 -0.6627  2.4986
11370TIP3   OH255600   1.481   0.827  15.135 -0.5373 -0.1234  0.0474
11370TIP3    H155601   1.536   0.895  15.173 -1.2721 -0.0029  0.9316
11370TIP3    H255602   1.472   0.852  15.043  1.2574 -0.4182 -0.2377
11371TIP3   OH255603   5.815   5.755   1.845  0.4812  0.2542 -0.5749
11371TIP3    H155604   5.901   5.796   1.839  0.4788  0.2685 -0.5156
11371TIP3    H255605   5.764   5.795   1.774  0.8764 -0.6168 -1.3590
11372TIP3   OH255606   0.987   3.703   4.774  0.3584  0.0955  0.4779
11372TIP3    H155607   1.042   3.646   4.828  0.2988 -0.2376  0.1893
11372TIP3    H255608   1.038   3.716   4.694 -0.3211 -0.8442 -0.1110
11373TIP3   OH255609   1.889   2.133  14.630  0.7202  0.8971  0.3335
11373TIP3    H155610   1.867   2.213  14.678 -1.1438 -0.7526  2.4881
11373TIP3    H255611   1.984   2.138  14.616  0.6793  3.3582  0.5622
11374TIP3   OH255612   5.833   0.541  12.702 -0.4609  0.3889  0.2829
11374TIP3    H155613   5.875   0.576  12.623  0.0431 -1.2103 -0.1943
11374TIP3    H255614   5.841   0.446  12.694 -1.9351  0.1239  1.4378
11375TIP3   OH255615   1.464   6.405   4.234 -0.0533  0.4875  0.5398
11375TIP3    H155616   1.448   6.372   4.145  0.8974  0.5943  0.3116
11375TIP3    H255617   1.380   6.397   4.278 -0.0828 -1.3908  0.2204
11376TIP3   OH255618   3.803   3.001   2.462  0.3032 -0.1722 -0.1120
11376TIP3    H155619   3.841   3.089   2.461  0.1395 -0.0918 -1.3760
11376TIP3    H255620   3.785   2.983   2.554  1.0165  0.8218  0.2356
11377TIP3   OH255621   2.877   4.305   2.387 -0.2028 -0.0147 -0.1647
11377TIP3    H155622   2.794   4.322   2.431 -0.1681 -0.5555  0.1167
11377TIP3    H255623   2.854   4.252   2.311  0.0067 -1.1606  0.5548
11378TIP3   OH255624   0.673   5.923   4.314  0.1584  0.0835 -0.3437
11378TIP3    H155625   0.692   5.868   4.238 -0.5752 -1.8259  0.7836
11378TIP3    H255626   0.586   5.959   4.297  0.7503  1.2016 -1.2064
11379TIP3   OH255627   6.774   5.537   1.190 -0.3200  0.1963 -0.6022
11379TIP3    H155628   6.695   5.577   1.226  0.0916 -0.0002  0.5504
11379TIP3    H255629   6.780   5.452   1.234  0.6728  0.3176 -0.4843
11380TIP3   OH255630   5.119   4.936  14.963  0.3112 -0.1544 -0.0954
11380TIP3    H155631   5.152   4.951  14.874 -1.4552 -1.7565 -1.0964
11380TIP3    H255632   5.161   4.856  14.992 -0.0456 -0.3066  0.0110
11381TIP3   OH255633   6.031   4.081   1.985 -0.4263 -0.1157 -0.2289
11381TIP3    H155634   6.121   4.064   1.957 -0.8579 -0.8377 -1.2450
11381TIP3    H255635   6.033   4.170   2.021  0.2893  0.6805 -2.1147
11382TIP3   OH255636   6.517   4.066   1.350  0.3326  0.3204 -0.3215
11382TIP3    H155637   6.599   4.098   1.386  0.4664  1.2611 -1.4185
11382TIP3    H255638   6.481   4.010   1.419  2.3141 -0.8708 -0.1839
11383TIP3   OH255639   3.190   6.119  16.896 -0.1157  0.0233  0.6303
11383TIP3    H155640   3.243   6.138  16.819 -1.1762 -0.1960 -0.1737
11383TIP3    H255641   3.100   6.113  16.863 -0.8519  1.6991  2.1605
11384TIP3   OH255642   4.062   1.761   2.682 -0.1040 -0.2230 -0.1242
11384TIP3    H155643   4.069   1.810   2.600 -0.9889  0.3330  0.1166
11384TIP3    H255644   3.974   1.781   2.714 -0.4224 -1.8321  0.0853
11385TIP3   OH255645   1.670   0.609  11.666  0.3940  0.2509  0.1620
11385TIP3    H155646   1.580   0.577  11.665 -0.1528  1.6769  0.7168
11385TIP3    H255647   1.702   0.593  11.577  0.6811 -3.0691  0.7444
11386TIP3   OH255648   3.337   0.971  12.945 -0.0294 -0.2391  0.3390
11386TIP3    H155649   3.283   1.004  13.017  1.8208  3.3691  0.2970
11386TIP3    H255650   3.427   0.978  12.977  0.7244 -0.7347 -1.5243
11387TIP3   OH255651   4.765   4.575   3.851 -0.1446  0.0691 -0.2373
11387TIP3    H155652   4.760   4.485   3.818 -0.3797  0.1716 -0.4896
11387TIP3    H255653   4.856   4.602   3.836  0.0738 -0.3183  0.3568
11388TIP3   OH255654   0.666   1.526   5.061  0.0831 -0.4238  0.1645
11388TIP3    H155655   0.582   1.483   5.077 -0.5107  0.3107 -0.8692
11388TIP3    H255656   0.661   1.608   5.109  0.6171 -0.8142  0.9063
11389TIP3   OH255657   0.558   6.409  16.544  0.0798 -0.4773  0.3827
11389TIP3    H155658   0.510   6.481  16.586  0.7590 -0.8259  1.8369
11389TIP3    H255659   0.503   6.383  16.470 -0.8278  0.6493  0.6388
11390TIP3   OH255660   0.387   4.394  15.301 -0.6414 -0.1655  0.2164
11390TIP3    H155661   0.383   4.456  15.374 -0.7462  0.5050 -0.3498
11390TIP3    H255662   0.378   4.448  15.223 -0.3732 -0.8598 -0.3063
11391TIP3   OH255663   0.461   4.052   2.128  0.1982 -0.1923 -0.9374
11391TIP3    H155664   0.382   3.998   2.119 -0.6413  0.9148 -0.5460
11391TIP3    H255665   0.450   4.121   2.062 -0.2271  1.1704  0.4657
11392TIP3   OH255666   3.787   6.621   1.163  0.0987  0.4129 -0.2387
11392TIP3    H155667   3.807   6.673   1.085  1.2380  1.6490  0.8250
11392TIP3    H255668   3.819   6.674   1.236 -0.8911 -0.7333  1.0783
11393TIP3   OH255669   0.611   4.627  12.110 -0.3720  0.3374 -0.2404
11393TIP3    H155670   0.610   4.595  12.020  1.6972  0.4336 -0.3476
11393TIP3    H255671   0.660   4.561  12.159 -0.3000  0.9392  0.5250
11394TIP3   OH255672   1.390   5.717   2.374 -0.3498  0.3525 -0.1381
11394TIP3    H155673   1.327   5.780   2.338  1.7122  2.1053 -0.8698
11394TIP3    H255674   1.414   5.662   2.299 -1.1248 -0.4591  0.1905
11395TIP3   OH255675   4.025   6.774  11.283 -0.3875 -0.1088 -0.7281
11395TIP3    H155676   4.076   6.814  11.213  0.5695 -2.6895 -1.6175
11395TIP3    H255677   3.943   6.747  11.241 -0.3450 -0.5239 -0.5487
11396TIP3   OH255678   4.302   5.015  15.613 -0.1994 -0.4367  0.5105
11396TIP3    H155679   4.353   4.975  15.543  0.1398 -2.2054  1.7087
11396TIP3    H255680   4.261   5.091  15.573 -0.4867 -1.7174 -1.7610
11397TIP3   OH255681   2.719   1.519   5.696 -0.3322 -0.0760  0.0555
11397TIP3    H155682   2.757   1.444   5.742  0.1603  2.0178  3.3879
11397TIP3    H255683   2.625   1.515   5.716 -0.1436  0.7450  1.1779
11398TIP3   OH255684   5.605   3.276  16.035 -0.2507 -0.0460  0.3993
11398TIP3    H155685   5.602   3.238  16.123  4.3016  2.1883  1.8402
11398TIP3    H255686   5.670   3.223  15.989  0.2858  1.1502 -0.2540
11399TIP3   OH255687   3.494   4.329   4.193 -0.4007  0.3145 -0.0808
11399TIP3    H155688   3.507   4.329   4.098 -1.8810  0.4574 -0.3054
11399TIP3    H255689   3.577   4.298   4.228  0.2713  0.5313 -1.4039
11400TIP3   OH255690   1.904   6.406   2.841 -0.3476 -0.2715 -0.4845
11400TIP3    H155691   1.988   6.363   2.858 -0.4197  0.3514  1.7404
11400TIP3    H255692   1.839   6.342   2.868 -0.5148  0.1358  0.0957
11401TIP3   OH255693   1.884   4.099   4.450  0.3033 -0.2067 -0.1966
11401TIP3    H155694   1.906   4.099   4.357  0.7158 -1.1599 -0.1081
11401TIP3    H255695   1.879   4.007   4.474  0.9614  0.0249  0.9048
11402TIP3   OH255696   5.333   6.244   1.481  0.3944  0.0134 -0.2078
11402TIP3    H155697   5.408   6.234   1.540 -1.2605  2.4372  2.5907
11402TIP3    H255698   5.342   6.333   1.447 -0.6427 -0.0439 -0.6672
11403TIP3   OH255699   2.662   1.562  15.933  0.5122 -0.2450  0.2790
11403TIP3    H155700   2.751   1.557  15.968  0.4123 -0.4229  0.5089
11403TIP3    H255701   2.671   1.538  15.841  0.4306 -2.1606  0.7379
11404TIP3   OH255702   4.638   6.201  13.240  0.1008 -0.3083 -0.3521
11404TIP3    H155703   4.636   6.296  13.231 -2.7616 -0.3057 -0.7732
11404TIP3    H255704   4.620   6.186  13.333  2.0305 -0.4733  0.0244
11405TIP3   OH255705   0.496   5.741   5.365 -0.0231  0.0409  0.0717
11405TIP3    H155706   0.470   5.798   5.438  0.6411 -0.2811  0.5599
11405TIP3    H255707   0.543   5.799   5.305 -0.8472  0.3768 -0.2685
11406TIP3   OH255708   3.517   3.673   4.249  0.2965  0.4116  0.1047
11406TIP3    H155709   3.514   3.715   4.163 -2.2125 -1.0991 -0.6437
11406TIP3    H255710   3.473   3.735   4.307  0.2844  0.6073 -0.1104
11407TIP3   OH255711   6.412   5.236  16.355  0.0947 -0.9795 -0.7485
11407TIP3    H155712   6.421   5.331  16.346 -1.1171 -0.8473 -0.6727
11407TIP3    H255713   6.502   5.203  16.348  0.6486  0.2511  0.1642
11408TIP3   OH255714   4.382   6.711  15.648  0.5357 -0.7152 -0.1167
11408TIP3    H155715   4.347   6.791  15.687 -0.1861 -1.8598  1.6806
11408TIP3    H255716   4.374   6.726  15.553 -2.9657 -0.0628  0.1349
11409TIP3   OH255717   0.398   4.376   5.825  0.5611 -0.6773  0.0742
11409TIP3    H155718   0.465   4.412   5.767  0.3747 -1.0830 -0.3946
11409TIP3    H255719   0.379   4.290   5.789 -0.9498 -0.1780 -0.3915
11410TIP3   OH255720   1.475   6.480   5.118 -0.3439 -0.0056  0.0681
11410TIP3    H155721   1.561   6.522   5.108 -0.4979  1.2965  3.2504
11410TIP3    H255722   1.495   6.393   5.152 -0.2708  0.1400  0.3984
11411TIP3   OH255723   2.036   3.811   2.098 -0.3015 -0.3852  0.0530
11411TIP3    H155724   2.067   3.721   2.090 -2.7607 -1.1527 -2.6480
11411TIP3    H255725   2.040   3.830   2.191  2.7753 -2.2583  0.4643
11412TIP3   OH255726   2.580   0.680  14.755  0.0739 -0.0896 -0.9449
11412TIP3    H155727   2.544   0.673  14.666 -0.7549  1.2813 -0.7414
11412TIP3    H255728   2.503   0.689  14.811  0.6634  2.0372 -0.3993
11413TIP3   OH255729   3.554   4.492  12.749  0.1236 -0.0485  0.0284
11413TIP3    H155730   3.593   4.500  12.836  1.3817 -0.0743 -0.5104
11413TIP3    H255731   3.592   4.411  12.713 -2.0951 -1.2893  0.2829
11414TIP3   OH255732   5.722   4.299   3.896  0.4583 -0.0564  0.0644
11414TIP3    H155733   5.729   4.233   3.828  0.3302 -1.8765  1.7397
11414TIP3    H255734   5.629   4.300   3.920  0.9951 -2.0801  2.6164
11415TIP3   OH255735   3.980   2.986   5.306 -0.4807 -0.0938  0.4243
11415TIP3    H155736   3.974   2.967   5.400 -2.4373 -1.5539  0.0860
11415TIP3    H255737   3.952   2.904   5.264  1.4541  0.1416 -1.4820
11416TIP3   OH255738   2.272   1.310   3.270 -0.3939  0.0059  0.6496
11416TIP3    H155739   2.300   1.332   3.181  5.5304  1.6160  2.4324
11416TIP3    H255740   2.309   1.223   3.286 -1.1322 -0.1444  1.6012
11417TIP3   OH255741   0.969   5.431  12.766  0.1312  0.6712  0.4112
11417TIP3    H155742   1.059   5.406  12.785  0.4778  1.7072  0.2100
11417TIP3    H255743   0.945   5.378  12.690 -0.0864 -0.9748  1.5713
11418TIP3   OH255744   6.514   3.337  13.876  0.2677 -0.2276  0.4594
11418TIP3    H155745   6.587   3.382  13.918  1.4175 -1.1299 -0.5158
11418TIP3    H255746   6.523   3.246  13.904 -0.1020 -0.4729 -0.2017
11419TIP3   OH255747   3.242   5.274  12.263 -0.0272 -0.0196 -0.1542
11419TIP3    H155748   3.241   5.179  12.274  1.3439  0.0414  0.6412
11419TIP3    H255749   3.176   5.305  12.324  0.0366 -0.4054  0.1162
11420TIP3   OH255750   3.689   2.066  13.785 -0.9622 -0.3206  0.5283
11420TIP3    H155751   3.732   2.061  13.699 -1.3696  0.6156  0.2551
11420TIP3    H255752   3.619   2.001  13.780 -1.3754  0.1531 -0.0965
11421TIP3   OH255753   4.562   3.716  16.586 -0.0772  0.1545  0.4162
11421TIP3    H155754   4.488   3.656  16.585  1.9762 -2.6095 -1.2282
11421TIP3    H255755   4.626   3.674  16.644  1.8733  0.0330 -1.6756
11422TIP3   OH255756   6.729   1.178   4.764  0.3241  0.2580  0.0893
11422TIP3    H155757   6.814   1.187   4.722  0.0334  0.8465 -0.4079
11422TIP3    H255758   6.671   1.235   4.712 -0.3244  0.0152  0.5305
11423TIP3   OH255759   1.652   1.951   2.240  0.1620 -0.1668  0.3640
11423TIP3    H155760   1.604   1.870   2.258  0.2476 -0.3083 -0.0232
11423TIP3    H255761   1.723   1.952   2.303  0.0954 -0.3401  0.4410
11424TIP3   OH255762   1.973   5.016   2.472  0.4255  0.2992  0.4590
11424TIP3    H155763   1.993   4.969   2.391 -3.0117 -0.8698  0.0864
11424TIP3    H255764   1.933   5.098   2.443  2.9570  1.8518  1.0968
11425TIP3   OH255765   5.466   4.228   0.368  0.4091 -0.0522  0.1415
11425TIP3    H155766   5.549   4.230   0.320  1.0289  1.6003  1.1926
11425TIP3    H255767   5.452   4.136   0.389  3.0471 -0.2059  1.6881
11426TIP3   OH255768   5.259   1.740  11.610 -0.0542 -0.4136 -0.2004
11426TIP3    H155769   5.282   1.759  11.701 -2.0164 -0.3493  0.3213
11426TIP3    H255770   5.199   1.666  11.616  0.3530 -0.8733 -1.5216
11427TIP3   OH255771   3.529   4.085  11.264  0.2945 -0.4912  0.0950
11427TIP3    H155772   3.524   4.085  11.168  1.0395  2.2394 -0.0363
11427TIP3    H255773   3.605   4.031  11.284  1.2365  0.3585 -1.0057
11428TIP3   OH255774   3.550   1.423  17.239 -0.3897  0.5481  0.7951
11428TIP3    H155775   3.629   1.476  17.230  1.4222 -2.1758 -0.2640
11428TIP3    H255776   3.571   1.359  17.307 -1.1379 -1.0376 -0.3985
11429TIP3   OH255777   5.691   2.030   0.889 -0.7392 -0.5643  0.3938
11429TIP3    H155778   5.765   2.027   0.949 -0.8551  0.1268  0.5776
11429TIP3    H255779   5.729   2.049   0.803 -0.6330 -0.9498  0.3545
11430TIP3   OH255780   5.911   4.733  14.719  0.3783  0.2389  0.0859
11430TIP3    H155781   5.903   4.641  14.696  0.4445  0.5663 -1.3619
11430TIP3    H255782   5.821   4.762  14.735  0.2762  0.1054 -0.2417
11431TIP3   OH255783   2.131   6.078   0.620 -0.3857 -0.1792 -0.3860
11431TIP3    H155784   2.079   6.000   0.640  0.6068 -0.8357 -0.2371
11431TIP3    H255785   2.123   6.089   0.526 -2.6579  1.1300 -0.0875
11432TIP3   OH255786   4.039   1.098  13.014 -0.2366  0.3178 -0.3577
11432TIP3    H155787   4.087   1.172  12.978  0.0136  0.2118 -0.2454
11432TIP3    H255788   3.973   1.077  12.948  2.1758 -1.8811 -2.2535
11433TIP3   OH255789   3.340   0.606  11.982 -0.0788  0.2977 -0.4015
11433TIP3    H155790   3.293   0.613  11.899  0.8312  0.7022 -0.8892
11433TIP3    H255791   3.415   0.663  11.973 -0.8169  1.6563  1.3214
11434TIP3   OH255792   4.884   1.409   6.767 -0.0608 -0.0819  0.3816
11434TIP3    H155793   4.962   1.394   6.713  0.7247  1.0267  1.1620
11434TIP3    H255794   4.899   1.358   6.846 -0.8974 -1.1568 -0.1238
11435TIP3   OH255795   6.275   0.164   4.057  0.1570 -0.1581 -0.1976
11435TIP3    H155796   6.359   0.210   4.066  0.5882 -1.1298  1.1730
11435TIP3    H255797   6.228   0.184   4.138  0.0631 -1.5245  0.1081
11436TIP3   OH255798   1.744   4.257  12.427 -0.5577  0.0033  0.2353
11436TIP3    H155799   1.757   4.348  12.457 -0.4110  0.6600 -1.7111
11436TIP3    H255800   1.655   4.256  12.391  0.7446  0.5565 -3.4309
11437TIP3   OH255801   0.464   1.933   4.967  0.5467  0.1705  0.2384
11437TIP3    H155802   0.555   1.927   4.995  0.1493 -1.0301  1.3399
11437TIP3    H255803   0.468   1.975   4.881  2.4212 -2.6269 -1.1790
11438TIP3   OH255804   1.347   2.394  11.791  0.6858 -0.2425  0.1085
11438TIP3    H155805   1.391   2.472  11.757 -0.6545  0.0830 -0.9809
11438TIP3    H255806   1.407   2.322  11.773  0.5840  0.1153 -1.8099
11439TIP3   OH255807   1.666   5.046  13.956 -0.2574 -0.1741 -0.8721
11439TIP3    H155808   1.754   5.018  13.931 -0.3290  0.2128 -1.5850
11439TIP3    H255809   1.643   5.114  13.892 -1.4458 -0.9168 -1.2775
11440TIP3   OH255810   3.382   3.453   6.835 -0.1177  0.3992  0.3773
11440TIP3    H155811   3.399   3.360   6.819  0.2722  0.0154  2.6458
11440TIP3    H255812   3.468   3.491   6.848 -0.3505  0.7599  0.9048
11441TIP3   OH255813   1.118   1.914  13.220  0.2523 -0.3633  0.2885
11441TIP3    H155814   1.161   1.854  13.160  1.2242 -2.2462  2.6843
11441TIP3    H255815   1.176   1.917  13.296 -1.1702  1.4347  1.3784
11442TIP3   OH255816   1.983   1.698  16.417  0.3224  0.3063  0.1659
11442TIP3    H155817   1.960   1.669  16.505 -3.4208 -0.2079 -0.8034
11442TIP3    H255818   1.912   1.664  16.362  1.2315  2.6319 -2.6723
11443TIP3   OH255819   0.717   3.179   5.929  0.8354 -0.2872 -0.4314
11443TIP3    H155820   0.722   3.272   5.907 -0.4993 -0.0990 -0.0183
11443TIP3    H255821   0.755   3.173   6.017 -1.2835  0.3007  0.5848
11444TIP3   OH255822   0.274   6.211  13.067 -0.0142  0.1317 -0.3620
11444TIP3    H155823   0.289   6.117  13.075  1.5684  0.3841 -0.0190
11444TIP3    H255824   0.260   6.226  12.974 -1.2901 -0.5471 -0.3104
11445TIP3   OH255825   2.773   2.277   6.657  0.3524  0.6507  0.5371
11445TIP3    H155826   2.862   2.308   6.639  0.1220  2.0432  1.6279
11445TIP3    H255827   2.785   2.201   6.714  0.8466  0.5864  0.3503
11446TIP3   OH255828   4.770   1.722   0.469 -0.7872 -0.1520 -0.1815
11446TIP3    H155829   4.697   1.661   0.459  0.5117 -2.1282  1.5307
11446TIP3    H255830   4.731   1.800   0.509 -2.0444 -0.9136  0.1200
11447TIP3   OH255831   3.643   6.675   5.043  0.5355 -0.1657  0.2119
11447TIP3    H155832   3.609   6.718   4.965  1.5269 -1.8326 -1.2203
11447TIP3    H255833   3.567   6.661   5.099 -0.4883 -0.3972 -1.1940
11448TIP3   OH255834   5.635   6.627   1.205 -0.8600  0.2466 -0.2526
11448TIP3    H155835   5.551   6.649   1.243 -0.4097  1.6644 -0.0213
11448TIP3    H255836   5.692   6.608   1.280 -1.2387 -1.8443 -0.4448
11449TIP3   OH255837   6.048   6.341  12.516 -0.4807  0.0302  0.2787
11449TIP3    H155838   6.120   6.303  12.565  0.1720  0.8472 -0.0197
11449TIP3    H255839   6.028   6.278  12.447  0.9413  0.4389 -0.5430
11450TIP3   OH255840   1.834   1.376   3.868 -0.8976 -0.2761  0.4550
11450TIP3    H155841   1.780   1.395   3.791 -1.5502 -0.4278  0.8601
11450TIP3    H255842   1.855   1.462   3.905 -0.8877 -0.2167  0.3098
11451TIP3   OH255843   5.405   5.619  13.678 -0.1478  0.4748 -0.2480
11451TIP3    H155844   5.419   5.526  13.660  0.7882  0.8665 -1.7414
11451TIP3    H255845   5.328   5.642  13.626 -1.0090  0.3431  0.9172
11452TIP3   OH255846   4.976   5.815   0.971 -0.3728  0.1885 -0.0563
11452TIP3    H155847   5.052   5.764   0.944 -0.1203  1.1084 -1.1536
11452TIP3    H255848   5.012   5.889   1.019 -0.7376 -0.5990  1.4954
11453TIP3   OH255849   0.096   6.438  16.299  0.0764  0.3153 -1.1094
11453TIP3    H155850   0.000   6.440  16.304 -0.0401  0.3085 -2.6564
11453TIP3    H255851   0.114   6.383  16.223  1.3262  0.0621 -0.6471
11454TIP3   OH255852   5.587   5.764   4.097 -0.4074  0.8677  0.4076
11454TIP3    H155853   5.673   5.783   4.134 -0.2640  0.3779  0.3395
11454TIP3    H255854   5.605   5.716   4.016 -0.7431  0.3824  0.6087
11455TIP3   OH255855   4.934   0.046  16.370  0.1569 -0.5535  0.2848
11455TIP3    H155856   4.904   0.009  16.287  0.8402  1.1729 -0.7941
11455TIP3    H255857   4.864   0.024  16.433 -1.4080 -0.1138 -1.2207
11456TIP3   OH255858   2.841   4.965  13.963 -0.6451  0.2330 -0.1945
11456TIP3    H155859   2.891   4.932  14.038 -0.5696  2.8465  0.9999
11456TIP3    H255860   2.752   4.932  13.978 -0.9772  1.8556  1.9001
11457TIP3   OH255861   1.161   1.857   5.822 -0.1383  0.6652  0.1194
11457TIP3    H155862   1.073   1.842   5.856  0.1178  0.6006  0.7772
11457TIP3    H255863   1.218   1.812   5.884  0.4064  1.3851  0.1514
11458TIP3   OH255864   4.466   0.372   3.240  0.2465  0.1290  0.0575
11458TIP3    H155865   4.504   0.399   3.157  0.8345  0.0908  0.3087
11458TIP3    H255866   4.467   0.276   3.237  1.2713  0.1045  0.5380
11459TIP3   OH255867   0.185   4.347  15.542  0.2681 -0.1806 -0.6341
11459TIP3    H155868   0.132   4.381  15.470 -1.2447  0.0899  0.5569
11459TIP3    H255869   0.224   4.425  15.582  1.6694 -0.3807 -1.5332
11460TIP3   OH255870   5.221   3.690  12.196  0.2339 -0.3545 -0.8131
11460TIP3    H155871   5.231   3.716  12.287  1.4678 -0.1484 -0.9903
11460TIP3    H255872   5.176   3.606  12.200  1.2669 -0.8874  0.0518
11461TIP3   OH255873   2.575   3.445   5.893 -0.4312  0.3510  0.6248
11461TIP3    H155874   2.635   3.396   5.837  0.0189 -0.2092  1.5553
11461TIP3    H255875   2.624   3.456   5.975 -1.0235  1.2503  0.8638
11462TIP3   OH255876   4.502   4.922   5.545 -0.0761 -0.2386 -0.4698
11462TIP3    H155877   4.534   4.974   5.619  0.0985 -1.9628  0.7339
11462TIP3    H255878   4.533   4.968   5.468 -0.0756  1.5057  0.5336
11463TIP3   OH255879   0.312   4.970   1.554  0.6436 -0.2931  0.3412
11463TIP3    H155880   0.294   5.003   1.642 -0.8032  0.0647 -0.0579
11463TIP3    H255881   0.259   5.025   1.496 -0.1458 -1.9256 -0.5464
11464TIP3   OH255882   5.859   4.744   5.775 -0.3862 -0.1671  0.3611
11464TIP3    H155883   5.796   4.679   5.806  0.6503 -0.1681  2.6365
11464TIP3    H255884   5.807   4.821   5.755 -1.5233 -1.3386 -1.5109
11465TIP3   OH255885   3.521   6.194   3.302  0.0756  0.1717  0.2638
11465TIP3    H155886   3.568   6.209   3.384  0.6056 -0.5429  0.1046
11465TIP3    H255887   3.551   6.265   3.245  0.2857  0.2376  0.4505
11466TIP3   OH255888   0.321   6.503  15.310 -0.0075  0.2980 -0.3557
11466TIP3    H155889   0.281   6.474  15.228  0.7870  3.0175 -1.8139
11466TIP3    H255890   0.410   6.528  15.286  0.8444 -0.4530  1.7323
11467TIP3   OH255891   6.617   4.679   5.360  0.0041 -0.4674 -0.1167
11467TIP3    H155892   6.687   4.725   5.406  0.3081 -0.4217 -0.6180
11467TIP3    H255893   6.599   4.733   5.283 -0.0769 -0.8620 -0.3769
11468TIP3   OH255894   1.364   6.607  14.322 -0.1355 -0.0816  0.2712
11468TIP3    H155895   1.413   6.575  14.246  1.5945 -0.9539  1.6583
11468TIP3    H255896   1.275   6.574  14.309 -0.2983  1.0158 -2.0384
11469TIP3   OH255897   3.761   0.371  14.089  0.4709  0.0983  0.0078
11469TIP3    H155898   3.838   0.374  14.146 -0.1155 -1.3982  0.9233
11469TIP3    H255899   3.693   0.329  14.141 -0.8328  0.8928 -0.9747
11470TIP3   OH255900   0.508   4.183  15.979 -0.1766  0.2090 -0.4954
11470TIP3    H155901   0.575   4.138  16.030  0.4875  1.3469 -0.3370
11470TIP3    H255902   0.508   4.136  15.895  0.9014  0.2635 -0.5424
11471TIP3   OH255903   0.809   6.725  14.586  0.0888 -0.9665  0.4676
11471TIP3    H155904   0.894   6.703  14.624 -0.5465 -0.5464  2.2591
11471TIP3    H255905   0.782   6.804  14.633 -2.0422 -2.0694  1.2624
11472TIP3   OH255906   2.164   6.006  16.580  0.2360  0.6797 -0.0600
11472TIP3    H155907   2.082   5.958  16.567  1.5395 -1.8673  0.4683
11472TIP3    H255908   2.186   5.992  16.672  1.1856  1.4987 -0.1436
11473TIP3   OH255909   0.538   5.264   2.310  0.3480 -0.3611 -0.4547
11473TIP3    H155910   0.559   5.182   2.354 -1.3197  0.3835  1.9715
11473TIP3    H255911   0.603   5.326   2.344 -0.0591 -0.1062 -0.1224
11474TIP3   OH255912   1.201   6.298   3.511  0.1300  0.0350 -0.2472
11474TIP3    H155913   1.170   6.372   3.564 -0.9297  0.2828 -1.1979
11474TIP3    H255914   1.224   6.231   3.576 -0.7346  0.4902  0.5566
11475TIP3   OH255915   4.911   4.389   4.798 -0.3258 -0.0159  0.0301
11475TIP3    H155916   4.857   4.448   4.849  0.0212  0.4449 -0.1290
11475TIP3    H255917   4.851   4.346   4.738 -0.5497  0.3270  0.0085
11476TIP3   OH255918   4.597   1.406  13.717 -0.0750 -0.5094 -0.3156
11476TIP3    H155919   4.516   1.442  13.753 -0.0161  0.6791 -1.2833
11476TIP3    H255920   4.574   1.384  13.626  0.9450  0.8869 -0.9473
11477TIP3   OH255921   3.107   5.907   4.776  0.3232 -0.0128 -0.6469
11477TIP3    H155922   3.158   5.828   4.796  1.0175  0.1819 -1.5615
11477TIP3    H255923   3.167   5.961   4.724 -0.0520  1.2341  0.1748
11478TIP3   OH255924   6.235   4.767   6.129 -0.2826 -0.1990 -0.5045
11478TIP3    H155925   6.274   4.695   6.179 -1.0965 -0.3084 -0.0067
11478TIP3    H255926   6.176   4.725   6.067 -0.4235  0.0108 -0.5145
11479TIP3   OH255927   1.371   3.809   2.722  0.0574  0.1926 -0.6888
11479TIP3    H155928   1.288   3.799   2.769 -0.5790 -0.0229 -1.8184
11479TIP3    H255929   1.427   3.740   2.757 -0.3180  0.1824 -0.0931
11480TIP3   OH255930   2.530   6.142   1.394  0.4319  0.1968  0.6296
11480TIP3    H155931   2.605   6.090   1.364 -0.0070  0.6959 -1.5124
11480TIP3    H255932   2.550   6.163   1.485  2.1380 -1.0065  0.5805
11481TIP3   OH255933   4.397   1.454  16.754  0.4274  0.3544  0.2108
11481TIP3    H155934   4.446   1.524  16.797 -0.9675  0.4197  1.7639
11481TIP3    H255935   4.459   1.382  16.748  1.5620  1.3399 -0.4657
11482TIP3   OH255936   6.079   5.557   1.251  0.6444 -0.0506  0.1285
11482TIP3    H155937   6.138   5.614   1.299  1.3967 -1.2122  0.6380
11482TIP3    H255938   6.137   5.497   1.203 -0.0974 -1.3657  0.8192
11483TIP3   OH255939   4.396   2.462   0.290  0.1651 -0.1065  0.5461
11483TIP3    H155940   4.490   2.476   0.293  0.0362  1.0619 -0.1535
11483TIP3    H255941   4.369   2.459   0.381  1.0865 -2.1270  0.7932
11484TIP3   OH255942   2.060   2.072   2.074 -0.5995  0.3993 -0.6046
11484TIP3    H155943   2.003   2.134   2.120  0.1373  2.0474 -1.8196
11484TIP3    H255944   2.006   2.038   2.002 -1.0828 -0.6312  0.2012
11485TIP3   OH255945   1.038   6.537   0.432 -0.1401  0.5155  0.1374
11485TIP3    H155946   1.081   6.452   0.447  0.9661  0.5371 -2.5166
11485TIP3    H255947   0.963   6.516   0.377  0.5072  1.3149 -1.0741
11486TIP3   OH255948   5.962   1.039   2.214 -0.0507  0.4119  0.0286
11486TIP3    H155949   5.967   1.035   2.118 -0.5041 -0.0018  0.0170
11486TIP3    H255950   5.886   1.095   2.232 -1.7476 -1.7645  0.1017
11487TIP3   OH255951   4.351   5.471   4.001 -0.1660  0.3849  0.1616
11487TIP3    H155952   4.436   5.452   3.963 -0.2475  0.9838 -0.3412
11487TIP3    H255953   4.325   5.390   4.045  0.9507  0.4051  0.8864
11488TIP3   OH255954   5.248   0.544  14.757 -0.3291  0.3002 -0.4191
11488TIP3    H155955   5.251   0.451  14.736 -2.7205 -0.2062  1.0961
11488TIP3    H255956   5.330   0.561  14.803 -1.2713 -1.9882  2.4061
11489TIP3   OH255957   2.933   2.183   0.116 -0.1086 -0.2077  0.3182
11489TIP3    H155958   2.841   2.206   0.133 -0.4419  0.1318 -1.6665
11489TIP3    H255959   2.932   2.088   0.101  0.1795 -0.5011  2.0108
11490TIP3   OH255960   2.200   5.930   5.251 -0.3260 -0.1606 -0.0817
11490TIP3    H155961   2.248   5.874   5.312  0.0160 -0.8794 -0.9963
11490TIP3    H255962   2.263   5.953   5.183 -0.8593  0.1497 -0.4839
11491TIP3   OH255963   5.023   4.783  14.178  0.6780 -0.7105  0.4438
11491TIP3    H155964   5.051   4.861  14.130 -0.7960 -1.0082 -0.9862
11491TIP3    H255965   5.077   4.712  14.143 -0.6377 -0.9925 -1.1158
11492TIP3   OH255966   5.497   6.498  13.410  0.1001  0.1743  0.1285
11492TIP3    H155967   5.558   6.536  13.473  1.6700 -1.6645 -0.1669
11492TIP3    H255968   5.546   6.498  13.327 -0.8526 -0.0262 -0.4419
11493TIP3   OH255969   0.266   1.777  12.851  0.0031 -0.1091 -0.0523
11493TIP3    H155970   0.359   1.798  12.856  0.4901 -2.2129  0.7865
11493TIP3    H255971   0.222   1.859  12.876  1.5778  1.0281 -0.7963
11494TIP3   OH255972   4.331   4.348   5.479  0.0821 -0.1989 -0.1629
11494TIP3    H155973   4.421   4.338   5.511 -0.7463 -1.5885  1.9694
11494TIP3    H255974   4.310   4.439   5.495  0.8368 -0.0548  0.0747
11495TIP3   OH255975   3.524   2.254  13.500 -0.8738  0.1669 -0.1315
11495TIP3    H155976   3.509   2.297  13.417 -1.3076  0.1921 -0.0402
11495TIP3    H255977   3.551   2.165  13.477  1.1223  0.7776 -0.3515
11496TIP3   OH255978   0.008   3.735   1.719 -0.2014 -0.4143  0.2697
11496TIP3    H155979   0.083   3.759   1.664 -1.0058  0.1508 -0.6127
11496TIP3    H255980   0.008   3.639   1.719 -1.7594 -0.5675 -3.0595
11497TIP3   OH255981   5.398   0.370   6.475  0.0545  0.2713 -0.1567
11497TIP3    H155982   5.382   0.379   6.569 -1.5191 -0.4880 -0.3167
11497TIP3    H255983   5.361   0.449   6.436 -3.5136 -1.4071 -0.5096
11498TIP3   OH255984   0.143   4.450  14.546  0.7129  0.5103  0.2138
11498TIP3    H155985   0.183   4.391  14.609  2.5405  1.8608  0.4144
11498TIP3    H255986   0.203   4.525  14.542 -0.8174  1.7488 -1.0048
11499TIP3   OH255987   5.164   6.347   3.650  0.3614 -0.0944  0.5779
11499TIP3    H155988   5.249   6.365   3.690  0.3060  1.4878  0.0715
11499TIP3    H255989   5.185   6.316   3.561  0.4209  0.7761  0.2783
11500TIP3   OH255990   4.264   1.091  14.710  0.5236 -0.8808  0.2153
11500TIP3    H155991   4.220   1.164  14.753  1.7855  0.3750 -0.5493
11500TIP3    H255992   4.320   1.053  14.778  0.9883 -0.1829  0.2306
11501TIP3   OH255993   6.692   4.973   0.681 -0.2645  1.1427 -0.2547
11501TIP3    H155994   6.699   4.878   0.694 -1.3628  1.2115  1.0141
11501TIP3    H255995   6.706   4.985   0.587  0.6911 -0.1822 -0.3177
11502TIP3   OH255996   1.968   0.648  13.624 -0.6703 -0.2516 -0.5603
11502TIP3    H155997   1.916   0.590  13.680  0.3917 -1.9066 -1.2204
11502TIP3    H255998   1.960   0.734  13.666 -0.4237 -1.2802  1.8054
11503TIP3   OH255999   2.272   2.280   2.666 -0.0608  0.2441  0.2690
11503TIP3    H156000   2.237   2.245   2.583 -0.5848  0.0783  0.5526
11503TIP3    H256001   2.365   2.291   2.649  0.0540 -0.8893  0.0179
11504TIP3   OH256002   0.974   6.119   4.174  0.2212 -0.2668  0.2077
11504TIP3    H156003   1.013   6.083   4.254  0.4440  0.0660  0.2530
11504TIP3    H256004   1.044   6.173   4.136 -0.7231  1.7335  1.1959
11505TIP3   OH256005   3.050   5.396   2.565 -0.2211 -0.3555  0.6902
11505TIP3    H156006   2.976   5.397   2.505 -0.8967 -0.9597  1.4850
11505TIP3    H256007   3.126   5.419   2.511 -0.7248 -1.3921 -0.5036
11506TIP3   OH256008   4.622   5.596   2.890  0.1845  0.0281  0.3340
11506TIP3    H156009   4.534   5.632   2.894 -0.3728 -1.3733  2.3342
11506TIP3    H256010   4.677   5.663   2.930 -0.3547 -0.0270  1.1903
11507TIP3   OH256011   3.681   5.178  12.304  0.2226  0.2730  0.2147
11507TIP3    H156012   3.695   5.085  12.324  0.9055  0.6049  1.3691
11507TIP3    H256013   3.605   5.179  12.247  1.0150 -1.1065 -0.9381
11508TIP3   OH256014   1.621   5.202   1.096  0.1517 -0.5672  0.0536
11508TIP3    H156015   1.604   5.169   1.184  0.7754 -0.3990  0.2465
11508TIP3    H256016   1.714   5.183   1.081  0.3888  0.5786 -0.0469
11509TIP3   OH256017   1.283   5.598   0.652 -0.9321  0.2615  0.4431
11509TIP3    H156018   1.245   5.512   0.635  0.9951 -0.7997  1.2602
11509TIP3    H256019   1.210   5.650   0.687 -2.2853 -0.7944 -0.6871
11510TIP3   OH256020   4.933   1.272  12.113 -0.4436 -0.4794 -0.0443
11510TIP3    H156021   4.960   1.354  12.155 -2.0453  0.3032 -0.4507
11510TIP3    H256022   4.892   1.222  12.183  0.1205 -0.7424  0.1023
11511TIP3   OH256023   3.058   6.447   6.313  0.4420  0.2033 -0.2153
11511TIP3    H156024   3.149   6.417   6.306  0.0565 -0.8133 -1.1964
11511TIP3    H256025   3.024   6.441   6.224 -0.4540  1.0165  0.0596
11512TIP3   OH256026   3.897   6.406   3.105  0.0291  0.1079 -0.2972
11512TIP3    H156027   3.879   6.500   3.097 -1.8474 -0.1761  0.0040
11512TIP3    H256028   3.875   6.371   3.019  1.1937 -0.0025 -0.5556
11513TIP3   OH256029   1.580   2.073  16.595 -0.8393  0.4169  0.6318
11513TIP3    H156030   1.659   2.122  16.573 -1.6468  1.0405 -1.0561
11513TIP3    H256031   1.612   1.993  16.635  0.7307  0.0619 -1.1977
11514TIP3   OH256032   3.772   0.998  13.640 -0.2682 -0.2181 -0.2741
11514TIP3    H156033   3.729   1.005  13.725  0.0007  0.1840 -0.1645
11514TIP3    H256034   3.781   0.904  13.625  2.7669 -0.3976  1.7451
11515TIP3   OH256035   0.659   3.962   3.471 -0.6163  0.1538 -0.3700
11515TIP3    H156036   0.605   4.008   3.535 -0.7604  0.0600 -0.4237
11515TIP3    H256037   0.598   3.904   3.425 -0.7591  1.0931 -1.4296
11516TIP3   OH256038   6.372   4.429  11.085 -0.4591  0.3807  0.0026
11516TIP3    H156039   6.358   4.503  11.144 -0.2517  1.0391 -0.7651
11516TIP3    H256040   6.326   4.453  11.005 -1.5627 -0.9290  0.2007
11517TIP3   OH256041   3.962   4.703   0.771 -0.3053 -0.1334 -0.7211
11517TIP3    H156042   4.021   4.637   0.733  0.1827  0.0909 -0.3489
11517TIP3    H256043   4.015   4.749   0.836 -1.3434 -1.0099  0.8018
11518TIP3   OH256044   1.426   4.091  16.722  0.6347 -0.7986  0.3471
11518TIP3    H156045   1.442   4.089  16.628 -0.3031 -2.3834  0.1900
11518TIP3    H256046   1.388   4.178  16.738  2.8436  0.3793 -0.3253
11519TIP3   OH256047   1.188   3.747   5.154  0.2037 -0.2647 -0.4512
11519TIP3    H156048   1.141   3.745   5.237 -0.0720  1.8944 -0.4816
11519TIP3    H256049   1.163   3.831   5.115 -0.1720 -1.4711 -3.0221
11520TIP3   OH256050   6.764   1.564  14.367 -0.0389 -0.5223 -0.3231
11520TIP3    H156051   6.675   1.532  14.349 -0.5952  1.3552 -1.1056
11520TIP3    H256052   6.757   1.610  14.451 -0.1882  0.9222 -1.0989
11521TIP3   OH256053   6.441   3.903   1.565 -0.2257  0.1355  0.8121
11521TIP3    H156054   6.462   3.815   1.534  0.2884 -0.9910  4.0361
11521TIP3    H256055   6.345   3.903   1.573 -0.1364 -0.6274  2.0567
11522TIP3   OH256056   3.196   3.274  15.876  0.2402 -0.3972  0.0281
11522TIP3    H156057   3.115   3.223  15.877 -0.4806  0.6856  1.8202
11522TIP3    H256058   3.265   3.210  15.892 -0.4240 -1.1083  0.1240
11523TIP3   OH256059   4.868   6.485   2.324  0.1153  0.1912  0.0856
11523TIP3    H156060   4.888   6.571   2.287  1.2780  0.1645  0.5920
11523TIP3    H256061   4.848   6.503   2.416 -2.8522  0.2736 -0.4850
11524TIP3   OH256062   5.724   3.926  15.517  0.8119  0.5838 -0.0214
11524TIP3    H156063   5.740   4.020  15.512  3.2680  0.3019  0.9658
11524TIP3    H256064   5.756   3.902  15.604  1.0817 -1.3035 -0.6071
11525TIP3   OH256065   0.584   0.379   1.166  0.2683  0.1298 -0.1986
11525TIP3    H156066   0.614   0.372   1.075 -0.7150 -0.9483 -0.4552
11525TIP3    H256067   0.589   0.473   1.185 -0.5512  0.5143 -1.7367
11526TIP3   OH256068   5.176   5.463   0.745 -0.3032 -0.1192 -0.6474
11526TIP3    H156069   5.112   5.534   0.738 -0.2289  0.4528  2.7320
11526TIP3    H256070   5.129   5.394   0.793  0.4703 -1.2626 -1.4808
11527TIP3   OH256071   1.723   4.713  14.008 -0.6055  0.4260 -0.1742
11527TIP3    H156072   1.656   4.778  14.024 -0.7767  0.4357 -0.8771
11527TIP3    H256073   1.676   4.640  13.966 -0.6462 -0.6817  1.6933
11528TIP3   OH256074   5.133   5.315  11.836  0.0475  0.3533 -0.0862
11528TIP3    H156075   5.193   5.285  11.905 -0.3324  0.2943  0.2201
11528TIP3    H256076   5.129   5.410  11.848  2.0621  0.7313 -1.6974
11529TIP3   OH256077   0.202   4.324   5.523 -0.0478  0.6648 -0.1869
11529TIP3    H156078   0.142   4.339   5.450  1.6017  0.9084 -1.5678
11529TIP3    H256079   0.283   4.367   5.496  1.2476 -0.9902  0.8771
11530TIP3   OH256080   6.092   6.392  15.573 -0.0626  0.2161  0.1148
11530TIP3    H156081   6.102   6.417  15.481 -1.1271  0.6395  0.0954
11530TIP3    H256082   6.017   6.444  15.604  0.5061  0.3578  1.3248
11531TIP3   OH256083   6.727   3.272   4.387  0.1649  0.3423  0.5044
11531TIP3    H156084   6.723   3.221   4.467  0.0411  1.0873  0.9900
11531TIP3    H256085   6.802   3.331   4.400 -0.2421  0.9057  0.3561
11532TIP3   OH256086   2.745   5.159   1.022  0.0010  0.2365  0.4540
11532TIP3    H156087   2.841   5.163   1.022  0.3789 -3.8010  1.7657
11532TIP3    H256088   2.722   5.140   0.931  0.6685 -0.8052  0.4914
11533TIP3   OH256089   5.327   0.111   2.605  0.3414 -0.0933  0.2510
11533TIP3    H156090   5.391   0.042   2.621 -1.1261 -1.2618  1.4318
11533TIP3    H256091   5.273   0.113   2.684 -0.9644  0.9395 -0.6178
11534TIP3   OH256092   3.137   6.311  15.009  0.3704  0.1785  0.3567
11534TIP3    H156093   3.113   6.292  15.099  3.9778 -1.8091  1.1081
11534TIP3    H256094   3.151   6.406  15.007  0.6410  0.1996  2.0256
11535TIP3   OH256095   3.577   0.744   6.047 -0.0388  0.0902 -0.5029
11535TIP3    H156096   3.503   0.757   5.988 -0.9541 -0.7733  0.4095
11535TIP3    H256097   3.580   0.823   6.100 -0.4397  0.0445 -0.4094
11536TIP3   OH256098   1.480   1.952   4.368 -0.2128  0.0288  0.4348
11536TIP3    H156099   1.563   1.943   4.319 -1.1157 -1.4105 -0.9250
11536TIP3    H256100   1.494   2.029   4.423  1.9053  0.0469 -0.0126
11537TIP3   OH256101   5.303   4.320  11.743 -0.1668  0.1983  0.2287
11537TIP3    H156102   5.397   4.322  11.726  0.0116 -2.1640  0.5813
11537TIP3    H256103   5.293   4.368  11.825  1.0661 -1.2195  1.2677
11538TIP3   OH256104   0.794   3.650  12.470 -0.1646  0.2260 -1.0952
11538TIP3    H156105   0.878   3.611  12.445 -1.7168 -2.3734 -2.7194
11538TIP3    H256106   0.735   3.628  12.398 -2.5739  0.8333  0.5736
11539TIP3   OH256107   4.885   3.899  14.673  0.7136 -0.1014 -0.3503
11539TIP3    H156108   4.823   3.962  14.635 -1.0333 -1.1578  0.5918
11539TIP3    H256109   4.894   3.831  14.606 -2.6815 -2.1718  1.0294
11540TIP3   OH256110   1.638   5.932   1.192  0.7416  0.2047  0.2611
11540TIP3    H156111   1.647   5.902   1.101 -0.1759  0.7741 -0.0192
11540TIP3    H256112   1.681   5.863   1.243 -1.5211 -1.7769 -0.3489
11541TIP3   OH256113   0.959   0.511   6.219  0.0862 -0.3862  0.2660
11541TIP3    H156114   0.913   0.583   6.260 -1.6600 -1.8871  1.0582
11541TIP3    H256115   1.030   0.490   6.279 -0.2749 -0.2480  0.7401
11542TIP3   OH256116   0.435   4.317  16.376 -0.3735  0.1054 -0.0670
11542TIP3    H156117   0.343   4.333  16.394 -0.5089  0.2154 -0.8408
11542TIP3    H256118   0.482   4.374  16.437 -0.7989 -0.4682  0.8152
11543TIP3   OH256119   2.475   0.784  16.018  0.0077  0.0285  0.6162
11543TIP3    H156120   2.436   0.703  16.051 -1.0339  0.2877  0.0566
11543TIP3    H256121   2.410   0.852  16.039  0.0689  0.4474 -0.4930
11544TIP3   OH256122   2.638   1.708   0.989 -0.0114 -1.0047 -0.1835
11544TIP3    H156123   2.563   1.674   1.037 -0.3309 -1.6102 -1.0713
11544TIP3    H256124   2.661   1.638   0.927  1.2878 -0.8330  0.0678
11545TIP3   OH256125   5.141   5.393  16.460 -0.0264  0.1066 -0.2597
11545TIP3    H156126   5.084   5.421  16.532  0.4501 -0.7189  0.4713
11545TIP3    H256127   5.229   5.423  16.486 -0.2966  3.0442 -2.2615
11546TIP3   OH256128   0.705   2.785  13.684 -0.4926  0.0984 -0.2240
11546TIP3    H156129   0.652   2.771  13.762 -0.6401 -0.9280 -0.5046
11546TIP3    H256130   0.714   2.880  13.679  0.4738  0.1683  1.6909
11547TIP3   OH256131   3.712   2.416   3.097 -1.0627  0.1814 -0.5019
11547TIP3    H156132   3.679   2.498   3.059  0.8421  1.0010 -0.5207
11547TIP3    H256133   3.782   2.389   3.037 -0.6800 -0.6608  0.3100
11548TIP3   OH256134   4.140   3.692  14.500  0.2330  0.1776 -0.4756
11548TIP3    H156135   4.215   3.633  14.510 -0.1730 -0.3463 -0.5586
11548TIP3    H256136   4.145   3.749  14.577 -0.8586 -1.6110  1.0014
11549TIP3   OH256137   1.587   1.830   2.593 -0.1506 -0.4257  0.2018
11549TIP3    H156138   1.673   1.804   2.626 -0.4131 -1.3425  0.1774
11549TIP3    H256139   1.544   1.748   2.570 -0.2562  0.1235 -1.7740
11550TIP3   OH256140   0.895   3.671  16.872 -0.1077 -0.1429  0.2718
11550TIP3    H156141   0.821   3.716  16.911 -0.2891  0.0344 -0.2612
11550TIP3    H256142   0.956   3.741  16.848 -0.7503 -0.0778 -1.3131
11551TIP3   OH256143   5.914   2.596  12.689 -0.2035  0.4110 -0.1999
11551TIP3    H156144   5.857   2.520  12.677 -0.4178  0.2845  1.4605
11551TIP3    H256145   5.984   2.582  12.625 -2.1920  0.8153 -2.6464
11552TIP3   OH256146   5.738   2.856  13.920  0.0064  0.5060 -0.2085
11552TIP3    H156147   5.671   2.904  13.969  0.7228  2.7376 -1.2798
11552TIP3    H256148   5.689   2.789  13.872 -1.0086 -0.0771  1.5294
11553TIP3   OH256149   3.792   2.898  13.388  0.3004  0.6666 -0.5267
11553TIP3    H156150   3.706   2.899  13.430  0.1670 -0.1165 -0.7443
11553TIP3    H256151   3.779   2.845  13.309  0.9189  0.7647 -0.7031
11554TIP3   OH256152   3.675   4.812  11.368 -0.3209 -0.5918  0.0629
11554TIP3    H156153   3.608   4.879  11.360 -0.9770 -1.4047 -1.9751
11554TIP3    H256154   3.756   4.855  11.342 -0.8060 -0.6489 -1.6381
11555TIP3   OH256155   4.595   0.621  13.414 -0.2740 -0.4064  0.1497
11555TIP3    H156156   4.653   0.643  13.487 -1.0860  1.2683  0.3516
11555TIP3    H256157   4.634   0.664  13.338 -1.8798  1.9582  0.5426
11556TIP3   OH256158   6.420   2.786   5.006 -0.5812 -0.4277  0.0336
11556TIP3    H156159   6.333   2.785   4.966 -1.5539  2.2573  1.7979
11556TIP3    H256160   6.403   2.793   5.100  1.5126  0.4596  0.4059
11557TIP3   OH256161   4.905   0.396  15.122  0.1932  0.1777 -0.2547
11557TIP3    H156162   4.906   0.469  15.059 -0.8936  0.5204  0.1020
11557TIP3    H256163   4.812   0.377  15.134  0.4201 -0.2912  0.7883
11558TIP3   OH256164   1.219   4.485   4.142 -0.6580  0.1079 -0.5016
11558TIP3    H156165   1.266   4.467   4.061  0.3934  1.1727 -0.1595
11558TIP3    H256166   1.237   4.409   4.197  0.9462  0.6087 -0.2792
11559TIP3   OH256167   1.775   0.600   0.953  0.1075 -0.6092 -1.0118
11559TIP3    H156168   1.801   0.687   0.982  1.2034 -0.8844 -1.0823
11559TIP3    H256169   1.727   0.614   0.872 -0.4076 -0.0243 -0.6078
11560TIP3   OH256170   1.692   2.314  17.075  0.5781  0.6439  0.0015
11560TIP3    H156171   1.662   2.224  17.090 -0.4490  1.0117  0.2513
11560TIP3    H256172   1.774   2.304  17.027 -0.6763 -0.4362 -2.1151
11561TIP3   OH256173   2.862   1.695  14.406 -0.6024 -0.8715 -0.0322
11561TIP3    H156174   2.830   1.704  14.316 -3.4615  0.8995  1.0473
11561TIP3    H256175   2.819   1.616  14.438 -0.8651 -0.6123  0.2582
11562TIP3   OH256176   4.850   1.771  10.261 -0.0880  0.0359 -0.0011
11562TIP3    H156177   4.851   1.851  10.314 -1.7711  1.0449 -1.3763
11562TIP3    H256178   4.760   1.740  10.267  0.1814 -0.9064 -0.7102
11563TIP3   OH256179   5.691   4.029  10.530  0.2929  0.0398  0.2432
11563TIP3    H156180   5.748   3.964  10.572 -0.0108  1.6524  3.4602
11563TIP3    H256181   5.752   4.088  10.485  0.6367 -1.6399 -1.6654
11564TIP3   OH256182   2.310   2.537  15.956  0.2698  0.7541  0.1663
11564TIP3    H156183   2.279   2.517  15.868  0.9467  1.5319 -0.2568
11564TIP3    H256184   2.314   2.632  15.960  1.0484  0.7107  0.7531
11565TIP3   OH256185   1.029   0.030   1.212  0.3427 -0.0878  0.3834
11565TIP3    H156186   1.079  -0.021   1.149  2.7994 -0.3695  2.3818
11565TIP3    H256187   0.973  -0.034   1.256 -0.9793  0.0239 -1.0809
11566TIP3   OH256188   2.889   3.547   0.946  0.1346  0.3437 -0.0493
11566TIP3    H156189   2.908   3.557   0.853 -1.2525  1.8979 -0.2091
11566TIP3    H256190   2.975   3.537   0.987  0.6931 -1.9110 -1.5996
11567TIP3   OH256191   3.458   5.506   3.913  0.1437  0.4426  0.5859
11567TIP3    H156192   3.481   5.591   3.949  0.2570  0.4293  0.5449
11567TIP3    H256193   3.362   5.507   3.908  0.1487  0.5890  0.5299
11568TIP3   OH256194   6.294   4.191  11.208  0.2462  0.1367 -0.5265
11568TIP3    H156195   6.333   4.255  11.148  1.1040  0.9658  0.8647
11568TIP3    H256196   6.341   4.110  11.190 -0.0729  0.1500 -1.5174
11569TIP3   OH256197   1.311   3.041  15.120  0.5442 -0.1588  0.3800
11569TIP3    H156198   1.377   3.009  15.060  1.8716 -0.5506  1.9734
11569TIP3    H256199   1.272   3.116  15.076  2.3963  0.3932 -0.3942
11570TIP3   OH256200   0.902   0.025  16.187  0.2382 -0.0964 -0.4365
11570TIP3    H156201   0.996   0.044  16.196  0.3838 -0.3907 -1.2063
11570TIP3    H256202   0.889   0.018  16.092 -0.5798  0.0129 -0.3366
11571TIP3   OH256203   3.533   3.400   4.249 -0.2588 -0.6537  0.0897
11571TIP3    H156204   3.529   3.494   4.264  0.2131 -0.9826  2.8787
11571TIP3    H256205   3.442   3.370   4.255 -0.3336 -0.4636 -0.1035
11572TIP3   OH256206   6.658   3.897  14.708 -0.8902 -0.5633 -0.0299
11572TIP3    H156207   6.574   3.856  14.730 -0.4404 -0.6961  1.5719
11572TIP3    H256208   6.713   3.881  14.785  0.1592  0.7130 -0.4808
11573TIP3   OH256209   1.590   2.788   3.610 -0.6992 -0.0203 -0.2337
11573TIP3    H156210   1.644   2.774   3.532  1.1486  0.5689  0.8761
11573TIP3    H256211   1.628   2.866   3.651 -1.6345 -0.3312  1.2563
11574TIP3   OH256212   4.787   6.461  14.502 -0.4379 -0.0178 -0.1876
11574TIP3    H156213   4.771   6.367  14.492 -0.6787  0.1574 -1.5971
11574TIP3    H256214   4.863   6.466  14.561  1.7164 -1.2525 -2.6250
11575TIP3   OH256215   1.664   0.999  14.346  0.2673  0.2769 -0.9261
11575TIP3    H156216   1.602   0.948  14.293 -0.1745 -0.7261  0.4871
11575TIP3    H256217   1.647   1.090  14.321  0.4588 -0.1696 -2.8741
11576TIP3   OH256218   4.431   1.601   0.975  0.3858 -0.2005  0.5167
11576TIP3    H156219   4.472   1.687   0.977  1.7668 -0.8211  2.1993
11576TIP3    H256220   4.480   1.552   0.909  1.5568 -0.5274  1.5822
11577TIP3   OH256221   1.831   0.389   0.012  0.4586  0.1567 -0.5210
11577TIP3    H156222   1.880   0.406   0.093  0.1783  2.1723 -0.7124
11577TIP3    H256223   1.743   0.421   0.032  0.2293  0.1040 -1.4381
11578TIP3   OH256224   6.043   2.045   4.435 -0.2620 -0.2073 -0.3241
11578TIP3    H156225   5.979   2.057   4.505  0.0466 -0.1316 -0.0508
11578TIP3    H256226   6.127   2.044   4.480  0.0811  1.5208 -0.8517
11579TIP3   OH256227   1.581   3.491   0.027  0.0799  0.1440 -0.5523
11579TIP3    H156228   1.593   3.425  -0.042  0.1106  0.1521 -0.5547
11579TIP3    H256229   1.663   3.489   0.077 -1.1751 -2.3571  1.6596
11580TIP3   OH256230   2.803   2.093   1.487  0.4817 -0.2830  0.2386
11580TIP3    H156231   2.809   2.070   1.580  0.4189 -0.8821  0.0991
11580TIP3    H256232   2.808   2.009   1.441 -1.4205 -0.1717 -0.2307
11581TIP3   OH256233   2.469   3.306   3.111 -0.1041 -1.2462 -0.1554
11581TIP3    H156234   2.526   3.367   3.065  0.0097 -2.0586 -1.1351
11581TIP3    H256235   2.527   3.236   3.142 -0.1959 -0.7703  1.1552
11582TIP3   OH256236   4.948   0.259  14.865 -0.7757  0.8644 -0.7736
11582TIP3    H156237   4.946   0.290  14.956 -0.1905  1.6233 -1.0139
11582TIP3    H256238   4.857   0.264  14.836 -1.0454  0.2080 -0.1070
11583TIP3   OH256239   3.723   1.277   5.004  0.1648 -0.3719 -0.2670
11583TIP3    H156240   3.802   1.324   5.033 -0.4052 -0.2107  1.0889
11583TIP3    H256241   3.653   1.342   5.010 -0.5139 -1.1844  0.9904
11584TIP3   OH256242   1.946   4.054   5.555 -0.0849  0.6154 -0.0573
11584TIP3    H156243   1.970   3.966   5.526  0.4860  0.2643  1.3943
11584TIP3    H256244   1.850   4.053   5.558 -0.1706  0.6240 -1.6855
11585TIP3   OH256245   0.311   4.613   6.553  0.0441  0.5746 -0.0896
11585TIP3    H156246   0.355   4.642   6.474  0.4155  0.2678 -0.0016
11585TIP3    H256247   0.224   4.587   6.524  0.4073 -0.2013 -0.5251
11586TIP3   OH256248   3.958   0.115  16.826 -0.2339  0.0678 -0.0657
11586TIP3    H156249   3.891   0.050  16.847 -0.7633  0.3050 -0.9536
11586TIP3    H256250   4.038   0.064  16.814  0.3587 -0.0072  3.3078
11587TIP3   OH256251   4.487   0.451   4.179 -0.3546 -0.2544 -0.1633
11587TIP3    H156252   4.434   0.519   4.136 -1.6424 -0.9043  0.3437
11587TIP3    H256253   4.543   0.500   4.240  0.9062  0.6011 -1.9047
11588TIP3   OH256254   5.873   1.348   1.443  0.1308 -0.3222  0.2486
11588TIP3    H156255   5.808   1.412   1.412 -0.0083  0.2532  1.6778
11588TIP3    H256256   5.920   1.323   1.363 -0.6051  0.6508 -0.5298
11589TIP3   OH256257   1.778   1.392   1.919 -0.1807 -0.4598 -0.0712
11589TIP3    H156258   1.871   1.374   1.904 -0.0132  0.3452 -0.0459
11589TIP3    H256259   1.744   1.412   1.831 -0.3383 -0.8112 -0.0881
11590TIP3   OH256260   0.712   2.807  12.710  0.3260 -0.1453  0.2621
11590TIP3    H156261   0.711   2.712  12.703  0.9694 -0.2227  1.0902
11590TIP3    H256262   0.673   2.826  12.795  4.4623  0.0240  2.4035
11591TIP3   OH256263   0.616   6.458  13.970  0.1054 -0.2543 -0.3177
11591TIP3    H156264   0.568   6.410  14.038  1.1667  2.2930  2.3990
11591TIP3    H256265   0.705   6.424  13.976 -0.1642 -1.3498 -1.8482
11592TIP3   OH256266   4.594   6.373  15.745  0.0597 -0.4497  0.1251
11592TIP3    H156267   4.502   6.374  15.774 -0.0281  3.0191  0.0859
11592TIP3    H256268   4.596   6.306  15.676 -2.4118 -0.7084  0.2089
11593TIP3   OH256269   5.763   4.552  14.361  0.1001 -0.1296  0.0329
11593TIP3    H156270   5.721   4.507  14.436  1.0354 -0.2319  0.5041
11593TIP3    H256271   5.715   4.635  14.354 -0.6173 -0.5193  0.1421
11594TIP3   OH256272   3.332   2.802   4.376  0.2115 -0.0729 -0.2679
11594TIP3    H156273   3.317   2.831   4.286 -0.8170  0.4987  0.0733
11594TIP3    H256274   3.353   2.882   4.424  0.3319 -0.3111  0.0793
11595TIP3   OH256275   0.085   5.034  14.105  0.1004  0.3586 -0.0693
11595TIP3    H156276   0.093   4.993  14.019 -0.3608 -0.0472  0.0822
11595TIP3    H256277   0.171   5.075  14.119  0.0557  0.7692 -0.8900
11596TIP3   OH256278   2.514   6.257   3.209  0.1251 -0.2454  0.6582
11596TIP3    H156279   2.461   6.266   3.288 -0.0296 -0.6794  0.6100
11596TIP3    H256280   2.566   6.337   3.205 -0.0264 -0.1232  1.0797
11597TIP3   OH256281   5.579   3.888   4.330  0.3412  0.1864  0.4304
11597TIP3    H156282   5.645   3.929   4.386  0.3764 -0.9975  1.2840
11597TIP3    H256283   5.619   3.805   4.303  0.2145  0.6136 -1.1569
11598TIP3   OH256284   2.502   3.182  14.980  0.2642  0.4987  0.4250
11598TIP3    H156285   2.475   3.228  14.901  0.2180  0.6200  0.5116
11598TIP3    H256286   2.535   3.098  14.949  0.9234  0.8259  0.2101
11599TIP3   OH256287   6.451   6.774  15.659 -0.0926  0.5880 -0.0208
11599TIP3    H156288   6.420   6.819  15.581  0.4658  1.3303  0.1800
11599TIP3    H256289   6.414   6.823  15.732 -0.4508  0.0154  0.1876
11600TIP3   OH256290   1.439   5.814  13.998 -0.4968 -0.2107  0.0303
11600TIP3    H156291   1.478   5.870  13.931 -1.5860 -0.9118 -1.2545
11600TIP3    H256292   1.447   5.725  13.963 -0.7002 -0.6492  1.0376
11601TIP3   OH256293   1.127   4.387   1.636  0.2006  0.0657 -0.4573
11601TIP3    H156294   1.196   4.415   1.575 -0.5717  0.8359 -1.0222
11601TIP3    H256295   1.168   4.387   1.722  1.0831 -0.1735 -0.8724
11602TIP3   OH256296   5.387   2.612   6.047 -0.9538  0.0380  0.0548
11602TIP3    H156297   5.331   2.549   6.000 -0.6928 -0.9197  0.9886
11602TIP3    H256298   5.458   2.558   6.083  1.1326  1.3156 -1.8275
11603TIP3   OH256299   5.046   5.219  15.554 -0.3870 -0.0550 -0.5504
11603TIP3    H156300   4.986   5.192  15.485 -1.8044  0.1054  0.5606
11603TIP3    H256301   5.016   5.172  15.632 -0.0913  1.2495  0.3932
11604TIP3   OH256302   0.727   2.189  14.528  0.7817 -0.1117 -0.2871
11604TIP3    H156303   0.718   2.269  14.580  0.5807  0.7107 -1.5406
11604TIP3    H256304   0.647   2.185  14.477  1.4276 -0.3069 -1.3170
11605TIP3   OH256305   3.479   1.746   4.509  0.2076 -0.1010 -0.2929
11605TIP3    H156306   3.384   1.734   4.502 -0.1245  2.1562 -0.6412
11605TIP3    H256307   3.500   1.808   4.439  1.7081  0.4924  0.6354
11606TIP3   OH256308   2.087   5.698  16.150  0.2078  0.5971 -0.1827
11606TIP3    H156309   2.029   5.630  16.184 -0.8877  2.0228  0.9305
11606TIP3    H256310   2.154   5.708  16.217 -0.8280  2.0263  0.6982
11607TIP3   OH256311   2.672   3.211  12.584 -0.8042 -0.1300 -0.2271
11607TIP3    H156312   2.584   3.176  12.578 -0.6991 -0.2807 -0.9773
11607TIP3    H256313   2.705   3.210  12.494 -0.4973  1.1143 -0.1562
11608TIP3   OH256314   6.067   0.212   1.501 -0.2903  0.3261 -0.5495
11608TIP3    H156315   6.150   0.236   1.543 -0.4870 -0.5813  0.3781
11608TIP3    H256316   6.093   0.182   1.414  0.3494  0.1651 -0.3126
11609TIP3   OH256317   5.396   6.286   4.291  0.2951  0.2500  0.1949
11609TIP3    H156318   5.390   6.371   4.333 -0.1322  0.0326  0.5777
11609TIP3    H256319   5.488   6.279   4.265  0.6153  0.3106  1.2521
11610TIP3   OH256320   6.071   4.438   1.699 -0.4568 -0.0133 -0.1339
11610TIP3    H156321   6.017   4.475   1.629 -2.0911 -0.6572  0.7408
11610TIP3    H256322   6.008   4.404   1.762  0.9929 -1.4511  0.5877
11611TIP3   OH256323   6.156   3.719  12.956 -0.3327 -0.1433  0.1799
11611TIP3    H156324   6.248   3.744  12.950 -0.2803 -0.6174 -2.4983
11611TIP3    H256325   6.156   3.635  13.002  0.8378 -1.0297 -1.3361
11612TIP3   OH256326   0.619   1.342   0.947  0.5774 -0.4762 -0.0159
11612TIP3    H156327   0.559   1.275   0.980  0.4809 -0.8914 -1.0091
11612TIP3    H256328   0.579   1.425   0.973 -0.8623 -0.7122 -1.3328
11613TIP3   OH256329   5.341   3.609  11.948 -0.4453  0.4971  0.2543
11613TIP3    H156330   5.383   3.695  11.939 -2.1568  1.2909 -0.6415
11613TIP3    H256331   5.294   3.614  12.031 -1.6556  0.9920 -0.4211
11614TIP3   OH256332   3.050   0.301  16.709 -0.2710  0.7271 -0.0539
11614TIP3    H156333   3.102   0.271  16.635  1.0829  0.2586  1.0273
11614TIP3    H256334   3.071   0.393  16.718  1.5965  0.2243  1.2671
11615TIP3   OH256335   4.334   3.220   3.286 -0.3430  0.6165  0.1126
11615TIP3    H156336   4.419   3.197   3.248  0.8396  2.8083  1.2452
11615TIP3    H256337   4.271   3.206   3.215  1.2317  0.7355 -1.3589
11616TIP3   OH256338   3.345   3.142   0.352 -0.3742  0.3179 -0.2687
11616TIP3    H156339   3.253   3.138   0.375 -0.6418  0.7734 -1.1994
11616TIP3    H256340   3.377   3.223   0.391 -0.7054  0.8395 -1.0575
11617TIP3   OH256341   3.600   4.315  16.814 -0.6009 -0.2326 -0.4435
11617TIP3    H156342   3.563   4.285  16.731  0.3812 -3.0458  0.0375
11617TIP3    H256343   3.681   4.360  16.789 -2.2918  2.6767 -1.2080
11618TIP3   OH256344   4.166   0.926  17.066  0.1865  0.1071 -0.2889
11618TIP3    H156345   4.167   0.991  17.137 -0.2870  0.3966 -0.5433
11618TIP3    H256346   4.073   0.911  17.049  0.2983 -0.3289 -0.5178
11619TIP3   OH256347   2.855   5.587  12.047 -0.0371  0.6658 -0.0457
11619TIP3    H156348   2.857   5.637  11.965  2.1511  0.2586 -0.2917
11619TIP3    H256349   2.940   5.604  12.088 -0.7648  0.2184  1.7798
11620TIP3   OH256350   3.170   4.954  16.213 -0.0087 -0.2132  0.5077
11620TIP3    H156351   3.206   5.029  16.259 -0.1061  0.3098 -0.2537
11620TIP3    H256352   3.243   4.892  16.206  1.2094  1.3669 -2.1838
11621TIP3   OH256353   5.891   0.378   2.809  0.1001  0.5650 -0.1906
11621TIP3    H156354   5.977   0.413   2.786  1.2590 -0.8309  1.7122
11621TIP3    H256355   5.902   0.283   2.811 -1.4649  0.3466  0.1839
11622TIP3   OH256356   6.002   0.350  16.519 -0.1575  0.0032  0.3204
11622TIP3    H156357   6.094   0.375  16.522  0.4762 -2.1075  0.1576
11622TIP3    H256358   5.973   0.354  16.610  0.1650  0.3985  0.4082
11623TIP3   OH256359   5.840   2.207  11.747 -0.2222  0.9331  0.3710
11623TIP3    H156360   5.923   2.161  11.758 -2.6501 -4.3429 -0.4269
11623TIP3    H256361   5.843   2.241  11.657  0.5514 -0.5810 -0.2127
11624TIP3   OH256362   3.582   0.317   4.247  0.0059  0.2000 -0.7407
11624TIP3    H156363   3.530   0.292   4.323  0.9772  0.8055  0.1492
11624TIP3    H256364   3.590   0.237   4.196  1.3958 -0.8881  1.0573
11625TIP3   OH256365   0.163   2.644  14.217 -0.1828 -0.6058  0.2507
11625TIP3    H156366   0.126   2.660  14.130  0.2678 -1.7676 -0.1636
11625TIP3    H256367   0.257   2.656  14.206 -0.3063  1.7101  1.1625
11626TIP3   OH256368   1.656   1.673  16.859  0.1489 -0.2276 -0.3018
11626TIP3    H156369   1.597   1.608  16.897  1.5452 -2.0111 -1.0618
11626TIP3    H256370   1.694   1.718  16.934  1.0447 -2.0426  0.3916
11627TIP3   OH256371   3.602   2.013  11.810  0.0507  0.5296  0.1682
11627TIP3    H156372   3.663   2.047  11.745 -0.7793  1.9502  0.1067
11627TIP3    H256373   3.519   2.056  11.791 -0.5939 -0.1922  1.2186
11628TIP3   OH256374   6.168   3.549  11.965  0.4498 -0.0154  0.6837
11628TIP3    H156375   6.131   3.608  11.900  1.8974  1.4883  1.1734
11628TIP3    H256376   6.091   3.514  12.012 -0.4320  2.0069  0.8401
11629TIP3   OH256377   4.424   6.623   0.422  0.2002 -0.1234  0.2463
11629TIP3    H156378   4.428   6.637   0.327 -1.9753  2.4313  0.4010
11629TIP3    H256379   4.473   6.697   0.459  1.7097 -1.5278  1.1516
11630TIP3   OH256380   5.686   3.553   1.521  0.4238  0.1910 -0.1558
11630TIP3    H156381   5.735   3.619   1.570 -0.7975  0.9736  0.0730
11630TIP3    H256382   5.629   3.604   1.464 -0.3245 -0.6726 -0.1982
11631TIP3   OH256383   1.810   4.949  15.295 -0.3596  0.2096 -0.0885
11631TIP3    H156384   1.905   4.954  15.283  0.0915 -0.3507  2.5898
11631TIP3    H256385   1.787   5.031  15.338 -1.1059  0.3424 -0.7246
11632TIP3   OH256386   5.700   3.438  16.593 -0.0174 -0.5263 -0.0314
11632TIP3    H156387   5.775   3.495  16.610  0.1888 -0.1540 -2.0069
11632TIP3    H256388   5.640   3.456  16.666  1.1959  0.1946  0.8302
11633TIP3   OH256389   0.390   6.664   0.006 -0.1193  0.4616 -0.2580
11633TIP3    H156390   0.371   6.730  -0.060  0.0674  0.6282 -0.1467
11633TIP3    H256391   0.408   6.584  -0.043 -1.1760  0.2788 -0.3657
11634TIP3   OH256392   2.908   1.789  11.122  0.1478  0.1737  0.0726
11634TIP3    H156393   2.843   1.857  11.104  3.6095  3.7556 -0.2863
11634TIP3    H256394   2.930   1.753  11.035 -2.7568 -2.8218  0.3765
11635TIP3   OH256395   3.830   0.947   4.547  0.0099  0.4554 -0.1408
11635TIP3    H156396   3.761   0.956   4.612  0.5956 -1.0861  0.7524
11635TIP3    H256397   3.808   0.866   4.499  1.2293 -0.1341  0.2433
11636TIP3   OH256398   2.220   3.374  10.828 -0.3953  0.1732 -0.3307
11636TIP3    H156399   2.141   3.341  10.870  0.4618 -3.8550 -1.4797
11636TIP3    H256400   2.285   3.375  10.898 -0.1966 -1.7395 -0.4477
11637TIP3   OH256401   6.275   4.532  13.747 -0.0521 -0.2080 -0.2105
11637TIP3    H156402   6.326   4.504  13.823  0.4103 -0.6788 -0.6833
11637TIP3    H256403   6.240   4.450  13.711 -0.8283  0.0791 -0.1115
11638TIP3   OH256404   1.324   1.638  11.395  0.3575  0.1266 -0.5405
11638TIP3    H156405   1.344   1.652  11.488 -1.7633 -1.9162  0.3363
11638TIP3    H256406   1.279   1.718  11.368  2.2311  1.3347 -0.2830
11639TIP3   OH256407   1.907   0.911   2.639 -0.1148 -0.2207  0.0987
11639TIP3    H156408   1.973   0.857   2.682  0.0276 -0.6835 -0.6810
11639TIP3    H256409   1.863   0.957   2.711  0.6558 -0.3510  0.6678
11640TIP3   OH256410   0.338   6.270   3.214 -0.0728  0.1392 -0.0579
11640TIP3    H156411   0.286   6.314   3.281  0.0262  0.3004 -0.0867
11640TIP3    H256412   0.409   6.331   3.195 -0.3717  0.3095 -0.6586
11641TIP3   OH256413   1.430   3.386  10.548  0.3994  0.2910 -0.1727
11641TIP3    H156414   1.488   3.317  10.517  0.0868 -0.0322 -0.0528
11641TIP3    H256415   1.455   3.398  10.640  0.1662  0.0312 -0.0731
11642TIP3   OH256416   2.782   2.911  13.957  0.3960  0.3588  0.0499
11642TIP3    H156417   2.852   2.976  13.948  0.5348  0.1814 -0.1613
11642TIP3    H256418   2.810   2.838  13.903  0.7118 -0.2736  1.0344
11643TIP3   OH256419   1.961   0.976  14.397  0.1300 -0.1523  0.6623
11643TIP3    H156420   1.884   0.942  14.350  1.4958 -0.2345 -1.6270
11643TIP3    H256421   2.028   0.910  14.384  1.1068  0.7092  1.1923
11644TIP3   OH256422   3.533   0.215  11.031  0.0481  0.4280  0.0235
11644TIP3    H156423   3.440   0.216  11.008 -0.3661  1.0349  1.6274
11644TIP3    H256424   3.561   0.126  11.010 -1.6854 -0.7735  2.3845
11645TIP3   OH256425   6.000   1.397   5.597  0.3773  0.4500 -0.0020
11645TIP3    H156426   5.964   1.456   5.663  0.1046 -0.9436  1.1388
11645TIP3    H256427   5.934   1.327   5.588  0.9818 -0.0375 -0.8286
11646TIP3   OH256428   0.645   3.021   4.033  0.2462 -0.3540  0.6430
11646TIP3    H156429   0.578   3.086   4.052 -0.0670 -0.4124 -0.2070
11646TIP3    H256430   0.694   3.057   3.959  0.0476 -1.0833  0.1387
11647TIP3   OH256431   3.418   6.754   1.029 -0.0411  0.5606 -0.4708
11647TIP3    H156432   3.432   6.674   1.081  0.9219  2.5571  2.5941
11647TIP3    H256433   3.504   6.772   0.990  0.7077  1.8674  1.6611
11648TIP3   OH256434   3.555   1.776   0.273  0.3041  0.5610 -0.2232
11648TIP3    H156435   3.636   1.727   0.257  0.0433  0.5979 -1.7701
11648TIP3    H256436   3.584   1.855   0.317  1.4725  1.7338 -2.8729
11649TIP3   OH256437   0.366   3.260   5.384  0.6630 -0.1323 -0.6265
11649TIP3    H156438   0.385   3.350   5.358  0.3613 -0.3717 -1.7124
11649TIP3    H256439   0.447   3.212   5.365  1.2735  0.1268  1.1445
11650TIP3   OH256440   5.504   1.941  12.020 -0.1025 -0.1410  0.0607
11650TIP3    H156441   5.570   1.878  12.048  0.0573 -0.2210 -0.4954
11650TIP3    H256442   5.554   2.018  11.994 -0.2507 -0.0815 -0.0453
11651TIP3   OH256443   5.445   2.706   0.360 -0.0631  0.1450  0.6182
11651TIP3    H156444   5.350   2.712   0.358 -0.0293  0.6481 -0.7665
11651TIP3    H256445   5.474   2.785   0.407 -0.3266 -0.2061  1.3845
11652TIP3   OH256446   3.633   4.783   4.780  0.3960 -0.3436  0.6196
11652TIP3    H156447   3.592   4.846   4.839 -0.2955 -0.3328  0.1377
11652TIP3    H256448   3.662   4.712   4.838 -0.0402 -0.2096  1.0127
11653TIP3   OH256449   4.650   5.435   6.635 -0.1220 -0.2947 -0.4575
11653TIP3    H156450   4.630   5.467   6.547 -0.3539 -1.1452 -0.7226
11653TIP3    H256451   4.588   5.364   6.649 -1.1505  0.8617  1.0269
11654TIP3   OH256452   0.187   1.614   4.741 -0.2002  0.3724  0.0741
11654TIP3    H156453   0.157   1.536   4.787 -1.2365  0.4879 -0.3894
11654TIP3    H256454   0.283   1.609   4.745 -0.2534 -0.9467  0.0022
11655TIP3   OH256455   2.396   1.097  14.726 -0.0445  0.0838  0.6639
11655TIP3    H156456   2.349   1.080  14.645  1.8609  1.6622 -0.8606
11655TIP3    H256457   2.350   1.170  14.766 -0.3071  0.0575  0.4099
11656TIP3   OH256458   3.763   5.246   2.329  0.6259  0.1216 -0.1164
11656TIP3    H156459   3.800   5.334   2.320 -1.7117  1.1693 -0.3507
11656TIP3    H256460   3.764   5.211   2.240  0.6265  0.3213 -0.1958
11657TIP3   OH256461   1.899   3.022   0.945  0.1204 -0.1020  0.0855
11657TIP3    H156462   1.814   3.046   0.981 -0.0206  1.1147 -0.9998
11657TIP3    H256463   1.951   3.102   0.950  0.7524 -0.4641 -0.5442
11658TIP3   OH256464   1.007   1.151  10.707  1.0174  0.0657  0.1071
11658TIP3    H156465   1.051   1.072  10.675 -0.1463 -1.0202  1.0900
11658TIP3    H256466   0.943   1.172  10.640  0.2702 -0.7572  0.5433
11659TIP3   OH256467   6.382   5.524  14.685 -0.5341 -0.6063 -0.0404
11659TIP3    H156468   6.408   5.549  14.597 -0.0521  1.0340  0.5297
11659TIP3    H256469   6.295   5.563  14.697  0.1568  0.7444  0.8051
11660TIP3   OH256470   3.800   1.533   2.407  0.7275  0.2762  0.3071
11660TIP3    H156471   3.766   1.447   2.384 -1.2959  1.4145 -1.2765
11660TIP3    H256472   3.790   1.537   2.502  0.1101 -0.9393  0.3202
11661TIP3   OH256473   4.200   0.564  14.339  0.1322  0.0056 -0.0273
11661TIP3    H156474   4.147   0.643  14.346  1.5642  1.2080 -1.8093
11661TIP3    H256475   4.274   0.580  14.398 -0.5808 -0.9549  1.1886
11662TIP3   OH256476   2.890   4.989   0.626  0.4653 -0.3131 -0.1255
11662TIP3    H156477   2.891   4.922   0.694 -0.6516  0.2155  0.4340
11662TIP3    H256478   2.983   5.005   0.606  0.8372 -0.0735  1.6682
11663TIP3   OH256479   3.544   3.443   5.325  0.1614 -0.0262 -0.4024
11663TIP3    H156480   3.556   3.495   5.405 -1.1518 -0.3264  0.0092
11663TIP3    H256481   3.619   3.466   5.271 -0.6767  2.8231 -0.5182
11664TIP3   OH256482   0.471   0.385  13.120 -0.0138  0.0015 -0.5263
11664TIP3    H156483   0.477   0.452  13.052 -1.3167  1.5018  0.7331
11664TIP3    H256484   0.476   0.435  13.202 -0.0689 -1.5750  0.4682
11665TIP3   OH256485   3.238   5.591  17.005 -0.2004  0.3828  0.3619
11665TIP3    H156486   3.247   5.680  16.971  0.6215 -0.3857 -1.5657
11665TIP3    H256487   3.147   5.568  16.988  0.3450 -0.2191 -2.0707
11666TIP3   OH256488   6.444   1.465  10.636  0.0993 -0.2029 -0.2629
11666TIP3    H156489   6.510   1.497  10.698  1.4970 -1.4241 -1.0550
11666TIP3    H256490   6.447   1.528  10.564  2.1068 -1.4318 -1.3461
11667TIP3   OH256491   5.868   4.423   1.923  0.1598 -0.2960  0.1851
11667TIP3    H156492   5.824   4.341   1.946 -0.5358  0.2702  0.8995
11667TIP3    H256493   5.895   4.461   2.006  2.6328 -0.9252 -0.2396
11668TIP3   OH256494   3.960   3.386  10.762  0.2475  0.8018  0.1598
11668TIP3    H156495   3.983   3.367  10.671  0.6255 -0.2620  0.4563
11668TIP3    H256496   3.868   3.412  10.759 -0.2968 -1.0288 -0.3364
11669TIP3   OH256497   5.607   2.897  15.681  0.5282  0.4737 -0.4133
11669TIP3    H156498   5.619   2.813  15.636  1.6591  0.4457 -0.0734
11669TIP3    H256499   5.687   2.946  15.663  0.2262  1.1657  0.0784
11670TIP3   OH256500   6.636   4.538  13.207 -0.2327 -0.1848 -0.1689
11670TIP3    H156501   6.632   4.632  13.228 -0.2256  0.0447 -1.1709
11670TIP3    H256502   6.707   4.530  13.144 -0.6591 -0.7717 -0.5856
11671TIP3   OH256503   5.191   3.721   2.503 -0.6163 -0.5388 -0.5034
11671TIP3    H156504   5.230   3.792   2.553 -2.5056  1.5272 -1.7575
11671TIP3    H256505   5.099   3.719   2.531 -0.5819 -2.7212 -0.3274
11672TIP3   OH256506   6.548   1.504  16.132  0.1223  0.0180  0.1848
11672TIP3    H156507   6.488   1.579  16.124 -1.8565 -1.6307 -2.2647
11672TIP3    H256508   6.543   1.478  16.224 -0.3140  1.9374  0.7471
11673TIP3   OH256509   5.322   0.668  15.847  0.3736  0.8056 -0.0456
11673TIP3    H156510   5.322   0.659  15.752  0.4761 -0.4822  0.0547
11673TIP3    H256511   5.410   0.641  15.874 -0.5382 -1.8543  0.6059
11674TIP3   OH256512   4.655   6.294   0.721  0.1646  0.3104 -0.3853
11674TIP3    H156513   4.728   6.232   0.715 -0.0259 -0.0772  0.9712
11674TIP3    H256514   4.593   6.252   0.781 -1.6048  0.2101 -2.1474
11675TIP3   OH256515   1.725   5.454   2.425 -0.5710 -0.0196  0.1220
11675TIP3    H156516   1.691   5.489   2.508  0.5826 -0.6937  0.9110
11675TIP3    H256517   1.698   5.518   2.359 -1.0480  0.8118  1.0924
11676TIP3   OH256518   5.081   3.246   0.781 -0.1202  0.2250 -0.2548
11676TIP3    H156519   5.111   3.224   0.693 -0.7312 -1.5435 -0.0722
11676TIP3    H256520   5.025   3.323   0.769 -0.9982 -0.5697 -1.5891
11677TIP3   OH256521   1.270   2.441  12.955  0.2435 -0.1759 -0.2188
11677TIP3    H156522   1.294   2.354  12.923  1.3251 -0.8291  2.1309
11677TIP3    H256523   1.187   2.461  12.911 -0.3193 -2.6383 -0.4112
11678TIP3   OH256524   1.603   6.515   4.436 -0.0101 -0.2106 -0.0005
11678TIP3    H156525   1.611   6.446   4.503 -0.4294 -1.1367 -0.8761
11678TIP3    H256526   1.547   6.476   4.369  0.9930  0.4372 -1.2493
11679TIP3   OH256527   1.709   4.954  13.092  0.2763  0.2544 -0.0369
11679TIP3    H156528   1.614   4.959  13.101  0.0065 -1.6905 -1.2198
11679TIP3    H256529   1.740   4.927  13.179 -0.3103  0.3093  0.1958
11680TIP3   OH256530   3.134   0.135  13.613  0.7634  0.1871  0.3489
11680TIP3    H156531   3.123   0.202  13.546  0.3049 -0.0472  0.1846
11680TIP3    H256532   3.227   0.113  13.611  0.6658 -0.1737 -0.5539
11681TIP3   OH256533   5.653   3.349   5.266  0.1860  1.1361 -0.5622
11681TIP3    H156534   5.738   3.357   5.223  0.1927  1.8903 -0.4200
11681TIP3    H256535   5.591   3.384   5.202  0.1907  2.2269  0.0014
11682TIP3   OH256536   5.000   5.246   1.025 -0.3392  0.0317 -0.0824
11682TIP3    H156537   5.055   5.167   1.024 -1.1340 -0.5602 -1.8970
11682TIP3    H256538   4.917   5.216   1.061 -0.2680  0.3426  0.3478
11683TIP3   OH256539   5.402   3.938   0.384  0.0614 -0.1614 -0.1840
11683TIP3    H156540   5.421   3.935   0.290 -1.4214 -0.0432 -0.5188
11683TIP3    H256541   5.309   3.961   0.389  0.4902  1.5007  1.3533
11684TIP3   OH256542   6.587   0.051  14.296 -0.1877  0.2323 -0.1499
11684TIP3    H156543   6.533   0.114  14.345 -2.5211 -0.2297 -1.9485
11684TIP3    H256544   6.644   0.105  14.241  0.3398  0.7345  0.8638
11685TIP3   OH256545   5.214   5.534  12.741  0.5303  0.0778 -0.3541
11685TIP3    H156546   5.282   5.469  12.721 -0.4023 -1.0820  0.1601
11685TIP3    H256547   5.210   5.536  12.837  0.2091  0.5425 -0.3715
11686TIP3   OH256548   4.502   4.265   1.229  0.3006  0.1696 -0.1262
11686TIP3    H156549   4.414   4.302   1.222 -0.3570 -1.3003  0.2009
11686TIP3    H256550   4.528   4.281   1.319 -0.5913 -1.4551  0.4438
11687TIP3   OH256551   5.924   1.562   2.592 -0.0130  0.4313 -0.1632
11687TIP3    H156552   5.843   1.517   2.614 -0.0699  0.1264 -0.9575
11687TIP3    H256553   5.924   1.640   2.647 -0.8505  0.4350 -0.1565
11688TIP3   OH256554   4.489   0.618   5.438  0.2686 -0.0427  0.3796
11688TIP3    H156555   4.485   0.523   5.438 -1.5245  0.0069  0.6407
11688TIP3    H256556   4.484   0.642   5.345  1.5544 -0.2050  0.2532
11689TIP3   OH256557   0.102   4.767   1.899  0.1673 -0.1798  0.1200
11689TIP3    H156558   0.044   4.809   1.836 -1.0941 -0.0555  1.3081
11689TIP3    H256559   0.173   4.830   1.913 -1.2341  1.2300  1.2067
11690TIP3   OH256560   2.527   4.845  11.881 -0.0176 -0.2499 -0.0803
11690TIP3    H156561   2.611   4.873  11.916 -1.2207 -0.5056  3.4389
11690TIP3    H256562   2.532   4.750  11.877  0.6961 -0.1697 -2.4997
11691TIP3   OH256563   0.877   3.759  15.456 -0.4669 -0.1382  0.2122
11691TIP3    H156564   0.839   3.847  15.464  0.3368  0.2351  0.0475
11691TIP3    H256565   0.888   3.730  15.547 -1.6457 -0.4879  0.2609
11692TIP3   OH256566   5.401   6.270   4.989 -0.2271 -0.0973 -0.0513
11692TIP3    H156567   5.313   6.238   5.008 -0.2124 -0.1444 -0.0627
11692TIP3    H256568   5.400   6.362   5.016 -0.6703  0.2625 -1.2574
11693TIP3   OH256569   5.733   3.315   2.646 -0.3006 -0.1833  0.1462
11693TIP3    H156570   5.801   3.348   2.587  1.9564 -1.9741  1.5607
11693TIP3    H256571   5.703   3.392   2.695 -0.3304  0.8663 -1.4556
11694TIP3   OH256572   0.100   6.298   5.463  0.2468 -0.5966  0.1263
11694TIP3    H156573   0.119   6.321   5.372  2.7620 -0.1814  0.6767
11694TIP3    H256574   0.015   6.254   5.459  0.2567 -0.5634 -2.4056
11695TIP3   OH256575   4.856   1.915  13.770  0.4103  0.2988  0.1943
11695TIP3    H156576   4.902   1.841  13.810 -1.5345 -0.8084  0.5002
11695TIP3    H256577   4.921   1.956  13.714  1.5507 -1.6717 -0.0068
11696TIP3   OH256578   4.146   5.111   1.173  0.9543  0.4530 -0.0581
11696TIP3    H156579   4.163   5.116   1.267  0.9563 -0.9037  0.0347
11696TIP3    H256580   4.219   5.059   1.138 -0.0809 -0.7656 -0.4852
11697TIP3   OH256581   3.029   5.319   2.960  0.0381 -0.3238 -0.4676
11697TIP3    H156582   2.938   5.347   2.946  0.3460  1.1388  0.2756
11697TIP3    H256583   3.022   5.236   3.008 -0.9145  0.6243  1.1048
11698TIP3   OH256584   4.037   1.634   5.938  0.0549 -0.5767  0.0925
11698TIP3    H156585   3.973   1.676   5.995  1.6085  3.0975 -0.5848
11698TIP3    H256586   4.068   1.558   5.988 -1.2055  0.4277  2.5710
11699TIP3   OH256587   0.206   1.043   0.949 -0.2817  0.5918  0.2094
11699TIP3    H156588   0.183   0.962   0.995  0.3469  0.9082  1.1142
11699TIP3    H256589   0.246   1.098   1.016 -0.9293  1.7632 -0.3371
11700TIP3   OH256590   6.210   3.800   4.568 -0.6504  0.5575  0.2008
11700TIP3    H156591   6.246   3.887   4.550  0.3195 -0.0455 -0.9641
11700TIP3    H256592   6.273   3.740   4.527 -1.9676 -0.6359 -0.1331
11701TIP3   OH256593   6.420   5.749   2.348 -0.1931 -0.7037 -0.7690
11701TIP3    H156594   6.467   5.666   2.338 -0.5151 -0.6632 -3.3474
11701TIP3    H256595   6.391   5.771   2.259 -0.5625  1.9301 -0.0800
11702TIP3   OH256596   5.656   5.485   2.496  0.1688 -0.9295  0.0859
11702TIP3    H156597   5.685   5.396   2.476  1.3066 -0.5701  0.0391
11702TIP3    H256598   5.561   5.482   2.490  0.2619 -1.8025 -1.3345
11703TIP3   OH256599   6.313   5.624  15.167  0.1824  0.5150 -0.1658
11703TIP3    H156600   6.302   5.704  15.116  0.2337  0.2413 -0.6101
11703TIP3    H256601   6.383   5.644  15.229 -1.1920  1.5082  1.1411
11704TIP3   OH256602   4.058   6.018   5.591  0.2037  0.4564 -0.2206
11704TIP3    H156603   4.054   6.112   5.572 -0.3270  0.5170  0.1848
11704TIP3    H256604   3.990   5.979   5.536 -0.9516  0.5632  1.1012
11705TIP3   OH256605   5.132   4.681  10.638  0.2104  0.3221  0.1654
11705TIP3    H156606   5.097   4.620  10.703 -0.3502 -1.2331 -1.5239
11705TIP3    H256607   5.180   4.626  10.577 -1.2335  1.3913 -2.0506
11706TIP3   OH256608   5.411   1.729   2.281  0.6552  0.0136  0.2202
11706TIP3    H156609   5.332   1.773   2.250  0.4055  0.4096  1.3550
11706TIP3    H256610   5.467   1.800   2.313  1.3034 -0.2973 -0.2010
11707TIP3   OH256611   0.266   4.970   3.820  0.4778  0.1492 -0.1985
11707TIP3    H156612   0.358   4.968   3.846 -0.0386  0.1666  1.7961
11707TIP3    H256613   0.222   4.911   3.881 -1.2198  2.1529  0.6395
11708TIP3   OH256614   0.184   6.373   1.894  0.2512  0.0713 -0.3156
11708TIP3    H156615   0.097   6.412   1.883  0.4351  1.4574  2.3557
11708TIP3    H256616   0.169   6.300   1.954  0.9617  0.5760  0.4940
11709TIP3   OH256617   5.916   6.214   5.856  1.1075  0.4946 -0.0660
11709TIP3    H156618   5.942   6.138   5.909  2.2494 -0.6409 -2.1226
11709TIP3    H256619   5.952   6.289   5.903 -0.3089 -0.1327  2.1793
11710TIP3   OH256620   4.148   4.964  13.107 -0.1073  0.4078 -0.5762
11710TIP3    H156621   4.097   4.948  13.027  1.1276 -0.8777 -1.1578
11710TIP3    H256622   4.224   4.907  13.098 -0.1340 -0.0906  1.7259
11711TIP3   OH256623   1.690   6.642  14.337  0.4286 -0.1843 -0.3672
11711TIP3    H156624   1.638   6.649  14.417 -1.8579 -1.1019 -1.6863
11711TIP3    H256625   1.755   6.574  14.357 -0.9373 -1.3427  0.3127
11712TIP3   OH256626   2.580   5.875   4.776 -0.0058 -0.6536 -0.1426
11712TIP3    H156627   2.624   5.949   4.818 -0.1171 -1.3255  1.2146
11712TIP3    H256628   2.598   5.800   4.833 -1.0553 -1.3963 -0.7381
11713TIP3   OH256629   3.087   2.044   5.576  0.1349  0.0739 -0.4908
11713TIP3    H156630   3.177   2.074   5.589  0.1315  0.0302 -0.3720
11713TIP3    H256631   3.065   2.076   5.488  0.6882 -0.9594 -1.0282
11714TIP3   OH256632   4.897   0.482  10.994  0.1666  0.2909 -0.5453
11714TIP3    H156633   4.905   0.389  10.973  1.4059  0.2584 -0.0098
11714TIP3    H256634   4.915   0.487  11.088 -1.1133  0.9451 -0.3017
11715TIP3   OH256635   1.101   1.557  14.166 -0.3544 -0.6444  0.3091
11715TIP3    H156636   1.070   1.507  14.091 -1.2090 -0.5987  0.6275
11715TIP3    H256637   1.113   1.646  14.134 -1.3608 -0.4751  0.3837
11716TIP3   OH256638   2.253   2.284  15.098 -0.2369 -0.5944  0.6421
11716TIP3    H156639   2.210   2.323  15.173 -3.1608  1.5879 -1.9237
11716TIP3    H256640   2.212   2.198  15.088  0.2972 -0.9720  1.5748
11717TIP3   OH256641   6.143   6.777   0.138  0.3867  0.0524  0.2494
11717TIP3    H156642   6.198   6.855   0.148 -0.5843  0.6567  1.0293
11717TIP3    H256643   6.158   6.726   0.217 -0.5919  0.5052  0.7419
11718TIP3   OH256644   1.360   2.718  17.054  0.3774  0.0738  0.3725
11718TIP3    H156645   1.380   2.771  17.131 -0.9831  0.2188  0.6547
11718TIP3    H256646   1.333   2.782  16.987  2.5714  0.0465 -0.6104
11719TIP3   OH256647   3.565   4.010   3.962 -0.3529  0.4018 -0.2127
11719TIP3    H156648   3.543   4.052   3.879 -2.0126  0.3540  0.1721
11719TIP3    H256649   3.580   3.918   3.938 -0.3321  0.4836 -0.5253
11720TIP3   OH256650   3.508   0.882  12.415 -0.6862  0.0073  0.1606
11720TIP3    H156651   3.602   0.865  12.404 -0.2501  2.3178 -0.2045
11720TIP3    H256652   3.502   0.938  12.492 -1.3205  2.6924 -1.6853
11721TIP3   OH256653   0.776   2.831  16.724  0.5819 -0.2483  0.7359
11721TIP3    H156654   0.853   2.836  16.668 -0.4942  0.3311 -0.7384
11721TIP3    H256655   0.754   2.738  16.726  0.6152 -0.2704  0.1696
11722TIP3   OH256656   3.899   5.738   2.450  0.0988 -0.5192 -0.4636
11722TIP3    H156657   3.853   5.775   2.525 -0.0112 -1.8306  0.1214
11722TIP3    H256658   3.992   5.749   2.471  0.1608  2.1406 -1.6509
11723TIP3   OH256659   2.262   2.637   3.707  0.4339  0.0806 -0.2938
11723TIP3    H156660   2.327   2.583   3.751  0.1685  0.2878  0.3740
11723TIP3    H256661   2.278   2.726   3.740  0.7916  0.4004 -1.2925
11724TIP3   OH256662   6.176   2.114  13.957  0.0220  0.3620 -0.7288
11724TIP3    H156663   6.132   2.039  13.916 -4.6777  2.1879  0.4129
11724TIP3    H256664   6.147   2.189  13.906 -0.5715  1.9930  1.8468
11725TIP3   OH256665   2.740   2.885  11.592 -0.4639 -0.2945  0.1293
11725TIP3    H156666   2.666   2.902  11.534 -0.7608 -0.5388  0.4370
11725TIP3    H256667   2.701   2.880  11.679  0.3394  3.6177  0.9118
11726TIP3   OH256668   3.314   2.203   1.849  1.1758  0.0925  0.1278
11726TIP3    H156669   3.373   2.129   1.858  1.3435  0.1777 -0.2701
11726TIP3    H256670   3.229   2.170   1.880  1.0553 -0.5158 -0.8310
11727TIP3   OH256671   4.785   0.182   4.409 -0.2256  0.4256  0.0495
11727TIP3    H156672   4.833   0.258   4.443  1.9298 -0.1291 -1.4686
11727TIP3    H256673   4.752   0.211   4.324 -0.4303  0.0248 -0.0107
11728TIP3   OH256674   4.037   6.501   4.063 -0.1515 -0.4136  0.3721
11728TIP3    H156675   4.082   6.549   4.132  0.5882 -0.7256  0.1149
11728TIP3    H256676   3.964   6.557   4.038 -0.4896 -0.3412  1.4734
11729TIP3   OH256677   5.944   2.635   3.852 -0.2375  0.2081 -0.1570
11729TIP3    H156678   5.997   2.619   3.774  0.9712  1.6215  0.3170
11729TIP3    H256679   5.941   2.551   3.897  0.1495 -0.3121 -1.0765
11730TIP3   OH256680   0.063   1.433   5.141  0.2278  0.5373 -0.0666
11730TIP3    H156681   0.082   1.527   5.129 -1.5771  0.5620 -3.9610
11730TIP3    H256682  -0.023   1.431   5.182  1.2808  0.4167  2.3757
11731TIP3   OH256683   4.247   4.280   1.389  0.2116  0.2182 -0.2756
11731TIP3    H156684   4.252   4.189   1.363  0.0382  0.0286  0.3384
11731TIP3    H256685   4.154   4.303   1.378  0.4849  0.7446 -1.7871
11732TIP3   OH256686   4.503   1.405  16.427 -0.1122 -0.9041  0.1680
11732TIP3    H156687   4.588   1.418  16.385 -1.0515 -0.5002 -1.7378
11732TIP3    H256688   4.480   1.492  16.459  1.0240 -1.3880  2.5020
11733TIP3   OH256689   2.044   1.813   4.316  0.1039 -0.3123  0.5086
11733TIP3    H156690   2.060   1.899   4.278 -2.5100 -0.0812 -0.2915
11733TIP3    H256691   2.020   1.832   4.407  0.0819 -0.2492  0.4904
11734TIP3   OH256692   6.289   2.061  11.067  0.0047  0.4164  0.2756
11734TIP3    H156693   6.371   2.052  11.018 -1.0348  0.9137 -1.6994
11734TIP3    H256694   6.269   2.155  11.061 -1.0834  0.1821  0.0318
11735TIP3   OH256695   5.440   5.926   4.725  0.4733 -0.4173 -0.0125
11735TIP3    H156696   5.479   5.999   4.773  1.8601 -0.1637 -1.4355
11735TIP3    H256697   5.453   5.949   4.632 -0.6635 -1.6370 -0.4981
11736TIP3   OH256698   0.856   1.197  16.074  0.4724 -0.1435  0.1585
11736TIP3    H156699   0.774   1.151  16.092 -0.7372  1.2156 -1.6416
11736TIP3    H256700   0.901   1.198  16.159 -1.0684 -1.4361  1.0561
11737TIP3   OH256701   1.815   0.525   6.541 -0.4878  0.3902 -0.7696
11737TIP3    H156702   1.787   0.616   6.553  0.1103  0.6449 -1.2737
11737TIP3    H256703   1.864   0.525   6.459 -1.4964 -0.6283 -1.4035
11738TIP3   OH256704   2.573   0.663  13.485  0.7844  0.8212 -0.0926
11738TIP3    H156705   2.655   0.712  13.476  1.6613 -0.7345 -0.8836
11738TIP3    H256706   2.556   0.630  13.397 -1.3422  2.0740 -0.2105
11739TIP3   OH256707   2.450   2.769   0.697 -0.1922 -0.0353 -0.1820
11739TIP3    H156708   2.359   2.739   0.702 -0.7156  1.5298  0.3014
11739TIP3    H256709   2.464   2.787   0.604  0.1547 -1.7685 -0.4892
11740TIP3   OH256710   3.032   3.655   5.349  0.3513 -0.3129  0.1138
11740TIP3    H156711   2.949   3.610   5.366  0.5640 -0.1102  1.9292
11740TIP3    H256712   3.096   3.606   5.401  0.9005  1.0222  0.7315
11741TIP3   OH256713   5.935   2.625  14.846 -0.1557  0.1937 -0.3096
11741TIP3    H156714   6.006   2.637  14.783 -0.0788  0.0294 -0.2543
11741TIP3    H256715   5.874   2.697  14.827  0.7054  1.2014  0.5747
11742TIP3   OH256716   5.146   1.782  14.965  0.3357  0.0132  0.2094
11742TIP3    H156717   5.204   1.715  14.929  0.6353  0.2695  0.2169
11742TIP3    H256718   5.119   1.833  14.889  2.0367  1.4003  0.4783
11743TIP3   OH256719   5.625   1.941  13.693 -0.1252  1.0572  0.4738
11743TIP3    H156720   5.564   2.015  13.692 -0.0934  1.0955 -0.7701
11743TIP3    H256721   5.653   1.932  13.602 -3.7215 -3.4361 -0.5509
11744TIP3   OH256722   2.768   6.454  10.862  0.5575  0.5463  0.0831
11744TIP3    H156723   2.747   6.530  10.808 -2.7625  0.7332  1.4312
11744TIP3    H256724   2.738   6.478  10.950 -0.7864 -2.3377  0.5233
11745TIP3   OH256725   2.932   2.691  14.117 -0.0891  0.4329 -0.0784
11745TIP3    H156726   2.978   2.608  14.099  0.0707  0.5439 -0.1805
11745TIP3    H256727   2.844   2.678  14.081 -0.5360 -0.2259  1.1588
11746TIP3   OH256728   5.439   2.508   2.231  0.2209 -0.4747 -0.2369
11746TIP3    H156729   5.481   2.587   2.197 -2.6985  0.9921 -0.7337
11746TIP3    H256730   5.424   2.453   2.153  1.4896 -1.1868 -0.0046
11747TIP3   OH256731   0.699   5.830  12.900  0.1238  0.1017 -0.1683
11747TIP3    H156732   0.738   5.743  12.909  1.6700  0.9505  2.2444
11747TIP3    H256733   0.740   5.866  12.821  1.0618 -0.5769 -0.0076
11748TIP3   OH256734   1.458   2.380  12.358  0.4828  0.1518  0.1972
11748TIP3    H156735   1.413   2.419  12.283  1.2115 -0.5562 -0.6235
11748TIP3    H256736   1.534   2.335  12.320  1.1408  0.2018  1.4122
11749TIP3   OH256737   4.147   6.797  13.900 -0.2848  0.2068 -0.1205
11749TIP3    H156738   4.142   6.723  13.960  0.2035 -0.4612 -0.8807
11749TIP3    H256739   4.238   6.799  13.872 -0.3423  0.9653 -0.2808
11750TIP3   OH256740   3.142   2.414   4.677  0.1875 -0.7873  0.1063
11750TIP3    H156741   3.080   2.389   4.609  0.5612 -1.3244 -0.0437
11750TIP3    H256742   3.200   2.477   4.636 -0.0964 -0.4768  0.1739
11751TIP3   OH256743   1.147   2.391   4.502  0.0446  0.4299 -0.1890
11751TIP3    H156744   1.174   2.408   4.412  0.9369 -1.0788 -0.2430
11751TIP3    H256745   1.101   2.308   4.498  1.6992 -0.6092  0.9759
11752TIP3   OH256746   3.517   1.708   2.898 -0.3605 -0.1611 -0.2985
11752TIP3    H156747   3.582   1.711   2.828 -1.0597 -0.3836 -0.9658
11752TIP3    H256748   3.523   1.793   2.941 -0.1150  0.0730 -0.7958
11753TIP3   OH256749   4.168   0.654   3.924  0.0541 -0.0816  0.3496
11753TIP3    H156750   4.232   0.585   3.908  0.0996  0.1091 -0.2993
11753TIP3    H256751   4.186   0.682   4.014  0.5821 -0.3355  0.3295
11754TIP3   OH256752   5.903   3.437   0.027  0.0301  0.2836  0.1315
11754TIP3    H156753   5.920   3.377   0.099 -0.2741  0.1443  0.0886
11754TIP3    H256754   5.935   3.391  -0.051 -0.6017 -0.0115  0.0404
11755TIP3   OH256755   5.692   0.494  12.932  0.0263  0.0560 -0.1917
11755TIP3    H156756   5.750   0.514  12.859 -0.5690  1.0284 -0.4161
11755TIP3    H256757   5.635   0.425  12.899  0.3360 -0.1341 -0.3387
11756TIP3   OH256758   1.967   2.442   2.901  0.2596  0.2431 -0.0206
11756TIP3    H156759   2.028   2.460   2.830 -1.0117  1.5352 -0.8459
11756TIP3    H256760   2.015   2.463   2.981  0.4877  2.6309 -0.7142
11757TIP3   OH256761   6.730   1.896   3.652  0.6760 -0.0692  0.3747
11757TIP3    H156762   6.667   1.841   3.605  0.2459 -0.2680  1.1665
11757TIP3    H256763   6.801   1.911   3.590  1.1240 -2.0692  0.3577
11758TIP3   OH256764   2.387   0.178   2.009 -0.2094  0.1597 -0.2310
11758TIP3    H156765   2.379   0.212   1.920 -1.0532  0.6158  0.0190
11758TIP3    H256766   2.309   0.124   2.021 -1.4239  2.0871  1.0901
11759TIP3   OH256767   3.789   5.475  14.918  0.2921  0.1927  0.3231
11759TIP3    H156768   3.850   5.454  14.848  0.6091 -0.6698  0.8431
11759TIP3    H256769   3.703   5.467  14.878  0.4073 -1.7658  0.3780
11760TIP3   OH256770   1.045   6.528   3.613 -0.0406  0.0747  0.3320
11760TIP3    H156771   1.109   6.593   3.641  0.7364 -1.0634  1.2819
11760TIP3    H256772   1.023   6.553   3.523  1.9649  0.3044 -0.1317
11761TIP3   OH256773   6.448   5.703  13.798 -0.2135 -0.0963  0.1559
11761TIP3    H156774   6.385   5.666  13.860 -1.0044  1.6831  0.4725
11761TIP3    H256775   6.472   5.788  13.835 -1.2115  1.3303 -2.2636
11762TIP3   OH256776   2.105   4.479  17.166 -0.2147 -0.0384 -0.2281
11762TIP3    H156777   2.061   4.395  17.157 -0.9476  0.3079  0.0521
11762TIP3    H256778   2.198   4.459  17.155 -0.5335 -0.5148 -2.8803
11763TIP3   OH256779   0.619   4.322  11.606  0.6443 -0.2251  0.4902
11763TIP3    H156780   0.654   4.241  11.568  0.7269  0.2718 -0.5397
11763TIP3    H256781   0.527   4.303  11.622 -0.1405  0.3544 -2.5751
11764TIP3   OH256782   4.829   1.471   0.696 -0.0454 -0.4954 -0.1024
11764TIP3    H156783   4.848   1.565   0.687 -1.3517 -0.3297 -1.6276
11764TIP3    H256784   4.913   1.432   0.721  1.0291  0.8280 -1.4200
11765TIP3   OH256785   3.016   6.190   6.667  0.4603  0.0853  0.8475
11765TIP3    H156786   3.109   6.204   6.681  0.4678  1.9334 -0.5971
11765TIP3    H256787   3.007   6.096   6.655  2.1982 -0.0879  0.6820
11766TIP3   OH256788   2.600   3.670   2.724  0.0889 -0.2589 -0.1269
11766TIP3    H156789   2.674   3.683   2.666  1.8271 -3.0476  1.2324
11766TIP3    H256790   2.543   3.745   2.708  3.8581  2.9208 -0.1671
11767TIP3   OH256791   4.890   0.950   4.711 -0.0306  0.8054 -0.3019
11767TIP3    H156792   4.868   1.037   4.677  0.3401  0.9892 -0.0682
11767TIP3    H256793   4.984   0.941   4.694 -0.2776  0.0025 -1.3354
11768TIP3   OH256794   3.587   2.724  11.842 -0.1087  0.0261 -0.7862
11768TIP3    H156795   3.585   2.629  11.831  0.0499  0.1632 -2.1081
11768TIP3    H256796   3.496   2.748  11.863  0.2097 -0.6102  1.6516
11769TIP3   OH256797   1.540   1.730  13.503  0.0510  0.2859  0.7388
11769TIP3    H156798   1.603   1.700  13.569 -0.5517  0.4740  1.4054
11769TIP3    H256799   1.572   1.691  13.421  1.8492  1.5374  0.7888
11770TIP3   OH256800   4.376   6.279   4.175 -0.9776  0.4886  0.5201
11770TIP3    H156801   4.457   6.310   4.216 -1.1747  0.5290  0.8759
11770TIP3    H256802   4.393   6.187   4.156 -1.7198 -0.1726  2.8116
11771TIP3   OH256803   6.151   0.110  14.017 -0.2097  0.6787 -0.6400
11771TIP3    H156804   6.190   0.043  13.961  2.1638  2.0188 -0.7094
11771TIP3    H256805   6.225   0.164  14.046 -1.8280  2.3301  0.6987
11772TIP3   OH256806   6.539   1.874   1.888  0.0263 -0.0377  0.0064
11772TIP3    H156807   6.547   1.855   1.795  1.2312 -0.1283  0.1101
11772TIP3    H256808   6.514   1.966   1.893  1.7982  0.5022 -0.4048
11773TIP3   OH256809   0.895   5.615   4.397 -0.3562  0.2393  0.4726
11773TIP3    H156810   0.810   5.587   4.361 -0.9779  0.4331  1.7137
11773TIP3    H256811   0.920   5.544   4.456  0.4549  0.0959 -0.0374
11774TIP3   OH256812   3.488   1.721  16.131 -0.7521  0.5306  0.5608
11774TIP3    H156813   3.583   1.729  16.139 -0.6304 -0.2895  0.1042
11774TIP3    H256814   3.464   1.654  16.195 -0.8513 -0.0810 -0.0906
11775TIP3   OH256815   2.586   3.394   4.185 -0.6172  0.2255  0.2589
11775TIP3    H156816   2.549   3.473   4.146  0.8910  0.5216 -0.6558
11775TIP3    H256817   2.629   3.425   4.265  0.2633  0.4045 -0.2739
11776TIP3   OH256818   6.684   6.137  14.468  0.5874 -1.0206  0.2893
11776TIP3    H156819   6.650   6.061  14.515  0.2724 -0.8998  0.2640
11776TIP3    H256820   6.671   6.210  14.529 -0.2435 -0.7877 -0.1573
11777TIP3   OH256821   4.680   4.598  13.548  0.2191  0.0275  0.2421
11777TIP3    H156822   4.679   4.652  13.469  0.5834  1.4223  1.1501
11777TIP3    H256823   4.772   4.576  13.562  0.1802 -0.0546  0.3735
11778TIP3   OH256824   4.167   6.276   5.531 -0.3760 -0.0865 -0.1536
11778TIP3    H156825   4.180   6.370   5.542 -1.2414  0.8351 -4.9456
11778TIP3    H256826   4.248   6.237   5.564 -0.0442  2.1906  2.1049
11779TIP3   OH256827   4.524   4.706   4.256  0.6570 -0.5348  0.1865
11779TIP3    H156828   4.612   4.744   4.252  0.1236  0.9594  1.6898
11779TIP3    H256829   4.539   4.612   4.271  2.0275  0.0110  2.7319
11780TIP3   OH256830   2.089   1.311   2.317  0.2562 -0.1942  0.0502
11780TIP3    H156831   1.998   1.300   2.291 -0.2956  0.8896  1.4403
11780TIP3    H256832   2.112   1.400   2.288  0.5899 -0.1315  0.4897
11781TIP3   OH256833   1.341   1.407   5.711  0.0761  1.5886  0.7893
11781TIP3    H156834   1.345   1.451   5.626 -2.8354  0.7974  0.1244
11781TIP3    H256835   1.270   1.452   5.758 -0.9632 -0.4059  1.2346
11782TIP3   OH256836   3.503   6.164  14.679 -0.2370 -0.4894 -0.2746
11782TIP3    H156837   3.429   6.160  14.739 -0.5330  0.2927 -0.5756
11782TIP3    H256838   3.465   6.143  14.593 -0.6864  2.4325 -0.8971
11783TIP3   OH256839   4.502   1.613  11.176  0.1751  0.5090  0.4373
11783TIP3    H156840   4.590   1.610  11.213  0.4776  1.5514 -0.1337
11783TIP3    H256841   4.453   1.548  11.225  1.9389 -2.1933 -1.0843
11784TIP3   OH256842   4.687   6.299   5.548 -0.9004  0.4882 -0.2376
11784TIP3    H156843   4.642   6.238   5.606 -0.8026 -0.7162 -1.3703
11784TIP3    H256844   4.618   6.343   5.500 -0.9459  0.4695 -0.1891
11785TIP3   OH256845   1.277   5.785  11.573 -0.1730  0.1294  0.1901
11785TIP3    H156846   1.361   5.831  11.567 -0.4960  1.0507  2.1273
11785TIP3    H256847   1.265   5.768  11.666 -1.4827 -1.2780 -0.1999
11786TIP3   OH256848   5.770   2.204   0.400  0.1118 -0.6070 -0.3843
11786TIP3    H156849   5.731   2.173   0.318 -1.0535 -2.1483  0.7031
11786TIP3    H256850   5.723   2.285   0.420  1.7521  0.8783 -2.1911
11787TIP3   OH256851   4.640   6.580   2.101 -0.5151 -0.1705  0.6605
11787TIP3    H156852   4.690   6.622   2.031 -1.4012  0.1241  0.1891
11787TIP3    H256853   4.615   6.495   2.065  1.1052 -1.0777  1.5416
11788TIP3   OH256854   4.790   6.702  12.845  0.5672 -0.4052 -0.2906
11788TIP3    H156855   4.773   6.609  12.860  1.6318 -0.6041 -0.2460
11788TIP3    H256856   4.796   6.711  12.750 -0.6699 -0.1587 -0.3612
11789TIP3   OH256857   4.463   3.448  11.456  0.1125 -0.1471 -0.0156
11789TIP3    H156858   4.548   3.418  11.425  0.6505  0.4735  0.7975
11789TIP3    H256859   4.445   3.527  11.404  0.0758 -0.2274 -0.1252
11790TIP3   OH256860   0.220   3.596   4.793  0.2297  0.1601  0.8824
11790TIP3    H156861   0.304   3.619   4.831  0.5282 -1.5710  1.3391
11790TIP3    H256862   0.187   3.679   4.756  2.5222  0.7093 -0.1237
11791TIP3   OH256863   6.492   4.130  16.735  0.1711 -0.2877  0.1791
11791TIP3    H156864   6.439   4.128  16.815 -0.1930  0.1429 -0.0473
11791TIP3    H256865   6.482   4.042  16.698  0.7981 -0.6689  0.8971
11792TIP3   OH256866   5.281   5.238  14.682 -0.4203 -0.2481 -0.1897
11792TIP3    H156867   5.298   5.219  14.774  1.2099 -0.5357 -0.5212
11792TIP3    H256868   5.262   5.152  14.643  0.7922 -0.4087 -0.4714
11793TIP3   OH256869   4.253   5.743  13.463  0.1315  0.1413  0.2027
11793TIP3    H156870   4.189   5.786  13.520  0.1394  1.0862 -0.4963
11793TIP3    H256871   4.201   5.698  13.397  0.1467 -0.3745  0.5361
11794TIP3   OH256872   2.680   0.566   6.084 -0.3354  0.4644 -0.4702
11794TIP3    H156873   2.667   0.661   6.092 -0.8860  0.2590  2.4730
11794TIP3    H256874   2.600   0.528   6.122 -0.2723 -1.2061 -1.8853
11795TIP3   OH256875   4.504   4.196  12.325 -0.3987  0.2455 -0.1171
11795TIP3    H156876   4.430   4.196  12.387 -0.4439  0.7875 -0.1707
11795TIP3    H256877   4.490   4.117  12.272  0.0132 -0.5926  0.9991
11796TIP3   OH256878   2.847   0.378   2.542 -0.1768  0.2958 -0.1824
11796TIP3    H156879   2.803   0.294   2.533  1.3049 -0.5512  0.2286
11796TIP3    H256880   2.821   0.409   2.629 -0.2730 -0.0141 -0.0988
11797TIP3   OH256881   2.448   4.323   3.730  0.5183 -0.2554 -0.2111
11797TIP3    H156882   2.401   4.379   3.669  1.3321  0.3552 -0.2819
11797TIP3    H256883   2.467   4.380   3.805 -0.3946 -0.9684  0.6049
11798TIP3   OH256884   3.367   0.616   2.399 -0.2033  0.4132 -0.5362
11798TIP3    H156885   3.356   0.562   2.321 -0.8603 -0.2339 -0.0093
11798TIP3    H256886   3.339   0.703   2.371  0.5184  0.4217 -1.2911
11799TIP3   OH256887   5.513   4.944   3.096 -0.1143  0.3055 -0.0167
11799TIP3    H156888   5.453   4.872   3.078  0.9967 -0.2502 -1.8402
11799TIP3    H256889   5.525   4.986   3.010  1.0526  1.2190  0.5648
11800TIP3   OH256890   3.855   4.314   1.997 -0.3389 -0.4094 -0.1864
11800TIP3    H156891   3.815   4.239   1.953  0.4525 -1.8068  1.3423
11800TIP3    H256892   3.782   4.374   2.015 -1.2141 -1.4033 -0.3320
11801TIP3   OH256893   2.226   4.539  13.203  0.1664 -0.3421 -0.6591
11801TIP3    H156894   2.286   4.467  13.220  0.0914 -0.6876 -1.7362
11801TIP3    H256895   2.282   4.610  13.171  0.3587  0.4391  1.2665
11802TIP3   OH256896   2.218   2.390  16.793 -0.0129  0.4764  0.3638
11802TIP3    H156897   2.291   2.449  16.777 -0.1845  0.4953 -0.3590
11802TIP3    H256898   2.154   2.443  16.840 -0.1789  0.8843 -0.3056
11803TIP3   OH256899   5.342   3.670   5.270  0.2590  0.1168 -0.3847
11803TIP3    H156900   5.346   3.693   5.362 -0.5131  0.1985 -0.3688
11803TIP3    H256901   5.418   3.613   5.256  0.2903 -0.0185  0.3302
11804TIP3   OH256902   0.797   2.045   1.622  0.0561  0.3392  0.2367
11804TIP3    H156903   0.892   2.049   1.610  0.1688 -0.0329  0.9502
11804TIP3    H256904   0.764   2.008   1.540  0.5899 -0.1311  0.2310
11805TIP3   OH256905   5.738   5.964   2.530  0.0590  0.0936  0.5110
11805TIP3    H156906   5.829   5.962   2.556  0.3079  0.4105 -0.2864
11805TIP3    H256907   5.696   5.894   2.580  0.6831  0.1189  1.0711
11806TIP3   OH256908   1.355   0.791  13.680 -0.9153  0.3957 -0.2163
11806TIP3    H156909   1.281   0.733  13.697 -0.3220 -0.2020  0.3898
11806TIP3    H256910   1.326   0.877  13.710 -1.3639  0.1609  0.0236
11807TIP3   OH256911   6.113   4.481   5.652  0.3621  0.5144  0.5163
11807TIP3    H156912   6.037   4.438   5.691 -0.7873  3.2270  1.5646
11807TIP3    H256913   6.187   4.425   5.674 -1.2988 -2.5061 -0.9783
11808TIP3   OH256914   5.983   3.136  10.767 -0.6129 -0.0890 -0.4021
11808TIP3    H156915   5.948   3.050  10.791 -0.1209 -0.1596  0.0951
11808TIP3    H256916   5.908   3.195  10.772 -1.0956 -0.6016 -1.4067
11809TIP3   OH256917   2.354   6.347  15.059 -0.0948 -0.5408  0.4550
11809TIP3    H156918   2.324   6.427  15.103 -1.3006  0.2703 -1.6986
11809TIP3    H256919   2.439   6.328  15.100  1.5901  3.3913 -0.6980
11810TIP3   OH256920   3.971   3.336   5.631  0.3000 -0.3813  0.3203
11810TIP3    H156921   3.989   3.401   5.700  1.3437 -0.3859  0.0589
11810TIP3    H256922   4.023   3.260   5.656 -1.4447 -1.4268  1.0091
11811TIP3   OH256923   4.631   2.425   6.680  0.5297 -0.2606  0.2973
11811TIP3    H156924   4.701   2.446   6.617  0.2922  0.9246  0.4093
11811TIP3    H256925   4.646   2.485   6.753 -0.0353 -0.6733  0.7574
11812TIP3   OH256926   4.106   2.615  15.728 -0.8251 -0.2530  0.2011
11812TIP3    H156927   4.032   2.570  15.768 -0.2121 -0.7597  0.7943
11812TIP3    H256928   4.135   2.556  15.658 -0.6829 -0.2849  0.2855
11813TIP3   OH256929   5.906   4.661   3.856  0.0061 -0.1286  0.6883
11813TIP3    H156930   5.812   4.647   3.843  0.0240 -0.8573  1.2889
11813TIP3    H256931   5.948   4.615   3.783 -0.1198  1.0384 -0.1593
11814TIP3   OH256932   0.285   1.273  12.670 -0.5298 -0.1348 -0.4911
11814TIP3    H156933   0.324   1.349  12.712 -0.9429 -0.8210  1.1873
11814TIP3    H256934   0.340   1.200  12.697 -2.4786 -1.0313  1.3865
11815TIP3   OH256935   0.979   3.417   5.174  0.3597  0.5183 -0.1437
11815TIP3    H156936   0.955   3.355   5.105  1.5642  0.3958 -0.4788
11815TIP3    H256937   0.958   3.503   5.137  2.9092  0.6224 -1.5745
11816TIP3   OH256938   3.704   2.101   5.911  0.2010 -0.0863  0.2107
11816TIP3    H156939   3.630   2.043   5.925 -0.9144  1.0104 -0.9260
11816TIP3    H256940   3.685   2.179   5.963  1.5559 -0.5669  1.5082
11817TIP3   OH256941   0.018   3.828  13.270 -0.1061  0.4049 -0.5568
11817TIP3    H156942  -0.037   3.833  13.192 -0.7350 -1.1094 -0.2499
11817TIP3    H256943  -0.032   3.872  13.338  0.3390  1.5171 -0.9147
11818TIP3   OH256944   5.692   5.000  12.228  0.2739 -0.3329 -0.1303
11818TIP3    H156945   5.611   5.045  12.202 -0.2563 -0.2226  1.5714
11818TIP3    H256946   5.684   4.913  12.189  0.4448  0.4046 -1.9043
11819TIP3   OH256947   3.970   6.509  14.296 -0.1825  0.2842 -0.3589
11819TIP3    H156948   3.961   6.598  14.330 -0.6556  0.3724 -0.6939
11819TIP3    H256949   3.934   6.453  14.364  1.6106  0.1994  0.5624
11820TIP3   OH256950   0.415   6.118   3.638 -0.1003 -0.6387  0.0233
11820TIP3    H156951   0.341   6.122   3.578  2.1054 -0.2108 -2.9509
11820TIP3    H256952   0.470   6.192   3.612  0.0775  0.9109  4.1102
11821TIP3   OH256953   3.970   5.266  11.270 -0.0456  0.5222 -0.6857
11821TIP3    H156954   4.030   5.329  11.230 -0.3080  0.7983 -0.6505
11821TIP3    H256955   4.021   5.227  11.342  1.4798 -2.1583 -3.0324
11822TIP3   OH256956   6.136   2.165   0.386  0.5308  0.2687 -0.5086
11822TIP3    H156957   6.112   2.245   0.431  0.4344 -0.4723  0.8044
11822TIP3    H256958   6.229   2.176   0.365  0.8818  0.1667  0.9128
11823TIP3   OH256959   5.568   0.944  11.694  0.4532  0.3946  0.3064
11823TIP3    H156960   5.635   0.981  11.636  0.7103  0.6003  0.7312
11823TIP3    H256961   5.522   0.881  11.639  1.2628 -0.0540  0.1207
11824TIP3   OH256962   2.501   1.760  12.542  0.8180 -0.4158  0.1330
11824TIP3    H156963   2.559   1.736  12.470  0.8242  0.2895 -0.1054
11824TIP3    H256964   2.415   1.768  12.502  0.7260 -0.5398  0.3047
11825TIP3   OH256965   6.120   1.179   3.247  0.2373 -0.2774 -0.1780
11825TIP3    H156966   6.165   1.262   3.233  0.3858 -0.5029 -1.0446
11825TIP3    H256967   6.067   1.194   3.326 -0.5225  0.9717 -0.8934
11826TIP3   OH256968   6.255   2.008  15.163  0.2187  0.9444 -0.3954
11826TIP3    H156969   6.233   2.064  15.088  1.6502  0.2198 -1.4268
11826TIP3    H256970   6.193   2.032  15.231 -1.3010  1.4635 -1.9056
11827TIP3   OH256971   1.219   5.348   0.567 -0.4728 -0.0631  0.0989
11827TIP3    H156972   1.132   5.311   0.577 -0.4384  0.2187  1.5914
11827TIP3    H256973   1.237   5.342   0.473 -1.4639 -1.5365 -0.0252
11828TIP3   OH256974   1.416   2.419   2.635  0.3690 -0.3621 -1.0366
11828TIP3    H156975   1.487   2.356   2.622  2.5869  1.2870  1.8410
11828TIP3    H256976   1.375   2.392   2.717  0.1142  0.7858 -0.7665
11829TIP3   OH256977   2.638   5.234  14.935 -0.7769 -0.4878 -0.4915
11829TIP3    H156978   2.664   5.259  15.024 -0.0659  0.5611 -0.9754
11829TIP3    H256979   2.699   5.163  14.912 -0.0611  0.1489 -0.6222
11830TIP3   OH256980   5.404   2.818  16.850 -0.4017 -0.1836  0.1469
11830TIP3    H156981   5.327   2.875  16.847 -1.4917 -1.6254 -0.4697
11830TIP3    H256982   5.396   2.763  16.773  1.1384 -0.5371  0.2167
11831TIP3   OH256983   0.348   1.513  13.070 -0.3218 -0.0106  0.0858
11831TIP3    H156984   0.314   1.591  13.026  0.0362 -0.1224 -0.3981
11831TIP3    H256985   0.371   1.543  13.158  1.9846  1.0134 -0.7834
11832TIP3   OH256986   5.743   2.278  16.557 -0.4119 -0.6601 -0.2488
11832TIP3    H156987   5.706   2.271  16.645 -4.2344  0.8116 -1.5177
11832TIP3    H256988   5.752   2.372  16.542  0.9179 -0.9087 -1.1982
11833TIP3   OH256989   6.494   2.587   5.360  0.6106  0.3210  0.1506
11833TIP3    H156990   6.482   2.525   5.288  1.5274  0.6541 -0.3045
11833TIP3    H256991   6.446   2.665   5.333  1.2793  0.5871 -0.2901
11834TIP3   OH256992   2.434   3.075   5.526 -0.3215 -0.3408  0.1481
11834TIP3    H156993   2.445   3.045   5.616 -1.1943 -2.0332 -0.2739
11834TIP3    H256994   2.506   3.138   5.513  0.5325 -0.9545  1.6354
11835TIP3   OH256995   3.399   4.318   1.837  0.0210 -0.1584 -0.0602
11835TIP3    H156996   3.413   4.301   1.744 -0.1523 -0.2002 -0.0779
11835TIP3    H256997   3.307   4.297   1.853 -0.7233  2.4498 -0.4797
11836TIP3   OH256998   0.145   6.532   0.906  0.0568 -0.1611 -0.1447
11836TIP3    H156999   0.202   6.545   0.831  0.7174 -0.7901  0.2318
11836TIP3    H257000   0.204   6.525   0.981 -0.4482 -1.4782  0.1751
11837TIP3   OH257001   4.374   4.898   5.116 -0.5410 -0.2529 -0.3501
11837TIP3    H157002   4.327   4.879   5.197  1.6086 -1.6149  0.6518
11837TIP3    H257003   4.347   4.828   5.056 -2.0357  0.6861 -0.8495
11838TIP3   OH257004   1.218   2.470  11.050 -0.1936 -0.2213  0.4596
11838TIP3    H157005   1.255   2.383  11.068  1.4833  0.4384  0.3899
11838TIP3    H257006   1.272   2.504  10.979  1.2077  2.0468  2.4576
11839TIP3   OH257007   0.979   2.976   2.381  0.0262 -0.0960 -0.0412
11839TIP3    H157008   1.021   2.895   2.410  2.6033  1.7557  1.7697
11839TIP3    H257009   0.906   2.988   2.442  1.5657  0.4910  1.7747
11840TIP3   OH257010   0.829   4.559   5.001  0.5751  0.4687  0.2908
11840TIP3    H157011   0.807   4.637   5.053 -0.8108 -1.0523  2.1227
11840TIP3    H257012   0.924   4.554   5.005  0.5910  1.2464  1.4473
11841TIP3   OH257013   2.861   6.711  16.685 -0.1454  0.1013 -0.0818
11841TIP3    H157014   2.930   6.686  16.746 -0.1489 -1.8126 -0.7938
11841TIP3    H257015   2.789   6.743  16.741  0.7499  0.7440  0.7346
11842TIP3   OH257016   1.850   6.054  13.244 -0.7979  0.3492  0.4674
11842TIP3    H157017   1.919   6.062  13.177 -1.8170 -0.2002 -0.6793
11842TIP3    H257018   1.818   6.143  13.256  0.2265  0.6421  1.1517
11843TIP3   OH257019   2.256   4.371   5.680  0.0889 -0.4196 -0.0675
11843TIP3    H157020   2.288   4.458   5.656 -0.6568 -0.3187 -0.7144
11843TIP3    H257021   2.162   4.374   5.665 -0.2665 -0.7238  1.7800
11844TIP3   OH257022   1.979   3.505  16.173  0.0907  0.3131 -0.0432
11844TIP3    H157023   1.926   3.532  16.098 -0.1114 -0.7369 -0.3073
11844TIP3    H257024   1.916   3.466  16.233  0.6808 -2.4274 -1.0497
11845TIP3   OH257025   4.693   1.975   1.153 -0.2941 -0.8307 -0.0407
11845TIP3    H157026   4.718   1.897   1.202 -3.4893 -0.5856  2.2903
11845TIP3    H257027   4.741   2.046   1.195 -0.8659 -1.0004  0.9266
11846TIP3   OH257028   2.577   5.349   0.359  0.1169 -0.5474  0.5538
11846TIP3    H157029   2.616   5.409   0.296  1.4150 -1.7001  0.2009
11846TIP3    H257030   2.483   5.363   0.350  0.3371  0.4056 -0.5264
11847TIP3   OH257031   6.265   3.063   6.060 -0.1811  0.4490  0.2074
11847TIP3    H157032   6.263   3.015   6.143 -1.8502  1.0141  0.5349
11847TIP3    H257033   6.174   3.060   6.029  0.3726  0.4268 -1.5056
11848TIP3   OH257034   3.492   2.652   4.075 -0.0960  0.2881 -0.0559
11848TIP3    H157035   3.520   2.711   4.145  0.2092 -0.4829  0.4945
11848TIP3    H257036   3.534   2.685   3.996  1.5225 -0.2177  0.5575
11849TIP3   OH257037   1.492   5.375   2.977 -0.0000 -0.5466 -0.1048
11849TIP3    H157038   1.433   5.450   2.988  0.0132 -0.5139 -0.2502
11849TIP3    H257039   1.549   5.378   3.053  0.0865 -0.3285 -0.1760
11850TIP3   OH257040   2.850   3.411   6.164 -0.1014 -0.1536 -0.1171
11850TIP3    H157041   2.918   3.478   6.173 -0.5349  0.4764 -1.3382
11850TIP3    H257042   2.774   3.459   6.132 -0.1219 -1.3595 -2.0444
11851TIP3   OH257043   0.517   0.851   3.717 -0.9023 -0.4637  0.1054
11851TIP3    H157044   0.527   0.887   3.629  1.8559  1.7263  1.1533
11851TIP3    H257045   0.553   0.763   3.711 -0.4581 -0.2274 -0.8969
11852TIP3   OH257046   1.915   5.032   5.109 -0.0240  0.4291  0.0444
11852TIP3    H157047   1.858   5.058   5.182  1.8729 -0.6080  2.0393
11852TIP3    H257048   1.948   5.115   5.074 -0.5229  0.9484  0.7667
11853TIP3   OH257049   3.453   6.340  17.233  0.4970 -0.4622  0.0999
11853TIP3    H157050   3.363   6.321  17.208 -0.2890  1.1446  1.5063
11853TIP3    H257051   3.473   6.274  17.300 -0.2351  0.1568  0.9543
11854TIP3   OH257052   5.020   6.627   1.378  0.4511 -0.0405 -0.2778
11854TIP3    H157053   5.042   6.661   1.465 -2.2471 -1.6120  1.1378
11854TIP3    H257054   5.096   6.575   1.353  1.6541  1.1696  0.7098
11855TIP3   OH257055   2.459   4.893   0.806 -0.6430  0.0036 -0.5744
11855TIP3    H157056   2.543   4.938   0.792  1.0328 -3.0596 -1.2851
11855TIP3    H257057   2.428   4.873   0.717 -0.9278 -0.8936 -0.2850
11856TIP3   OH257058   4.638   4.481   4.390  0.6101 -0.1443  0.3536
11856TIP3    H157059   4.662   4.491   4.482  2.0612  0.5887 -0.0685
11856TIP3    H257060   4.718   4.501   4.342 -0.9011  2.8537 -1.2049
11857TIP3   OH257061   1.155   2.917  15.326 -0.1227 -0.2019  0.6301
11857TIP3    H157062   1.187   2.934  15.237 -0.6616  0.8077  0.6165
11857TIP3    H257063   1.062   2.939  15.322  0.0985  1.0421  1.7464
11858TIP3   OH257064   3.453   1.437   5.068 -0.4914  0.0524  0.2759
11858TIP3    H157065   3.465   1.371   5.136 -0.9500 -0.5692 -0.2352
11858TIP3    H257066   3.358   1.440   5.054 -0.3970  0.1088 -0.3903
11859TIP3   OH257067   1.463   4.102   1.964 -0.5838  0.0515  0.4754
11859TIP3    H157068   1.370   4.117   1.979 -0.3211  0.5662  1.6313
11859TIP3    H257069   1.466   4.014   1.925 -1.4872 -0.2806  1.1144
11860TIP3   OH257070   5.638   1.657  13.799  0.3917 -0.0476  0.4347
11860TIP3    H157071   5.624   1.746  13.767  2.3313  0.4723  0.8998
11860TIP3    H257072   5.686   1.613  13.728 -4.1175 -2.1787 -1.6967
11861TIP3   OH257073   2.352   5.286   1.137  0.2637 -0.1385  0.1014
11861TIP3    H157074   2.289   5.241   1.193  1.0946 -0.1476  1.0510
11861TIP3    H257075   2.299   5.321   1.065 -0.6005 -1.4209  0.0825
11862TIP3   OH257076   5.012   1.963   5.412 -0.2126 -0.0153 -0.0828
11862TIP3    H157077   4.993   2.024   5.483  2.8119  0.2511  0.6488
11862TIP3    H257078   4.983   2.008   5.333 -2.4276  0.2462  0.8001
11863TIP3   OH257079   1.924   3.225  16.579  0.2318 -0.3642  0.5028
11863TIP3    H157080   1.859   3.246  16.512  0.6919 -1.0905 -0.1832
11863TIP3    H257081   1.912   3.292  16.646  2.5697  3.0686 -2.1852
11864TIP3   OH257082   4.510   5.134  16.368  0.6074  0.0326  0.3625
11864TIP3    H157083   4.456   5.063  16.403 -1.4944  0.9779 -0.7773
11864TIP3    H257084   4.532   5.187  16.444 -1.9393  0.7991  0.6536
11865TIP3   OH257085   3.541   2.403  16.781  0.3223 -0.0843  0.5641
11865TIP3    H157086   3.548   2.320  16.827 -0.6646 -1.7881 -2.1472
11865TIP3    H257087   3.632   2.431  16.768  0.6629 -0.7323  1.4927
11866TIP3   OH257088   3.948   5.006  12.003 -0.0591  0.4741 -0.2725
11866TIP3    H157089   3.909   5.090  12.027  1.2053  0.9789  0.0964
11866TIP3    H257090   4.021   5.029  11.945 -1.3439 -0.5475 -2.4390
11867TIP3   OH257091   3.306   2.256  14.304  0.2036  0.0856 -0.2590
11867TIP3    H157092   3.297   2.176  14.252  0.1615  0.0960 -0.2675
11867TIP3    H257093   3.394   2.250  14.341  0.4479  0.3391 -0.7821
11868TIP3   OH257094   0.360   0.367  13.754  0.1583 -0.5283 -0.4130
11868TIP3    H157095   0.326   0.278  13.763  0.5152 -0.6503 -0.2462
11868TIP3    H257096   0.368   0.399  13.844  0.1208 -0.3656 -0.4686
11869TIP3   OH257097   0.230   4.026  12.123 -0.5937  0.1926 -0.1178
11869TIP3    H157098   0.138   4.046  12.106 -0.2919  2.1113  0.2892
11869TIP3    H257099   0.228   3.956  12.188 -1.7674  0.2646 -0.0561
11870TIP3   OH257100   2.613   5.020   4.817  0.4227  0.0369 -1.2050
11870TIP3    H157101   2.674   5.092   4.830  0.0971 -0.2221  2.8327
11870TIP3    H257102   2.650   4.947   4.867 -2.4498 -0.4988  0.3466
11871TIP3   OH257103   0.735   6.195   4.792 -0.1611 -0.1826 -0.4177
11871TIP3    H157104   0.822   6.222   4.762 -0.8556  0.6604 -1.7585
11871TIP3    H257105   0.719   6.113   4.744 -0.0235 -0.4510 -0.0070
11872TIP3   OH257106   4.420   0.313  14.683  0.0365  0.1177 -0.3466
11872TIP3    H157107   4.393   0.239  14.737  0.0432 -0.5429 -1.2367
11872TIP3    H257108   4.510   0.331  14.710 -1.0924  2.2891  2.5957
11873TIP3   OH257109   6.160   6.761  11.954  0.0645 -0.0970  0.0856
11873TIP3    H157110   6.154   6.673  11.918 -0.6304  0.1215 -0.3526
11873TIP3    H257111   6.158   6.818  11.878  0.5067  0.3039  0.3682
11874TIP3   OH257112   3.510   2.884  13.756  0.3874 -0.4882 -0.1278
11874TIP3    H157113   3.603   2.902  13.753  0.3994 -0.3737  0.6254
11874TIP3    H257114   3.497   2.842  13.841 -0.1857 -0.8590 -0.3903
11875TIP3   OH257115   3.683   0.202   3.871  0.5982 -0.7227 -0.3793
11875TIP3    H157116   3.667   0.159   3.787 -1.4250  3.3618 -2.3970
11875TIP3    H257117   3.778   0.196   3.884  1.0398 -1.1802 -3.1929
11876TIP3   OH257118   2.664   3.687  16.023  0.5113 -0.0685 -0.2243
11876TIP3    H157119   2.604   3.637  15.968  2.4447 -2.9668  0.0644
11876TIP3    H257120   2.710   3.745  15.962  0.2479 -0.7686 -1.1151
11877TIP3   OH257121   0.153   2.739  13.881 -0.3403 -0.1780 -0.4032
11877TIP3    H157122   0.232   2.765  13.833  0.1423  0.1112  0.5282
11877TIP3    H257123   0.088   2.722  13.813  0.6937 -0.9929 -1.2242
11878TIP3   OH257124   5.375   2.955  16.451 -0.2303 -0.7090 -0.3520
11878TIP3    H157125   5.463   2.931  16.480 -0.1681 -0.0138  0.0717
11878TIP3    H257126   5.384   2.973  16.358  0.8588  2.6431  0.2670
11879TIP3   OH257127   1.187   2.318  16.559 -0.4029 -0.0983  0.2713
11879TIP3    H157128   1.254   2.351  16.500  0.3761 -0.8502  0.7248
11879TIP3    H257129   1.226   2.240  16.599 -0.7369  0.6532  2.1208
11880TIP3   OH257130   3.886   6.532  13.027 -0.1224 -0.0466 -0.0320
11880TIP3    H157131   3.823   6.540  13.099  1.4286 -0.0520  1.3829
11880TIP3    H257132   3.896   6.437  13.014 -0.7259 -0.0408 -0.5600
11881TIP3   OH257133   4.618   4.811  13.115  0.2876 -0.1438  0.0755
11881TIP3    H157134   4.646   4.726  13.150 -1.1658 -2.9773 -4.7166
11881TIP3    H257135   4.660   4.818  13.030 -3.2952  1.5640 -1.7858
11882TIP3   OH257136   3.690   1.376   0.187  0.0697 -0.5241  0.3943
11882TIP3    H157137   3.749   1.320   0.238  0.2222 -0.4438  0.3080
11882TIP3    H257138   3.748   1.423   0.127 -0.3120 -2.5228 -1.6862
11883TIP3   OH257139   1.254   3.443  16.319  0.2026  0.3193  0.1210
11883TIP3    H157140   1.196   3.519  16.328 -1.5806 -0.7073 -1.8200
11883TIP3    H257141   1.242   3.414  16.228  4.7616  0.7412 -0.8681
11884TIP3   OH257142   1.085   5.566   3.952  0.4121  0.3238 -0.2103
11884TIP3    H157143   1.108   5.538   4.040  2.4597 -0.4542 -0.9264
11884TIP3    H257144   0.997   5.603   3.960  0.1126 -0.7329  1.9257
11885TIP3   OH257145   4.576   0.110  13.742 -0.3370 -0.8259 -0.3610
11885TIP3    H157146   4.658   0.157  13.758 -0.4792 -0.7112  0.0249
11885TIP3    H257147   4.592   0.062  13.660 -0.1607 -0.1768 -0.7142
11886TIP3   OH257148   4.164   2.548   6.318 -0.4353  0.5749 -0.1521
11886TIP3    H157149   4.120   2.463   6.322 -2.1979  1.4239 -0.1898
11886TIP3    H257150   4.253   2.531   6.349 -1.0906 -1.0652  0.9904
11887TIP3   OH257151   3.996   6.006   2.098 -0.1625 -0.0040  0.6070
11887TIP3    H157152   4.091   6.008   2.082 -0.4412  1.9962 -1.4499
11887TIP3    H257153   3.980   5.921   2.137  2.3751 -0.7751  0.1879
11888TIP3   OH257154   5.654   1.099  13.738 -0.0049 -0.0007  0.3208
11888TIP3    H157155   5.743   1.136  13.728 -0.1264  0.4757  0.9505
11888TIP3    H257156   5.618   1.102  13.649  0.6179 -0.2235  0.0525
11889TIP3   OH257157   5.026   5.249  11.597  0.3372 -0.2689 -0.2158
11889TIP3    H157158   5.059   5.249  11.687  0.7267 -1.8237 -0.3431
11889TIP3    H257159   5.091   5.299  11.548  0.1143  0.6059  0.3417
11890TIP3   OH257160   5.359   3.607   4.526  0.0217 -0.1613 -0.4456
11890TIP3    H157161   5.431   3.545   4.534 -0.4852 -0.6745  0.3597
11890TIP3    H257162   5.387   3.682   4.579  0.4622  0.1322 -1.0898
11891TIP3   OH257163   1.860   1.484   5.704 -0.6568  0.4528 -0.4672
11891TIP3    H157164   1.791   1.512   5.643 -1.0097  1.4873  0.3615
11891TIP3    H257165   1.933   1.542   5.684 -0.5855  0.4273 -0.2757
11892TIP3   OH257166   4.593   5.553  17.002 -0.3497 -0.3582 -0.2341
11892TIP3    H157167   4.505   5.520  17.017 -0.3281  0.5861  2.5683
11892TIP3    H257168   4.647   5.475  16.992 -0.8406 -1.2161  2.8046
11893TIP3   OH257169   0.325   5.801  11.733 -0.1990  0.0314 -0.0256
11893TIP3    H157170   0.333   5.784  11.639  0.3707 -0.5360  0.1276
11893TIP3    H257171   0.405   5.848  11.756 -0.3729  0.2386  0.1707
11894TIP3   OH257172   2.384   2.266  16.968 -0.1593  0.6602  0.1717
11894TIP3    H157173   2.438   2.196  16.930  1.9636  1.0703  2.2255
11894TIP3    H257174   2.389   2.337  16.904  0.9995  0.3466 -0.1158
11895TIP3   OH257175   6.489   2.324   0.911  0.0863  0.5278  0.7047
11895TIP3    H157176   6.477   2.277   0.829 -0.9985  2.9676 -0.6561
11895TIP3    H257177   6.439   2.273   0.975 -0.2914 -0.6388 -0.4685
11896TIP3   OH257178   6.545   5.329  11.021  0.1084 -0.0715  0.4519
11896TIP3    H157179   6.610   5.370  10.965  0.6319 -3.7750 -2.0521
11896TIP3    H257180   6.466   5.381  11.009  0.8883  0.6787 -1.8789
11897TIP3   OH257181   2.452   4.357  15.216 -0.4294  0.5091  0.0076
11897TIP3    H157182   2.485   4.309  15.292  0.1788  0.2320 -0.4294
11897TIP3    H257183   2.524   4.354  15.152 -0.4709  1.7698 -0.1280
11898TIP3   OH257184   0.697   1.397   2.451  0.4065 -0.2677 -0.5755
11898TIP3    H157185   0.704   1.331   2.519  1.4229  1.2979  0.9363
11898TIP3    H257186   0.765   1.373   2.387 -0.3834 -1.5988 -0.9618
11899TIP3   OH257187   4.466   2.407  14.613 -0.3440  0.3415 -0.2164
11899TIP3    H157188   4.465   2.502  14.599 -0.5762  0.3318 -0.2713
11899TIP3    H257189   4.374   2.381  14.607 -0.4542  0.3241  1.2316
11900TIP3   OH257190   5.279   1.351  15.932 -0.5993  0.3610  0.3035
11900TIP3    H157191   5.299   1.309  16.015 -1.3335  2.3133  1.5404
11900TIP3    H257192   5.187   1.376  15.939 -0.6179  0.7680 -1.0258
11901TIP3   OH257193   0.729   1.928  16.969 -0.0022 -0.0608  0.1193
11901TIP3    H157194   0.680   1.876  16.906 -0.5720 -1.9167  1.9593
11901TIP3    H257195   0.805   1.874  16.991  0.2027  0.5488  0.9596
11902TIP3   OH257196   6.388   0.215  13.721  0.6490 -0.1566  0.0585
11902TIP3    H157197   6.420   0.230  13.810 -0.8497  0.1466  0.5824
11902TIP3    H257198   6.304   0.260  13.718  1.2123  0.8892 -1.9282
11903TIP3   OH257199   0.451   0.552  12.571 -0.2508  0.4510  0.6420
11903TIP3    H157200   0.500   0.597  12.640  0.3565  1.1921 -0.2560
11903TIP3    H257201   0.360   0.576  12.588 -0.2055 -0.0357  1.6607
11904TIP3   OH257202   6.580   4.335   0.186  0.0288  0.2197 -0.8650
11904TIP3    H157203   6.600   4.343   0.093  0.8661 -0.1272 -0.7196
11904TIP3    H257204   6.550   4.244   0.195 -1.4176  0.6506 -1.0324
11905TIP3   OH257205   2.421   0.287  12.660  0.1271 -0.0173  0.5997
11905TIP3    H157206   2.474   0.279  12.739 -1.0948 -1.5996  1.3016
11905TIP3    H257207   2.408   0.381  12.649  2.3561  0.3742  0.8596
11906TIP3   OH257208   4.521   1.644   5.070 -0.4094 -0.6764 -0.1160
11906TIP3    H157209   4.561   1.563   5.103 -0.6876 -1.3003 -1.2469
11906TIP3    H257210   4.528   1.637   4.975  0.0637  0.9101 -0.2221
11907TIP3   OH257211   4.863   6.206  10.672 -0.1369 -0.4245  0.2122
11907TIP3    H157212   4.814   6.214  10.590 -0.0261 -2.5980 -0.1284
11907TIP3    H257213   4.797   6.216  10.741 -0.3157  0.8960 -0.1332
11908TIP3   OH257214   1.325   3.079   4.290  0.1401 -0.4587  0.7582
11908TIP3    H157215   1.373   3.155   4.258  0.2705  0.1335  2.3022
11908TIP3    H257216   1.375   3.048   4.365 -1.1827 -0.6207  1.6010
11909TIP3   OH257217   5.063   4.786  13.376  0.4510 -0.4021 -0.4257
11909TIP3    H157218   5.090   4.851  13.442 -2.3151 -0.6516  1.0928
11909TIP3    H257219   5.051   4.837  13.296  0.4956  0.5531  0.1567
11910TIP3   OH257220   4.310   2.694   2.648 -0.5704  0.6326  0.2594
11910TIP3    H157221   4.389   2.740   2.618 -0.4879 -0.2166 -0.9303
11910TIP3    H257222   4.309   2.707   2.742  1.6103 -0.2137  0.4842
11911TIP3   OH257223   2.157   4.784   1.214  0.4695 -0.2088  0.4514
11911TIP3    H157224   2.233   4.807   1.160  0.6678 -0.7589  0.4927
11911TIP3    H257225   2.088   4.843   1.184  0.1096 -1.5381 -1.5391
11912TIP3   OH257226   2.318   0.649  14.890  0.2313 -0.5925 -0.2319
11912TIP3    H157227   2.277   0.693  14.964  0.8900  0.1609 -0.3000
11912TIP3    H257228   2.388   0.596  14.929  1.5629  0.9515 -0.3968
11913TIP3   OH257229   1.076   1.105  11.581 -0.4073  0.0574  0.0285
11913TIP3    H157230   1.122   1.084  11.662  1.9819 -0.8840 -1.4577
11913TIP3    H257231   1.112   1.044  11.516 -2.1093  0.8623 -1.8004
11914TIP3   OH257232   4.176   3.583  11.960 -0.0822 -0.3595 -0.2052
11914TIP3    H157233   4.091   3.611  11.994  0.1741  1.4744 -0.9478
11914TIP3    H257234   4.168   3.590  11.865  1.1618  0.7750 -0.2559
11915TIP3   OH257235   0.824   4.350  16.721  0.4404  0.6903 -0.2799
11915TIP3    H157236   0.838   4.381  16.632 -0.3870  0.0966 -0.6383
11915TIP3    H257237   0.874   4.410  16.776  0.0572  1.7491 -1.0496
11916TIP3   OH257238   2.267   1.739   1.792  1.1183  0.2739  0.6907
11916TIP3    H157239   2.278   1.802   1.863  0.7572  0.2508  0.7688
11916TIP3    H257240   2.356   1.715   1.766  1.2504  0.4872  0.9538
11917TIP3   OH257241   6.525   6.824  13.788  0.5397 -0.1110 -0.3009
11917TIP3    H157242   6.462   6.882  13.743  0.9089 -1.0187 -2.0680
11917TIP3    H257243   6.471   6.773  13.848 -0.3443 -0.4561 -1.3607
11918TIP3   OH257244   4.067   6.326   2.221  0.1199 -0.8882  0.4838
11918TIP3    H157245   4.162   6.336   2.229  0.0289  0.3445  0.2754
11918TIP3    H257246   4.056   6.261   2.152  0.8063 -1.2697  0.7183
11919TIP3   OH257247   6.810   0.720  10.771 -0.2392  0.3214  0.4299
11919TIP3    H157248   6.735   0.671  10.738  0.4338 -0.7526  0.4333
11919TIP3    H257249   6.778   0.810  10.781 -1.1381  0.1773 -0.8486
11920TIP3   OH257250   0.106   6.821  13.045  0.7140  0.1413 -0.2580
11920TIP3    H157251   0.188   6.805  12.998 -0.1436 -0.6421 -1.5740
11920TIP3    H257252   0.043   6.839  12.975 -0.1185  1.2705  0.7612
11921TIP3   OH257253   2.674   4.556   4.204 -0.4317  0.4211 -0.5582
11921TIP3    H157254   2.685   4.516   4.118 -0.0775  0.4313 -0.5207
11921TIP3    H257255   2.697   4.486   4.266 -0.9852  0.3185 -0.4629
11922TIP3   OH257256   2.902   1.305  16.185  0.2652 -0.3933  0.1212
11922TIP3    H157257   2.848   1.258  16.122 -1.7824  1.8433  0.0951
11922TIP3    H257258   2.846   1.317  16.261  1.6158 -0.2135  1.1355
11923TIP3   OH257259   5.541   4.164  13.148 -0.5801 -0.0137  0.1580
11923TIP3    H157260   5.588   4.115  13.081 -0.8616  1.2960 -1.0356
11923TIP3    H257261   5.576   4.253  13.142  0.1888 -0.0899  2.5388
11924TIP3   OH257262   3.484   4.467   0.101  0.3620 -0.0660 -0.9488
11924TIP3    H157263   3.475   4.383   0.146 -0.5084  1.2066  1.4017
11924TIP3    H257264   3.405   4.476   0.048  0.4520 -0.6962 -1.1937
11925TIP3   OH257265   0.338   2.489  16.435 -0.3361  0.2896  0.2817
11925TIP3    H157266   0.407   2.431  16.467 -0.9784  0.4291  2.0265
11925TIP3    H257267   0.371   2.577  16.452 -0.2944  0.3973 -0.3331
11926TIP3   OH257268   3.242   2.199  13.183 -0.6591  0.2786 -0.1010
11926TIP3    H157269   3.179   2.153  13.238  0.1899 -0.9393 -0.1111
11926TIP3    H257270   3.195   2.214  13.101 -1.3655  0.5714  0.3447
11927TIP3   OH257271   2.744   3.030   0.003 -0.7289 -0.0679 -0.0893
11927TIP3    H157272   2.833   3.045   0.035 -0.2335  0.4073 -1.6273
11927TIP3    H257273   2.745   2.941  -0.031 -0.9499 -0.1869  0.2059
11928TIP3   OH257274   3.598   6.576   6.686 -0.3038 -0.0189 -0.1583
11928TIP3    H157275   3.649   6.631   6.626 -0.7842  1.0277  0.3794
11928TIP3    H257276   3.665   6.530   6.737  0.1750 -2.3722 -2.6762
11929TIP3   OH257277   1.242   0.962   2.472  0.3428 -0.1775  0.0516
11929TIP3    H157278   1.208   1.020   2.404  1.0580 -0.6886 -0.7811
11929TIP3    H257279   1.234   0.874   2.434 -2.1976 -0.8547  1.9040
11930TIP3   OH257280   2.757   6.556   4.626 -0.3550 -0.0004  0.1754
11930TIP3    H157281   2.813   6.582   4.553  0.8350  1.5911  1.5911
11930TIP3    H257282   2.723   6.638   4.660 -1.0733 -0.7403  1.2791
11931TIP3   OH257283   5.934   5.712   2.881 -0.1412  0.5128 -0.0639
11931TIP3    H157284   5.996   5.699   2.953 -0.5048  0.5313  0.2610
11931TIP3    H257285   5.968   5.659   2.809  0.3955  0.7425  0.0198
11932TIP3   OH257286   0.883   3.634   5.044  0.3653 -0.2507 -0.6154
11932TIP3    H157287   0.915   3.632   4.954 -0.6670 -0.7850 -0.9824
11932TIP3    H257288   0.880   3.727   5.066 -0.6865 -0.0297 -1.6218
11933TIP3   OH257289   4.573   3.916  15.533 -0.0099  0.0187  0.3597
11933TIP3    H157290   4.567   3.933  15.439  1.0870  2.1333  0.6090
11933TIP3    H257291   4.592   3.822  15.540 -1.1036 -0.3788 -1.4614
11934TIP3   OH257292   0.937   1.369   1.615 -0.0679 -0.2388  0.2463
11934TIP3    H157293   0.947   1.342   1.524  0.0642  1.2853 -0.2188
11934TIP3    H257294   0.898   1.293   1.658  0.1999 -1.1188 -0.9915
11935TIP3   OH257295   1.716   2.561  14.947  0.4962 -0.7278 -0.0453
11935TIP3    H157296   1.624   2.555  14.974  0.1791  0.5033 -0.7714
11935TIP3    H257297   1.722   2.505  14.869  0.2209 -0.3969 -0.3085
11936TIP3   OH257298   1.400   0.508  11.000  0.3708 -0.0473  0.2334
11936TIP3    H157299   1.471   0.497  10.937  0.7669 -0.5781  0.7608
11936TIP3    H257300   1.417   0.593  11.041 -1.0162  1.2828 -1.7504
11937TIP3   OH257301   1.279   6.771   2.037 -0.3334  0.6233 -0.1212
11937TIP3    H157302   1.213   6.797   1.974 -0.6363 -0.3414 -0.2101
11937TIP3    H257303   1.362   6.803   2.000 -0.2639 -1.4659 -1.9225
11938TIP3   OH257304   2.846   0.395  12.423  0.0074  0.0091  0.2706
11938TIP3    H157305   2.751   0.381  12.412 -0.3326  0.7110  2.0194
11938TIP3    H257306   2.852   0.469  12.483  1.6952  1.3491 -1.4254
11939TIP3   OH257307   4.455   3.433   2.499  0.3376 -0.0175 -0.5392
11939TIP3    H157308   4.431   3.488   2.574 -0.2855 -0.4681 -0.4008
11939TIP3    H257309   4.541   3.466   2.472  0.4655  0.3035  0.2236
11940TIP3   OH257310   0.786   3.326  16.050 -0.0939  0.6922 -0.0794
11940TIP3    H157311   0.764   3.234  16.060  1.2456  0.5127  1.7096
11940TIP3    H257312   0.708   3.373  16.079 -0.1086  0.1046  0.8718
11941TIP3   OH257313   3.969   5.120  15.474 -0.9244 -0.0078 -0.1318
11941TIP3    H157314   3.924   5.137  15.391 -1.4600  1.0745  0.3697
11941TIP3    H257315   4.033   5.190  15.482  0.1739 -0.9484 -0.3237
11942TIP3   OH257316   5.414   0.736  11.175 -0.4675 -0.6971 -0.3769
11942TIP3    H157317   5.457   0.812  11.137  1.3863 -1.8712 -0.8023
11942TIP3    H257318   5.338   0.720  11.119 -0.2454  0.1845 -0.9342
11943TIP3   OH257319   1.097   0.164   6.098  0.2458 -0.2630 -0.5996
11943TIP3    H157320   1.054   0.223   6.036 -0.0191 -0.1482 -0.3074
11943TIP3    H257321   1.030   0.144   6.163  0.2881 -1.0112 -0.7803
11944TIP3   OH257322   1.138   2.334   0.336  0.0495 -0.7108 -0.1444
11944TIP3    H157323   1.224   2.308   0.303  1.6330  1.0034  2.3057
11944TIP3    H257324   1.114   2.410   0.283  1.9128  1.1585  1.5179
11945TIP3   OH257325   3.906   4.748   0.435  0.6500 -0.4828 -0.0394
11945TIP3    H157326   3.902   4.762   0.529  3.5108 -1.4930  0.3219
11945TIP3    H257327   3.897   4.654   0.424 -0.5860 -0.3023 -0.9263
11946TIP3   OH257328   2.150   2.104  16.840 -0.2084 -0.2309 -0.2031
11946TIP3    H157329   2.214   2.160  16.884  0.2059 -0.3499 -0.6492
11946TIP3    H257330   2.067   2.151  16.851 -0.4319 -1.0349  2.0896
11947TIP3   OH257331   3.182   3.049   5.246 -0.0569 -0.2567  0.5716
11947TIP3    H157332   3.177   3.133   5.291 -1.2475  0.3320 -0.6032
11947TIP3    H257333   3.219   3.070   5.160 -1.3775 -0.7313 -0.1421
11948TIP3   OH257334   4.237   2.421   3.751 -0.1671  0.4388 -0.4030
11948TIP3    H157335   4.191   2.405   3.833  1.4665  0.9757  0.6680
11948TIP3    H257336   4.218   2.343   3.698  0.4768 -0.9555  1.3163
11949TIP3   OH257337   0.072   2.373   0.931 -0.1190  0.0121 -0.1270
11949TIP3    H157338  -0.001   2.375   0.869 -0.2101 -0.3610 -0.0328
11949TIP3    H257339   0.114   2.288   0.916  1.3189  0.8796 -1.3668
11950TIP3   OH257340   5.973   4.269  11.105 -0.4930 -0.2953 -0.6217
11950TIP3    H157341   5.996   4.254  11.196  2.9310 -0.6591 -1.4246
11950TIP3    H257342   5.936   4.357  11.103 -2.1521 -0.8783  1.2793
11951TIP3   OH257343   1.902   2.439  16.699  0.1975  0.5828 -0.5162
11951TIP3    H157344   1.811   2.425  16.673 -0.3894 -0.9772  2.0730
11951TIP3    H257345   1.901   2.522  16.747 -0.2352 -0.2064  0.8935
11952TIP3   OH257346   4.086   1.503   1.550  0.3430 -0.5839 -0.1085
11952TIP3    H157347   4.103   1.502   1.645 -0.0783 -0.7045 -0.0308
11952TIP3    H257348   3.992   1.520   1.543  0.4262 -0.2809 -0.5154
11953TIP3   OH257349   0.923   3.571  10.934  0.0241  0.4919 -0.2921
11953TIP3    H157350   0.952   3.599  10.848 -0.5868  0.0909 -0.6391
11953TIP3    H257351   1.001   3.576  10.989 -0.1546  3.4149 -0.1636
11954TIP3   OH257352   6.244   4.459  14.459 -0.3490  0.1590  0.0690
11954TIP3    H157353   6.170   4.518  14.471  0.9650  1.9173 -0.1039
11954TIP3    H257354   6.276   4.443  14.548 -0.0865  0.5414  0.0443
11955TIP3   OH257355   1.883   1.142   5.801 -0.1716 -0.0683 -0.4704
11955TIP3    H157356   1.902   1.218   5.746 -1.7930  0.7718  0.0678
11955TIP3    H257357   1.884   1.068   5.740  5.1417 -0.3814 -0.4863
11956TIP3   OH257358   2.317   4.997   2.411  0.1534 -0.0999 -0.4687
11956TIP3    H157359   2.406   4.964   2.421 -0.1937 -1.2272 -1.0050
11956TIP3    H257360   2.278   4.943   2.343 -0.8869  0.5105 -0.3828
11957TIP3   OH257361   6.518   1.097   3.872  0.7100  0.1011 -0.2352
11957TIP3    H157362   6.432   1.138   3.885  0.3017 -0.7554 -0.1856
11957TIP3    H257363   6.506   1.007   3.902  1.6244 -0.0296 -0.2535
11958TIP3   OH257364   2.547   0.872   5.800  0.6121 -0.3609 -0.0054
11958TIP3    H157365   2.539   0.962   5.831  0.9351 -0.6335  0.8998
11958TIP3    H257366   2.574   0.880   5.709 -0.4313  0.4658 -0.2690
11959TIP3   OH257367   1.533   0.546  12.958  0.3656 -0.1094  0.0113
11959TIP3    H157368   1.564   0.589  13.038 -0.3267  0.9265 -0.2638
11959TIP3    H257369   1.502   0.461  12.988 -0.6276  0.5681  0.9935
11960TIP3   OH257370   1.090   4.755   3.667 -0.0842  0.0318  0.6159
11960TIP3    H157371   1.176   4.778   3.634 -0.0345  1.0676  1.4226
11960TIP3    H257372   1.057   4.690   3.604  1.5735 -0.9794  0.7092
11961TIP3   OH257373   2.000   5.844   2.227  0.0819  0.3184  0.2624
11961TIP3    H157374   1.966   5.780   2.165 -1.1655  0.6500  0.5644
11961TIP3    H257375   1.981   5.929   2.187 -1.3965  0.5594  1.3555
11962TIP3   OH257376   1.258   2.643   1.356 -0.0615  0.3552  0.2394
11962TIP3    H157377   1.225   2.692   1.281  1.6911  0.0475 -0.7858
11962TIP3    H257378   1.237   2.698   1.432  0.9255  2.2075 -0.7815
11963TIP3   OH257379   3.126   2.355   0.186  0.7502  0.0791 -0.9281
11963TIP3    H157380   3.044   2.309   0.168  1.1459 -0.6819 -0.8248
11963TIP3    H257381   3.190   2.286   0.199  0.5062  0.3793  3.7821
11964TIP3   OH257382   6.145   0.990  15.296  0.2462 -0.1719 -0.2968
11964TIP3    H157383   6.102   1.071  15.268  0.8746  0.3106  0.0899
11964TIP3    H257384   6.234   0.997  15.260  0.3583 -0.6047 -0.1090
11965TIP3   OH257385   1.930   4.846   1.390 -0.6280 -0.2074  0.5791
11965TIP3    H157386   1.915   4.777   1.455 -1.9146 -0.9281 -0.4361
11965TIP3    H257387   2.010   4.889   1.419 -0.9299 -0.7738  2.4089
11966TIP3   OH257388   0.737   0.617  12.415  0.1046 -0.5224 -0.7676
11966TIP3    H157389   0.782   0.584  12.493 -0.8346  3.3847  1.6729
11966TIP3    H257390   0.646   0.626  12.441  0.0011  2.1201 -1.8142
11967TIP3   OH257391   1.714   5.503  11.408 -0.0431  0.3088  0.7544
11967TIP3    H157392   1.675   5.502  11.495  0.8458 -0.1889  1.1706
11967TIP3    H257393   1.726   5.410  11.386 -1.6411  0.3707 -0.5588
11968TIP3   OH257394   3.347   6.345   3.510 -0.4319  0.6553 -0.1129
11968TIP3    H157395   3.409   6.272   3.504 -0.9745 -0.1426  2.6390
11968TIP3    H257396   3.394   6.419   3.473  0.7790 -0.7084 -1.4170
11969TIP3   OH257397   4.225   3.566   5.471 -0.1577 -0.0544 -0.1455
11969TIP3    H157398   4.138   3.561   5.511 -0.4369 -0.5017 -0.7944
11969TIP3    H257399   4.278   3.504   5.520  1.0146  3.1854  3.1176
11970TIP3   OH257400   6.804   5.598  13.273 -0.3269 -0.4558  0.4164
11970TIP3    H157401   6.900   5.605  13.279 -0.2131 -0.7087 -0.8981
11970TIP3    H257402   6.789   5.511  13.237 -0.9254  0.5820 -1.9984
11971TIP3   OH257403   0.762   0.096   2.883  0.4085  0.2535  0.1793
11971TIP3    H157404   0.799   0.142   2.808  0.5894 -1.5210 -0.8687
11971TIP3    H257405   0.668   0.113   2.877  0.3945 -0.0559 -0.5962
11972TIP3   OH257406   0.281   0.698  15.481  0.2337 -0.3761 -0.3332
11972TIP3    H157407   0.233   0.776  15.511  0.1234 -0.6632  0.2570
11972TIP3    H257408   0.346   0.682  15.549  0.8710 -0.2681 -0.9056
11973TIP3   OH257409   0.408   2.205  11.098 -0.1118 -0.3677 -0.3466
11973TIP3    H157410   0.392   2.287  11.146  2.5585 -0.6968  1.3163
11973TIP3    H257411   0.459   2.232  11.022 -1.6569 -0.2320 -1.3930
11974TIP3   OH257412   1.297   5.438   5.233  0.4113 -0.0544  0.0391
11974TIP3    H157413   1.254   5.446   5.318  1.3598 -1.6151  0.7105
11974TIP3    H257414   1.290   5.346   5.211  2.6357 -0.2228 -0.2048
11975TIP3   OH257415   6.029   5.971  15.510 -0.2626  0.1745 -0.2693
11975TIP3    H157416   6.042   5.952  15.603  2.4342 -0.3700 -0.6856
11975TIP3    H257417   5.978   5.897  15.477 -2.0027  0.7993  0.8959
11976TIP3   OH257418   6.033   3.997   0.278 -0.2027  0.3465 -0.0901
11976TIP3    H157419   6.026   4.003   0.183 -1.0337  0.1919 -0.0394
11976TIP3    H257420   6.115   4.043   0.298 -0.9885  2.1060 -0.7140
11977TIP3   OH257421   1.528   0.014  13.822  0.4468 -0.4428  0.2784
11977TIP3    H157422   1.532   0.087  13.760 -0.4748 -1.0221 -0.4815
11977TIP3    H257423   1.454   0.036  13.879  1.5702  0.3177  1.5065
11978TIP3   OH257424   3.346   3.303   6.545 -0.3549  0.0343  0.3402
11978TIP3    H157425   3.291   3.237   6.588 -0.6058  0.1963  0.2639
11978TIP3    H257426   3.324   3.295   6.452  1.7651 -1.8576 -0.0883
11979TIP3   OH257427   3.002   1.360   4.116  0.0558 -0.6398 -0.5860
11979TIP3    H157428   3.052   1.297   4.064 -0.2420 -1.4783  0.1199
11979TIP3    H257429   2.974   1.310   4.192  0.6895  0.6274  0.5113
11980TIP3   OH257430   6.163   6.739  14.480  0.0153  0.1954 -0.9079
11980TIP3    H157431   6.077   6.727  14.439 -1.2163 -0.6339  1.6432
11980TIP3    H257432   6.157   6.823  14.524 -0.2593 -0.6751  0.8218
11981TIP3   OH257433   3.200   0.818  15.261 -0.1515  0.1876  0.1868
11981TIP3    H157434   3.233   0.811  15.351  0.1754 -2.1881 -0.0371
11981TIP3    H257435   3.235   0.901  15.229 -0.3497  1.1419  2.2515
11982TIP3   OH257436   2.794   4.933  13.650 -0.2088 -0.5261 -0.7106
11982TIP3    H157437   2.839   4.955  13.732  0.9262 -1.3828 -1.0743
11982TIP3    H257438   2.714   4.986  13.651 -1.2916 -2.0113  1.9369
11983TIP3   OH257439   1.630   0.335  14.884 -0.1060 -0.0237  0.8791
11983TIP3    H157440   1.607   0.428  14.889  1.1845  0.4369 -0.7289
11983TIP3    H257441   1.559   0.296  14.833  0.9363  0.7854 -1.3478
11984TIP3   OH257442   0.213   1.027   0.467  0.4742 -0.4747 -0.1923
11984TIP3    H157443   0.120   1.036   0.491  0.0953  0.8938 -2.0112
11984TIP3    H257444   0.260   1.058   0.544 -0.5231 -1.5826  0.9318
11985TIP3   OH257445   4.139   3.497  15.133  0.1029 -0.4756 -0.3741
11985TIP3    H157446   4.165   3.589  15.127  1.2040 -0.6520  1.0270
11985TIP3    H257447   4.209   3.449  15.088 -0.4733 -0.6443 -1.1129
11986TIP3   OH257448   6.644   0.779  13.909 -0.7589  0.7844 -0.1510
11986TIP3    H157449   6.599   0.863  13.917 -1.2124  0.6312 -0.9670
11986TIP3    H257450   6.603   0.737  13.833 -0.7731 -0.3221  0.4475
11987TIP3   OH257451   3.497   3.064   2.106  0.3533 -0.4012  0.1612
11987TIP3    H157452   3.451   3.023   2.179 -0.6889 -2.4630 -1.5436
11987TIP3    H257453   3.568   3.003   2.086  1.5442  0.8778  0.3407
11988TIP3   OH257454   0.838   3.202  15.390 -0.5799  0.7243  0.1867
11988TIP3    H157455   0.761   3.259  15.383 -1.6436 -0.6315  0.5429
11988TIP3    H257456   0.884   3.234  15.468 -0.4059  1.9659 -0.4039
11989TIP3   OH257457   2.026   3.259   3.312 -0.2465 -0.1549 -0.1169
11989TIP3    H157458   2.029   3.177   3.263  1.5007  1.0113 -2.1092
11989TIP3    H257459   2.110   3.264   3.357 -0.8903 -0.0769  1.1183
11990TIP3   OH257460   3.269   0.616   1.889  0.4076 -0.2154 -0.0794
11990TIP3    H157461   3.289   0.705   1.861 -0.2250 -0.4255 -1.2785
11990TIP3    H257462   3.211   0.582   1.821 -1.7898 -0.5541  1.8122
11991TIP3   OH257463   3.177   5.706  12.924 -0.6298 -0.8287 -0.0568
11991TIP3    H157464   3.250   5.762  12.950 -1.5994 -0.2214  1.5322
11991TIP3    H257465   3.218   5.629  12.885  0.7537  0.7195 -1.8139
11992TIP3   OH257466   1.388   0.296  15.677  0.4980  0.2668  0.2390
11992TIP3    H157467   1.352   0.231  15.736  0.3609  0.3471  0.2444
11992TIP3    H257468   1.326   0.299  15.604 -0.1202  1.2249  0.7797
11993TIP3   OH257469   6.814   1.750  12.626 -0.2615 -0.4845 -0.1368
11993TIP3    H157470   6.875   1.706  12.568 -0.5337 -0.0900 -0.7369
11993TIP3    H257471   6.736   1.693  12.627  0.0688 -0.9374  0.5503
11994TIP3   OH257472   4.698   5.763  14.398 -0.2099 -0.0564  0.7926
11994TIP3    H157473   4.791   5.741  14.405  0.2272  1.4127  0.0983
11994TIP3    H257474   4.685   5.783  14.306 -0.5023  2.5121  1.3042
11995TIP3   OH257475   4.178   1.095  11.533  0.2310  0.4343  0.6518
11995TIP3    H157476   4.193   1.151  11.610 -1.7087 -0.1654  1.5374
11995TIP3    H257477   4.239   1.128  11.467  1.2968  1.5860  2.1376
11996TIP3   OH257478   1.889   5.207   1.016  0.0122  0.5765  0.0244
11996TIP3    H157479   1.851   5.280   0.967  1.0093  0.6162 -0.7255
11996TIP3    H257480   1.982   5.209   0.993  0.1441 -0.6221  0.3934
11997TIP3   OH257481   1.191   6.333   5.437 -0.2742 -0.3007  0.5099
11997TIP3    H157482   1.268   6.366   5.390 -0.1159 -0.8194  0.3968
11997TIP3    H257483   1.117   6.361   5.384 -0.0612 -1.6211 -0.5449
11998TIP3   OH257484   0.698   2.498   2.855 -0.1756  0.2133 -0.0535
11998TIP3    H157485   0.670   2.538   2.772  0.9473 -1.5031 -1.3225
11998TIP3    H257486   0.790   2.523   2.863  0.3974 -1.5908 -0.6049
11999TIP3   OH257487   5.614   4.377  12.662  0.6977 -0.0671 -0.5542
11999TIP3    H157488   5.643   4.378  12.571  0.9629 -0.0907 -0.4699
11999TIP3    H257489   5.692   4.400  12.713  0.4614  0.3147 -0.3574
12000TIP3   OH257490   3.544   6.448   3.778 -0.0119  0.1592  0.0686
12000TIP3    H157491   3.512   6.539   3.782  0.4554  0.4428 -1.6837
12000TIP3    H257492   3.543   6.427   3.685 -0.0258 -1.6287  0.4432
12001TIP3   OH257493   1.940   4.109   2.057  0.8615 -0.3793 -0.0932
12001TIP3    H157494   1.958   4.167   1.984  0.9784  0.5235  0.6289
12001TIP3    H257495   1.983   4.027   2.034 -0.1439 -0.5244 -1.5826
12002TIP3   OH257496   1.465   3.520  15.548 -0.4178  0.0583 -0.3669
12002TIP3    H157497   1.392   3.580  15.562 -0.5279 -0.4662  1.5860
12002TIP3    H257498   1.427   3.433  15.558  0.3982 -0.2300  0.3574
12003TIP3   OH257499   3.996   3.756  11.778 -0.1994  0.4110 -0.4602
12003TIP3    H157500   3.969   3.812  11.851  0.6800  0.3320 -0.0524
12003TIP3    H257501   4.082   3.791  11.753  1.3990 -2.0058  1.2075
12004TIP3   OH257502   2.524   6.163  13.016  0.3503 -0.1009 -0.0908
12004TIP3    H157503   2.450   6.184  13.074 -0.5433 -3.0795  0.0256
12004TIP3    H257504   2.601   6.174  13.071 -0.1384  1.0243  0.4156
12005TIP3   OH257505   0.530   5.315   3.057  0.4671 -0.1131  0.1993
12005TIP3    H157506   0.619   5.329   3.024  0.8576 -0.1672  1.1877
12005TIP3    H257507   0.542   5.258   3.133 -0.3092  0.6252  0.8986
12006TIP3   OH257508   0.126   3.811  17.257  0.1319  0.1575  0.0843
12006TIP3    H157509   0.161   3.871  17.191 -0.5856 -0.4647 -0.8973
12006TIP3    H257510   0.042   3.850  17.283 -0.8468 -0.9047 -1.3342
12007TIP3   OH257511   0.147   3.161   1.146 -0.9453 -0.3329 -0.1802
12007TIP3    H157512   0.231   3.154   1.100 -1.3922 -1.2035 -0.8782
12007TIP3    H257513   0.150   3.089   1.210 -1.2142 -0.4451 -0.2954
12008TIP3   OH257514   1.271   0.981  10.655  0.1813 -0.4029 -0.5198
12008TIP3    H157515   1.296   0.951  10.743  0.8793 -1.0593 -0.9343
12008TIP3    H257516   1.297   1.073  10.654  0.2002 -0.3983 -0.0430
12009TIP3   OH257517   4.331   5.223  11.404  0.2078  0.7078 -0.4090
12009TIP3    H157518   4.403   5.197  11.461  0.4715  2.1933 -0.0021
12009TIP3    H257519   4.368   5.224  11.316  0.5711  1.0215 -0.2551
12010TIP3   OH257520   0.032   6.121   6.258 -0.0748 -0.0609 -0.4337
12010TIP3    H157521  -0.027   6.059   6.215 -0.4102  0.2543 -0.4360
12010TIP3    H257522   0.003   6.207   6.227  1.5427  0.0186 -1.8654
12011TIP3   OH257523   2.749   5.070  11.206 -0.4227  0.1169 -0.2680
12011TIP3    H157524   2.771   5.119  11.127 -3.2431  0.8482 -0.6854
12011TIP3    H257525   2.749   4.978  11.179  0.8101  0.1771 -0.5244
12012TIP3   OH257526   0.039   3.746  11.736 -0.2807  0.0298 -0.4187
12012TIP3    H157527  -0.019   3.763  11.662  1.1948 -1.4311 -1.9915
12012TIP3    H257528   0.033   3.652  11.750  0.4901  0.0989  0.4829
12013TIP3   OH257529   3.926   3.966   2.043 -0.1761  0.1603 -0.4011
12013TIP3    H157530   3.877   3.886   2.064 -0.0349 -0.0283 -0.7793
12013TIP3    H257531   3.860   4.025   2.006 -0.0481 -0.2614 -1.3427
12014TIP3   OH257532   4.326   2.461   0.989 -0.3885  0.7424  0.2282
12014TIP3    H157533   4.324   2.394   0.920 -1.1315 -1.7216  2.5067
12014TIP3    H257534   4.239   2.458   1.029  0.0326  2.0834  1.3469
12015TIP3   OH257535   3.647   0.925   4.272 -0.4803 -0.2933  0.2510
12015TIP3    H157536   3.590   0.965   4.206 -0.3952  0.1856  0.4651
12015TIP3    H257537   3.607   0.840   4.290 -2.5420  0.9464  2.1487
12016TIP3   OH257538   3.344   1.117  16.979  0.5725 -0.4316  0.4733
12016TIP3    H157539   3.256   1.082  16.990  0.4061 -1.0212 -2.2622
12016TIP3    H257540   3.335   1.211  16.999 -0.2077 -0.8035  2.0717
12017TIP3   OH257541   1.083   6.055  12.053  0.1557  0.5503 -0.0681
12017TIP3    H157542   1.119   6.110  11.984  0.9525 -0.1041 -0.1857
12017TIP3    H257543   1.136   6.076  12.130  1.4316 -1.0613 -0.4533
12018TIP3   OH257544   4.965   3.908  13.576 -0.3317  0.1011 -0.2744
12018TIP3    H157545   5.033   3.867  13.522 -1.5111 -1.6534 -0.4999
12018TIP3    H257546   4.918   3.966  13.515 -1.1514 -1.2650 -1.0041
12019TIP3   OH257547   3.826   2.180  14.334  0.1616  0.1559  0.1409
12019TIP3    H157548   3.870   2.095  14.340 -0.3109 -0.0200  1.5342
12019TIP3    H257549   3.898   2.242  14.323  0.5266 -0.4054 -0.7254
12020TIP3   OH257550   1.034   3.107   6.183  0.4230 -0.0038  0.2764
12020TIP3    H157551   0.939   3.113   6.192  0.3293 -1.5018  0.6152
12020TIP3    H257552   1.067   3.118   6.272  0.4234 -1.3874  0.4600
12021TIP3   OH257553   5.860   0.663   0.722 -0.0312 -0.2991 -0.0444
12021TIP3    H157554   5.817   0.581   0.747 -1.6715  0.6934  0.5977
12021TIP3    H257555   5.788   0.727   0.718  1.3996  1.5015  1.1796
12022TIP3   OH257556   2.996   0.614   6.487  0.1861  0.0662 -0.0004
12022TIP3    H157557   2.913   0.571   6.464  0.6015 -0.6720 -0.1558
12022TIP3    H257558   2.971   0.703   6.513 -0.5541  0.1793 -1.0379
12023TIP3   OH257559   6.362   2.009  11.434  0.6430 -0.4531 -0.6053
12023TIP3    H157560   6.388   1.984  11.345  1.9642  0.3265 -0.4778
12023TIP3    H257561   6.299   2.080  11.422  0.1083 -0.9718 -0.9161
12024TIP3   OH257562   0.063   3.431   5.011  0.5309  0.3747  0.0974
12024TIP3    H157563   0.098   3.515   4.983  1.2935  0.2702  0.6989
12024TIP3    H257564   0.139   3.384   5.047  0.0891 -0.5087 -0.0904
12025TIP3   OH257565   0.640   1.712  15.349  0.0525  0.4268 -0.1074
12025TIP3    H157566   0.611   1.629  15.311  0.0345 -0.3188  1.4697
12025TIP3    H257567   0.587   1.778  15.304 -1.8166 -0.6289  0.4159
12026TIP3   OH257568   0.597   4.403   4.919  0.1154 -0.1454  0.3664
12026TIP3    H157569   0.669   4.455   4.954 -0.6014  0.2440  1.3009
12026TIP3    H257570   0.638   4.345   4.855  1.1730  0.4336  0.5035
12027TIP3   OH257571   4.750   6.750  16.190 -0.4492  0.7836  0.1656
12027TIP3    H157572   4.792   6.664  16.181 -2.2673 -0.2550  1.0048
12027TIP3    H257573   4.679   6.749  16.126 -0.1694  1.8969 -0.1806
12028TIP3   OH257574   1.836   1.741  13.198 -0.3314  1.0631  0.7039
12028TIP3    H157575   1.913   1.797  13.198  0.9864 -0.6241 -0.3635
12028TIP3    H257576   1.854   1.675  13.265 -0.0862 -0.2219 -0.5622
12029TIP3   OH257577   4.481   4.330   5.851  0.3493  0.2337  0.3863
12029TIP3    H157578   4.447   4.280   5.776 -1.1692  1.4919  0.1867
12029TIP3    H257579   4.516   4.263   5.910 -1.7618 -1.1108  0.2242
12030TIP3   OH257580   1.961   4.432  12.125  0.5709  0.1371  0.1173
12030TIP3    H157581   1.978   4.401  12.036  1.7266 -0.1272  0.4124
12030TIP3    H257582   1.889   4.493  12.115  1.3169  0.8654 -1.1556
12031TIP3   OH257583   4.273   3.183  16.795 -0.1423  0.1161  0.7494
12031TIP3    H157584   4.188   3.216  16.822 -0.5931 -0.5235  0.1710
12031TIP3    H257585   4.333   3.208  16.865 -0.8425  0.4227  1.2472
12032TIP3   OH257586   5.923   2.645  11.418  0.4359 -0.0891 -0.0668
12032TIP3    H157587   5.839   2.647  11.372  0.7859 -2.6937 -0.9927
12032TIP3    H257588   5.985   2.686  11.358 -0.0937  1.7344  0.5719
12033TIP3   OH257589   5.592   3.877   2.579  0.2670 -0.6672 -0.2448
12033TIP3    H157590   5.680   3.900   2.548  0.4556 -0.1474  0.6646
12033TIP3    H257591   5.598   3.783   2.599  0.3229 -0.8684 -1.1222
12034TIP3   OH257592   2.126   2.396  11.937 -0.4793 -0.5286 -0.0512
12034TIP3    H157593   2.166   2.409  12.023 -1.1785 -1.2784  0.3978
12034TIP3    H257594   2.050   2.453  11.936 -0.5749 -0.6553 -0.0997
12035TIP3   OH257595   4.079   4.491  15.481  0.3526  0.1805 -0.3385
12035TIP3    H157596   4.029   4.435  15.421  0.7331 -1.6072  0.9258
12035TIP3    H257597   4.157   4.439  15.502  0.5856  1.0599  1.1185
12036TIP3   OH257598   5.763   0.350   5.100 -0.0320 -0.0416 -0.1671
12036TIP3    H157599   5.824   0.383   5.165 -1.0806 -0.1143  0.8818
12036TIP3    H257600   5.676   0.364   5.138 -0.6381 -0.8597 -1.1767
12037TIP3   OH257601   2.506   3.351   1.009 -0.0151 -0.3416  0.0173
12037TIP3    H157602   2.438   3.292   1.041  0.1539  0.6898  2.5353
12037TIP3    H257603   2.582   3.295   0.997 -0.4243 -0.9756  0.2960
12038TIP3   OH257604   0.314   5.504   0.799  0.1973  0.2647  0.4589
12038TIP3    H157605   0.349   5.569   0.860 -0.3532  0.5055  0.5220
12038TIP3    H257606   0.244   5.461   0.847  1.9149 -1.8961  1.2059
12039TIP3   OH257607   2.957   2.012  15.405  0.3208  0.3991  0.8843
12039TIP3    H157608   2.945   1.972  15.319 -1.2287 -0.9136  1.6634
12039TIP3    H257609   2.907   1.956  15.465  1.7792  0.9691  2.7294
12040TIP3   OH257610   2.199   4.596  15.166  0.0276 -0.6587 -0.0184
12040TIP3    H157611   2.270   4.657  15.143  0.4433 -1.2430 -0.3165
12040TIP3    H257612   2.213   4.578  15.259  0.7692 -1.4054 -0.2689
12041TIP3   OH257613   1.573   5.140   5.912 -0.2009  0.0159 -0.5158
12041TIP3    H157614   1.535   5.180   5.990  1.3579  0.4213  0.0856
12041TIP3    H257615   1.499   5.098   5.868 -1.5629  1.8724 -0.1368
12042TIP3   OH257616   1.306   3.576  11.938  0.6454 -0.2300  0.1918
12042TIP3    H157617   1.324   3.656  11.888 -0.2683 -0.3425 -0.3454
12042TIP3    H257618   1.228   3.539  11.896  0.7207 -1.1023  0.7968
12043TIP3   OH257619   2.134   2.833  16.040 -0.5446 -0.2892  0.6429
12043TIP3    H157620   2.115   2.916  16.084  1.9733  0.5844  0.2566
12043TIP3    H257621   2.154   2.858  15.950 -0.1750 -1.3798  0.4073
12044TIP3   OH257622   6.168   5.361  14.441 -0.1563  0.9650  0.2714
12044TIP3    H157623   6.132   5.311  14.368 -0.3863 -0.7820  1.5042
12044TIP3    H257624   6.095   5.370  14.502  0.1578  1.9416  0.5134
12045TIP3   OH257625   5.962   1.437  15.507  0.2284  0.0005  0.6798
12045TIP3    H157626   6.053   1.407  15.499 -0.0217 -0.5084 -0.5358
12045TIP3    H257627   5.910   1.357  15.511 -0.2708  0.2635 -0.1886
12046TIP3   OH257628   5.018   2.446  13.012  0.5871  0.6685  0.2616
12046TIP3    H157629   5.049   2.493  12.935  0.2509  2.0995  0.9643
12046TIP3    H257630   4.929   2.479  13.025 -0.0547 -0.9474  0.1821
12047TIP3   OH257631   5.348   4.209   4.455 -0.3216 -0.1458  0.1576
12047TIP3    H157632   5.357   4.114   4.454 -0.5274 -0.1700  0.3829
12047TIP3    H257633   5.286   4.227   4.526  0.0577  0.1845  0.4100
12048TIP3   OH257634   2.527   3.120  15.247 -0.2601 -0.5469  0.7938
12048TIP3    H157635   2.521   3.142  15.154  0.3726 -0.6115  0.7362
12048TIP3    H257636   2.539   3.026  15.249 -1.2084 -0.6716  0.9810
12049TIP3   OH257637   4.351   3.278   4.808 -0.0187 -0.2984  0.0910
12049TIP3    H157638   4.325   3.328   4.885  0.8704 -0.7561  0.7167
12049TIP3    H257639   4.372   3.344   4.742  0.0048  0.1260  0.5160
12050TIP3   OH257640   3.775   3.871  15.077  0.3674 -0.0195 -0.6296
12050TIP3    H157641   3.697   3.853  15.024  0.2064  1.3105 -0.8767
12050TIP3    H257642   3.741   3.894  15.163  0.4911  0.5452 -0.7321
12051TIP3   OH257643   6.534   2.635  14.539 -0.1456  0.1471  0.0963
12051TIP3    H157644   6.462   2.588  14.496  0.7514 -0.6877 -0.5391
12051TIP3    H257645   6.580   2.567  14.589 -0.7371  0.9664  1.8394
12052TIP3   OH257646   4.400   5.096  12.012 -0.4352  0.3905  0.7242
12052TIP3    H157647   4.482   5.139  11.991  0.2598  0.0249  2.5291
12052TIP3    H257648   4.346   5.164  12.051 -0.0713  0.1192  1.7431
12053TIP3   OH257649   1.899   2.999   3.189 -0.0108 -0.4663 -0.1389
12053TIP3    H157650   1.896   2.910   3.152  0.4513 -0.6422  0.2514
12053TIP3    H257651   1.815   3.008   3.235 -0.4547 -0.3626 -0.9454
12054TIP3   OH257652   2.498   6.466  17.007  0.1786 -0.0208  0.1782
12054TIP3    H157653   2.555   6.441  16.934 -0.5950  1.9894 -1.2017
12054TIP3    H257654   2.547   6.439  17.085  1.8814 -0.5785 -1.0086
12055TIP3   OH257655   0.354   2.625   5.130  0.6712 -0.5066  0.1394
12055TIP3    H157656   0.405   2.662   5.058  0.8302 -0.1608  0.4282
12055TIP3    H257657   0.353   2.693   5.197 -0.9538 -0.1308 -0.2227
12056TIP3   OH257658   2.799   4.117   0.371  0.1350 -0.0820 -0.0050
12056TIP3    H157659   2.819   4.210   0.386 -0.5316  0.1625 -0.5563
12056TIP3    H257660   2.876   4.070   0.403  0.1198  0.6059  1.0834
12057TIP3   OH257661   2.346   0.494  13.983  0.0348  0.3887 -0.1994
12057TIP3    H157662   2.255   0.467  13.995 -0.9716  4.0340  1.5493
12057TIP3    H257663   2.344   0.556  13.910  1.2095  0.2117 -0.4011
12058TIP3   OH257664   4.745   6.591  11.606 -0.1155 -0.3599  0.4370
12058TIP3    H157665   4.821   6.644  11.630  0.3692 -0.5310 -0.6571
12058TIP3    H257666   4.772   6.501  11.628 -0.2390 -0.3558  0.6083
12059TIP3   OH257667   6.055   6.524  17.070  0.0995  0.6130 -0.3289
12059TIP3    H157668   6.068   6.598  17.128  2.3753  0.0184  0.0398
12059TIP3    H257669   6.033   6.563  16.985 -1.9033  1.5277  0.5396
12060TIP3   OH257670   0.109   0.112   1.681  0.1870  0.4775 -0.1097
12060TIP3    H157671   0.121   0.021   1.710  0.9258  0.7145  0.3491
12060TIP3    H257672   0.036   0.107   1.619 -1.0674 -0.1479  1.3275
12061TIP3   OH257673   5.270   5.327  11.488  0.1865 -0.7111  0.2957
12061TIP3    H157674   5.277   5.414  11.528  2.1518 -0.7604  0.1670
12061TIP3    H257675   5.311   5.268  11.551  0.4178 -1.2719 -0.3687
12062TIP3   OH257676   1.055   3.910   4.205 -0.0146 -0.5692  0.1488
12062TIP3    H157677   1.068   3.998   4.172  0.9385 -1.2988 -1.5183
12062TIP3    H257678   0.994   3.870   4.143 -0.8085 -0.9556  1.1511
12063TIP3   OH257679   0.490   6.650  15.569  0.2254 -0.0800 -0.5413
12063TIP3    H157680   0.500   6.657  15.474 -1.6639 -1.0974 -0.8584
12063TIP3    H257681   0.463   6.737  15.597 -1.1391 -0.2423 -1.2500
12064TIP3   OH257682   2.463   5.213   2.096 -0.3016 -0.2029 -0.6785
12064TIP3    H157683   2.484   5.222   2.003  0.2858 -1.3088 -0.6751
12064TIP3    H257684   2.441   5.301   2.125  2.0384  0.6502 -1.2628
12065TIP3   OH257685   5.110   2.931   3.088 -0.3688  0.4006  0.5554
12065TIP3    H157686   5.178   2.947   3.153 -0.8533 -0.7824  1.3729
12065TIP3    H257687   5.027   2.937   3.136 -0.8477  1.3949 -0.3366
12066TIP3   OH257688   3.919   2.120  15.887 -0.2649 -0.2955 -0.4618
12066TIP3    H157689   3.845   2.138  15.944 -2.9968 -1.3184 -3.3934
12066TIP3    H257690   3.902   2.032  15.852  1.2953  0.1883 -2.6577
12067TIP3   OH257691   4.251   1.847  16.024 -0.3814  0.0179 -0.2284
12067TIP3    H157692   4.169   1.850  16.073 -0.8804 -1.7134 -0.8606
12067TIP3    H257693   4.317   1.877  16.086 -1.1767 -0.7971  1.0689
12068TIP3   OH257694   5.871   2.867   1.956 -0.2653  0.3793 -0.2143
12068TIP3    H157695   5.847   2.866   1.864  2.5620  0.6551 -1.0675
12068TIP3    H257696   5.912   2.782   1.972  1.6489  1.2887 -0.0040
12069TIP3   OH257697   6.525   0.630  15.267  0.7951  0.3697 -0.3844
12069TIP3    H157698   6.452   0.682  15.300  0.8269 -0.2830  0.7629
12069TIP3    H257699   6.590   0.695  15.240  0.6013  0.9489  0.4872
12070TIP3   OH257700   2.869   5.078  15.718 -0.6346  0.0763 -0.1215
12070TIP3    H157701   2.867   5.067  15.813  1.5539  0.5773  0.0296
12070TIP3    H257702   2.871   5.173  15.705  0.7886  0.0084 -0.5632
12071TIP3   OH257703   4.874   5.698  17.018  0.1751  0.7384  0.4708
12071TIP3    H157704   4.926   5.633  17.065 -0.4692  1.7559  2.7370
12071TIP3    H257705   4.790   5.655  17.002 -0.1974  0.9158  1.8279
12072TIP3   OH257706   3.189   1.295   0.638 -0.8300  0.2956 -0.3654
12072TIP3    H157707   3.219   1.234   0.571 -2.7195 -0.4728 -0.5800
12072TIP3    H257708   3.118   1.249   0.682  0.3434  0.7651  2.2118
12073TIP3   OH257709   4.128   2.349   0.583  0.0826  0.0906 -0.8281
12073TIP3    H157710   4.084   2.364   0.500 -1.8481  0.2780  0.1777
12073TIP3    H257711   4.115   2.256   0.601 -0.6302  0.3078 -0.1512
12074TIP3   OH257712   0.110   4.221  11.463  0.6620  0.0642  0.1834
12074TIP3    H157713   0.063   4.212  11.546  1.2589  0.4555  0.5670
12074TIP3    H257714   0.043   4.250  11.401  0.1161 -0.6614  0.4131
12075TIP3   OH257715   6.292   3.144  16.073 -0.2414 -0.2742 -0.2826
12075TIP3    H157716   6.208   3.158  16.115  0.1142  0.5443  0.1784
12075TIP3    H257717   6.271   3.124  15.982 -0.9031  0.8567 -0.3928
12076TIP3   OH257718   2.313   4.149   5.375  0.0631  0.0963  0.4288
12076TIP3    H157719   2.313   4.163   5.470 -0.7142  1.3242  0.2678
12076TIP3    H257720   2.405   4.154   5.350  0.2972 -0.4456  1.1390
12077TIP3   OH257721   6.737   1.179  13.773 -0.1934  0.5032 -0.7303
12077TIP3    H157722   6.791   1.196  13.850 -0.5114 -0.0765 -0.3694
12077TIP3    H257723   6.796   1.133  13.713 -0.2590 -0.0997 -0.3500
12078TIP3   OH257724   0.038   4.242  17.227 -0.4549  0.0477 -0.3075
12078TIP3    H157725   0.115   4.230  17.170 -0.4659  1.4704 -0.6594
12078TIP3    H257726  -0.015   4.164  17.212  0.7690 -0.8421 -0.2673
12079TIP3   OH257727   1.839   4.850   3.392 -0.2811  0.0756  0.0058
12079TIP3    H157728   1.919   4.899   3.372  0.4544 -1.3549 -0.6822
12079TIP3    H257729   1.813   4.812   3.308 -0.0842 -1.7790  0.7454
12080TIP3   OH257730   3.810   6.359   1.243  0.1167  0.1842  0.0689
12080TIP3    H157731   3.784   6.291   1.181  0.8358 -1.0322  1.0509
12080TIP3    H257732   3.808   6.440   1.192 -1.3535 -0.4593 -0.9811
12081TIP3   OH257733   0.739   3.461   1.017  0.2508 -0.1515  0.0420
12081TIP3    H157734   0.820   3.434   0.973  0.6153  0.1276  0.5248
12081TIP3    H257735   0.769   3.497   1.101 -0.2636  1.1624 -0.3172
12082TIP3   OH257736   1.695   1.858  11.632 -0.0752 -0.4373 -0.3489
12082TIP3    H157737   1.669   1.891  11.718  1.0079  1.0372 -0.5563
12082TIP3    H257738   1.787   1.882  11.624 -0.5624  0.9825 -2.5989
12083TIP3   OH257739   0.169   4.985   4.655 -0.4573 -0.1840  0.2351
12083TIP3    H157740   0.205   5.006   4.742 -0.0385 -0.0142  0.0259
12083TIP3    H257741   0.159   4.890   4.655 -0.0345 -0.2322  0.3135
12084TIP3   OH257742   3.183   3.121  16.840 -0.0089 -0.3367  0.7490
12084TIP3    H157743   3.184   3.025  16.840  0.0890 -0.3424  1.5949
12084TIP3    H257744   3.107   3.144  16.786  0.1563 -0.8801  0.2774
12085TIP3   OH257745   0.485   5.763   3.827  0.5108  0.2476  0.2375
12085TIP3    H157746   0.570   5.730   3.856  0.8144 -0.0437 -0.9288
12085TIP3    H257747   0.481   5.852   3.861 -0.6322 -1.0757  4.0895
12086TIP3   OH257748   6.122   0.251   5.055  0.2329 -0.2867  0.1497
12086TIP3    H157749   6.121   0.231   5.149 -1.3929 -0.7448  0.0567
12086TIP3    H257750   6.145   0.344   5.051 -0.3457 -0.0887  1.0466
12087TIP3   OH257751   0.315   1.495   0.100 -0.3799 -0.5909  0.2842
12087TIP3    H157752   0.323   1.575   0.151 -0.4018 -1.4353  1.6790
12087TIP3    H257753   0.228   1.499   0.061  0.5621  1.2493 -1.8608
12088TIP3   OH257754   0.996   2.606   4.602 -0.9114 -0.4536  0.6751
12088TIP3    H157755   1.027   2.532   4.551 -1.2365 -0.7566  0.9088
12088TIP3    H257756   1.054   2.678   4.578 -0.6361 -0.7655  0.3947
12089TIP3   OH257757   4.812   3.454   2.562  0.1143  0.3358 -0.1507
12089TIP3    H157758   4.796   3.380   2.621 -0.2474 -0.5320 -1.3067
12089TIP3    H257759   4.891   3.429   2.514  0.5564  1.1562  0.1316
12090TIP3   OH257760   1.916   5.635   2.818 -0.1419 -0.0707 -0.6017
12090TIP3    H157761   1.993   5.619   2.763  0.0104 -0.2828 -0.3345
12090TIP3    H257762   1.929   5.577   2.894  0.6716  1.6816  0.6577
12091TIP3   OH257763   2.837   5.673   5.671 -0.3932 -0.9408 -0.2100
12091TIP3    H157764   2.893   5.617   5.617 -0.9230 -0.1511 -1.6487
12091TIP3    H257765   2.753   5.626   5.674 -1.3009  0.3488 -2.6417
12092TIP3   OH257766   4.389   6.818  14.793 -0.1588  0.0155 -0.9559
12092TIP3    H157767   4.436   6.737  14.808 -1.1801 -0.2447  1.3426
12092TIP3    H257768   4.342   6.834  14.875  0.3805  3.1823 -1.1407
12093TIP3   OH257769   0.760   6.140  15.762 -0.6374  0.3960 -0.0478
12093TIP3    H157770   0.851   6.154  15.788 -1.3524  1.2016  2.2875
12093TIP3    H257771   0.745   6.047  15.776 -0.2717  0.3183 -0.1528
12094TIP3   OH257772   2.757   5.594  17.223  0.0252 -0.6237 -0.3356
12094TIP3    H157773   2.707   5.519  17.192  1.2064 -1.1561 -1.0496
12094TIP3    H257774   2.758   5.585  17.318 -1.7208 -0.2487 -0.2596
12095TIP3   OH257775   4.210   0.785  12.110  0.3606  0.3564 -1.0064
12095TIP3    H157776   4.155   0.808  12.185  0.1418  1.5126 -1.5021
12095TIP3    H257777   4.236   0.869  12.072  1.0595 -0.2001 -1.7998
12096TIP3   OH257778   6.030   0.373  17.199  0.6186  0.3828 -0.1737
12096TIP3    H157779   6.125   0.369  17.203  0.5464 -2.5862  1.6539
12096TIP3    H257780   6.001   0.358  17.290 -1.5716 -0.5664 -0.9443
12097TIP3   OH257781   6.638   0.274   3.302 -0.5036  0.2283  0.2540
12097TIP3    H157782   6.548   0.306   3.295  0.6908  3.8660 -0.5785
12097TIP3    H257783   6.680   0.301   3.221  1.5448 -0.7261  0.9260
12098TIP3   OH257784   0.811   5.411   2.922 -0.2040  0.7227 -0.0766
12098TIP3    H157785   0.866   5.410   2.843 -0.8520 -1.2797 -0.5425
12098TIP3    H257786   0.742   5.475   2.902 -1.6655 -1.3389 -2.1292
12099TIP3   OH257787   1.881   2.776   2.922 -0.2740  0.7453 -0.7537
12099TIP3    H157788   1.855   2.714   2.990  1.1562 -0.1494 -0.9934
12099TIP3    H257789   1.970   2.751   2.899 -0.6642  1.1061 -2.8795
12100TIP3   OH257790   2.365   4.389  17.149  0.2142  0.1897  0.2530
12100TIP3    H157791   2.433   4.335  17.109  0.8134  0.8816  0.3196
12100TIP3    H257792   2.323   4.332  17.213  1.6188  0.1391  1.1601
12101TIP3   OH257793   0.943   3.516  13.823  0.5829 -0.0221 -0.0299
12101TIP3    H157794   0.877   3.559  13.879  1.6279  2.0112 -0.2595
12101TIP3    H257795   0.939   3.424  13.848 -2.0618  0.0818  0.2372
12102TIP3   OH257796   6.466   0.955   1.445  0.0366  0.0128  0.1660
12102TIP3    H157797   6.463   0.886   1.512 -0.9214  0.9852  1.1622
12102TIP3    H257798   6.525   1.020   1.481 -1.8952  1.4075  0.9925
12103TIP3   OH257799   1.899   5.892  12.463 -0.5630 -0.2473 -0.1167
12103TIP3    H157800   1.982   5.937  12.480 -0.5790 -0.3273  0.1680
12103TIP3    H257801   1.859   5.942  12.392 -0.5065  0.0926  0.0889
12104TIP3   OH257802   5.017   2.870  14.919 -0.3033  1.3592  0.4268
12104TIP3    H157803   5.059   2.834  14.997  0.4049  2.2907  0.4912
12104TIP3    H257804   5.053   2.818  14.846 -1.0528  0.4125  0.7051
12105TIP3   OH257805   4.699   1.549   3.646  0.4708  0.3538 -0.1444
12105TIP3    H157806   4.640   1.513   3.578 -2.0227 -0.9189  2.4618
12105TIP3    H257807   4.718   1.638   3.616 -0.9144  0.0250 -2.2777
12106TIP3   OH257808   5.916   0.056   4.132 -0.3543 -0.0079  0.3013
12106TIP3    H157809   5.935   0.107   4.053 -1.6377 -0.1890 -0.1536
12106TIP3    H257810   5.982   0.084   4.196 -0.4239  1.4933 -0.2536
12107TIP3   OH257811   5.294   5.595  16.905  0.1944 -0.7600  0.6158
12107TIP3    H157812   5.378   5.583  16.862  0.8877 -1.1988  2.0455
12107TIP3    H257813   5.315   5.633  16.990 -1.2144  1.1859  0.1812
12108TIP3   OH257814   4.322   5.209   5.423  0.1996 -0.6448  0.3605
12108TIP3    H157815   4.385   5.144   5.392  0.3243  0.1123 -1.0502
12108TIP3    H257816   4.361   5.245   5.502  1.7134  0.0109 -0.6325
12109TIP3   OH257817   5.339   6.035  13.573  0.4922 -0.9252 -0.1524
12109TIP3    H157818   5.411   5.996  13.622  1.1642 -1.3782 -1.4578
12109TIP3    H257819   5.349   6.129  13.587 -1.0539 -1.1135  2.8857
12110TIP3   OH257820   3.976   3.481  14.688 -0.2252  0.0096  0.1225
12110TIP3    H157821   4.070   3.467  14.693 -0.2036  0.3519  0.8143
12110TIP3    H257822   3.938   3.406  14.734 -0.2611  0.2516  0.4868
12111TIP3   OH257823   4.688   0.922   3.885 -0.3768  0.3924 -0.0097
12111TIP3    H157824   4.747   0.966   3.946 -0.0827  0.7621 -0.5530
12111TIP3    H257825   4.699   0.828   3.904  0.1605  0.4743  0.0945
12112TIP3   OH257826   4.023   4.101  13.995 -0.1451 -0.2752 -0.5541
12112TIP3    H157827   3.935   4.116  14.028  0.3596  1.2801  0.1951
12112TIP3    H257828   4.014   4.103  13.900 -0.8554  0.3948 -0.4809
12113TIP3   OH257829   0.934   0.583  12.921  0.2216  0.7734  0.1470
12113TIP3    H157830   0.991   0.559  12.994 -0.8616  1.7595  1.3689
12113TIP3    H257831   0.875   0.649  12.957  0.1007  1.8228 -1.8266
12114TIP3   OH257832   5.213   2.691  16.398 -0.3859  0.3581  0.3689
12114TIP3    H157833   5.302   2.699  16.434 -0.2944  1.9516 -0.1435
12114TIP3    H257834   5.157   2.692  16.475  0.0551 -2.2754  0.8279
12115TIP3   OH257835   5.955   4.890   1.555  0.2487  0.2929 -0.2418
12115TIP3    H157836   5.874   4.865   1.601  0.2296 -0.3237 -0.5941
12115TIP3    H257837   5.982   4.810   1.510  0.7167  0.6679 -0.6335
12116TIP3   OH257838   2.932   0.031  10.615 -0.5860 -0.4781  0.0065
12116TIP3    H157839   2.971   0.007  10.530 -1.2294  0.9030 -0.7041
12116TIP3    H257840   3.005   0.029  10.676  0.2697  0.3387 -0.9604
12117TIP3   OH257841   3.134   6.068  12.297  0.2563  0.0217 -0.5657
12117TIP3    H157842   3.139   5.972  12.295  0.0475 -0.0363  0.7456
12117TIP3    H257843   3.056   6.087  12.350  0.6212  0.9185 -0.3275
12118TIP3   OH257844   0.766   2.694   5.846 -0.5353  0.3115 -0.2570
12118TIP3    H157845   0.711   2.770   5.825 -0.6300  0.1085 -0.7562
12118TIP3    H257846   0.761   2.687   5.942  0.0204  1.3371 -0.1367
12119TIP3   OH257847   3.536   0.174  12.663  0.0190 -0.6131 -0.5638
12119TIP3    H157848   3.481   0.096  12.666 -2.2665  0.9185  1.5587
12119TIP3    H257849   3.507   0.221  12.586 -0.3863 -0.6629 -0.4428
12120TIP3   OH257850   2.609   0.194  17.306  0.3717  0.0801 -0.1191
12120TIP3    H157851   2.684   0.227  17.356  0.3169 -1.1041  0.8005
12120TIP3    H257852   2.647   0.164  17.223  0.6393  1.0640 -0.3561
12121TIP3   OH257853   0.821   2.966  13.937 -0.6540  0.7330  0.3075
12121TIP3    H157854   0.855   2.978  13.849 -0.5549 -0.3890  0.1749
12121TIP3    H257855   0.728   2.944  13.924 -0.7456  0.9921  0.5097
12122TIP3   OH257856   5.798   5.289  15.475 -0.2312  0.5717 -0.1237
12122TIP3    H157857   5.810   5.213  15.418  1.9900  1.1511 -0.5405
12122TIP3    H257858   5.749   5.351  15.422 -0.6067  0.0583 -0.3899
12123TIP3   OH257859   4.223   6.100   2.555  0.2795  0.2186 -0.3895
12123TIP3    H157860   4.127   6.096   2.563  0.2077  0.0795 -1.2214
12123TIP3    H257861   4.246   6.185   2.593 -0.0866 -0.0866  0.5511
12124TIP3   OH257862   2.727   6.819   0.220 -0.4062  1.0287 -0.1259
12124TIP3    H157863   2.636   6.813   0.247 -0.5622  0.8520 -0.6853
12124TIP3    H257864   2.766   6.882   0.282 -0.3093 -0.6756  1.6444
12125TIP3   OH257865   3.046   5.431  12.967 -0.1368  0.3034  0.1362
12125TIP3    H157866   3.090   5.489  12.906  1.7120 -1.3472 -0.2140
12125TIP3    H257867   3.093   5.443  13.050  1.1659 -1.5216 -0.2564
12126TIP3   OH257868   2.210   2.591   0.512  0.3655  0.0262  0.4168
12126TIP3    H157869   2.144   2.524   0.495  1.3675 -1.3659  1.7680
12126TIP3    H257870   2.187   2.624   0.600 -0.3489  1.7929 -0.3765
12127TIP3   OH257871   5.270   0.411   1.721 -0.5463 -0.4757 -0.0715
12127TIP3    H157872   5.289   0.471   1.793  1.1525 -1.4487  0.3454
12127TIP3    H257873   5.228   0.336   1.763  0.9617 -1.2987  0.0603
12128TIP3   OH257874   5.018   5.849  12.991  0.1162 -0.6623 -0.2157
12128TIP3    H157875   4.984   5.915  13.052 -0.5567  0.7971 -2.0764
12128TIP3    H257876   4.941   5.817  12.945  0.7822 -0.3510 -1.5876
12129TIP3   OH257877   3.612   1.532  13.378  0.0628  0.0162  0.6433
12129TIP3    H157878   3.677   1.470  13.409  1.9456  1.0654 -0.9769
12129TIP3    H257879   3.659   1.615  13.370 -1.2070  0.6222 -1.4358
12130TIP3   OH257880   2.728   3.767  12.849  0.5666  0.0259 -0.0342
12130TIP3    H157881   2.669   3.696  12.874  0.3684  0.0789 -0.3511
12130TIP3    H257882   2.670   3.838  12.821  0.6727  1.0117  2.0174
12131TIP3   OH257883   4.039   6.518   1.748  0.0360  0.0822 -0.0390
12131TIP3    H157884   4.096   6.547   1.676  0.7647 -1.1610  0.0002
12131TIP3    H257885   4.092   6.453   1.796 -0.9889 -0.2286  0.7153
12132TIP3   OH257886   2.823   3.727   3.475  0.4016 -0.3760 -0.0338
12132TIP3    H157887   2.761   3.801   3.473  0.8929  0.0368 -0.1863
12132TIP3    H257888   2.909   3.768   3.464  0.6807 -0.9723 -0.0764
12133TIP3   OH257889   2.917   6.751   4.190  0.0116  0.1216 -0.4547
12133TIP3    H157890   2.924   6.846   4.182 -3.4447  0.5057 -0.5809
12133TIP3    H257891   2.912   6.720   4.099  0.2269 -0.0516 -0.4054
12134TIP3   OH257892   5.251   0.078  16.407  0.4795  0.5639 -1.0076
12134TIP3    H157893   5.229   0.016  16.337 -0.0873 -0.7561  0.2790
12134TIP3    H257894   5.181   0.143  16.405 -1.4058 -1.2630  0.3342
12135TIP3   OH257895   6.308   5.568  16.911  0.4096 -0.6398 -0.1097
12135TIP3    H157896   6.374   5.565  16.980  0.2712 -1.0669  0.0084
12135TIP3    H257897   6.319   5.655  16.871 -1.0791  0.6428  2.0034
12136TIP3   OH257898   0.056   5.192   5.029  0.4286 -0.1336 -0.5507
12136TIP3    H157899   0.031   5.166   4.941  0.0714 -0.0036 -0.4879
12136TIP3    H257900   0.056   5.288   5.027 -1.0800 -0.1039  0.0043
12137TIP3   OH257901   2.328   1.227  10.835 -0.6040 -0.3625 -0.3360
12137TIP3    H157902   2.295   1.314  10.860 -1.4270 -0.7882  0.1026
12137TIP3    H257903   2.263   1.193  10.775  0.6989  0.0936 -2.0758
12138TIP3   OH257904   4.819   6.237   5.845 -0.4613 -0.1086  0.3591
12138TIP3    H157905   4.911   6.245   5.822 -0.1283 -0.7169  1.4226
12138TIP3    H257906   4.780   6.191   5.771 -0.0886  0.8660 -0.4684
12139TIP3   OH257907   2.840   3.966  15.556 -0.0689  0.4014  0.3103
12139TIP3    H157908   2.896   3.982  15.480 -1.0915 -0.5673 -0.6806
12139TIP3    H257909   2.901   3.962  15.630  1.1953 -0.7193 -0.7500
12140TIP3   OH257910   6.073   2.149  12.371  0.1092 -0.2992  0.6350
12140TIP3    H157911   6.077   2.063  12.412  0.8409 -0.0120  1.1839
12140TIP3    H257912   6.064   2.130  12.278  0.3300 -0.9706  0.7408
12141TIP3   OH257913   5.551   4.974  16.958  0.5968 -0.2574 -0.0435
12141TIP3    H157914   5.523   4.980  16.867 -0.3342 -0.7022  0.2055
12141TIP3    H257915   5.630   5.028  16.962  0.7718 -0.4096 -1.1577
12142TIP3   OH257916   4.958   1.942   0.732 -0.0458  0.3883  0.2795
12142TIP3    H157917   4.902   2.019   0.732 -0.2980  0.2145  0.6886
12142TIP3    H257918   5.015   1.954   0.808  0.0233  0.2533  0.2496
12143TIP3   OH257919   6.597   5.312   6.033 -0.2987 -0.2943 -0.6634
12143TIP3    H157920   6.652   5.389   6.046  1.2534 -1.4068 -0.3773
12143TIP3    H257921   6.541   5.309   6.111  0.0883  0.1815 -0.3646
12144TIP3   OH257922   4.331   1.950  12.722  0.2227 -0.1506  0.2823
12144TIP3    H157923   4.246   1.979  12.754 -0.4901 -2.2347  0.3926
12144TIP3    H257924   4.316   1.861  12.691  2.3764 -0.5577  0.2864
12145TIP3   OH257925   4.632   4.204   1.478  0.0165  0.2412  0.3431
12145TIP3    H157926   4.724   4.228   1.484  0.7055 -1.6891 -1.4989
12145TIP3    H257927   4.632   4.116   1.440 -2.6104  0.3929 -0.1977
12146TIP3   OH257928   6.667   2.485  14.852  0.3655 -0.7258  0.0385
12146TIP3    H157929   6.729   2.484  14.926 -0.5462  1.4193  0.9080
12146TIP3    H257930   6.723   2.476  14.775  1.5513 -0.9932  0.8857
12147TIP3   OH257931   1.377   5.509  15.872  0.4730  0.3697 -0.6150
12147TIP3    H157932   1.423   5.590  15.894  0.9014 -0.1074  0.2943
12147TIP3    H257933   1.432   5.439  15.907  0.4653 -0.3729 -2.0064
12148TIP3   OH257934   3.959   4.905  16.911 -0.0747 -0.3154  0.6603
12148TIP3    H157935   4.023   4.862  16.855  0.0488  1.1016 -0.3408
12148TIP3    H257936   4.000   4.909  16.997  1.0259  0.2276  0.1188
12149TIP3   OH257937   1.846   5.009   6.580  0.0803  1.0137  0.1953
12149TIP3    H157938   1.896   4.956   6.643 -2.2636 -1.4168  0.2313
12149TIP3    H257939   1.887   4.991   6.495  0.1560  0.1561  0.3988
12150TIP3   OH257940   3.537   6.096   5.343 -0.2463 -0.4122 -0.2371
12150TIP3    H157941   3.458   6.060   5.383  0.5652 -2.0782 -0.0534
12150TIP3    H257942   3.563   6.030   5.279  1.4957 -0.3512  0.3597
12151TIP3   OH257943   2.689   0.948   2.132  0.3113 -0.5552  0.1993
12151TIP3    H157944   2.631   1.022   2.112  2.3449  0.8990 -0.6363
12151TIP3    H257945   2.728   0.970   2.217  0.2284 -1.1569  0.4014
12152TIP3   OH257946   6.457   4.366  14.273 -0.5984 -0.0527 -0.0001
12152TIP3    H157947   6.446   4.391  14.365  0.5607 -0.3411  0.2236
12152TIP3    H257948   6.394   4.295  14.260 -0.3436 -0.4194  0.7345
12153TIP3   OH257949   4.420   6.817   2.391  0.1001 -0.3760 -0.1417
12153TIP3    H157950   4.342   6.769   2.361  1.3910 -0.8808 -3.0528
12153TIP3    H257951   4.476   6.751   2.429 -0.6852 -0.0627  1.6563
12154TIP3   OH257952   4.300   6.493  14.279 -0.1263 -0.0352  0.7849
12154TIP3    H157953   4.255   6.512  14.361  0.2782 -2.0950  1.5327
12154TIP3    H257954   4.393   6.497  14.301 -0.0194 -1.6398  0.7176
12155TIP3   OH257955   3.829   3.323   4.974 -0.2366  0.1704  0.5471
12155TIP3    H157956   3.762   3.360   5.032  0.5589  0.4624  1.2842
12155TIP3    H257957   3.856   3.242   5.016 -1.3139 -0.8395 -0.6045
12156TIP3   OH257958   6.488   1.805  14.890 -0.3753 -1.0553  0.1257
12156TIP3    H157959   6.512   1.713  14.905  1.7106 -0.5362  0.2769
12156TIP3    H257960   6.502   1.847  14.975 -0.6105 -0.4400 -0.1372
12157TIP3   OH257961   0.472   3.237  16.151  0.9401  0.1398 -0.2344
12157TIP3    H157962   0.427   3.314  16.117  0.1167 -0.5694 -0.7856
12157TIP3    H257963   0.529   3.271  16.220 -0.4072  1.0740  0.4591
12158TIP3   OH257964   1.804   0.348   4.885 -0.7520  0.2353  0.1110
12158TIP3    H157965   1.750   0.319   4.959 -0.3551  0.1791  0.3813
12158TIP3    H257966   1.891   0.361   4.923 -0.4986  0.0061 -0.3889
12159TIP3   OH257967   0.366   2.529   2.631  0.6365  0.4402  0.0080
12159TIP3    H157968   0.341   2.544   2.540  0.2246  0.7783  0.1761
12159TIP3    H257969   0.438   2.590   2.646  0.0674  1.0787  0.1911
12160TIP3   OH257970   1.375   3.103   2.201 -0.4022  0.2167  0.3130
12160TIP3    H157971   1.435   3.028   2.198 -0.7162 -0.0107 -1.6109
12160TIP3    H257972   1.296   3.072   2.158 -1.1334  1.1710  0.9324
12161TIP3   OH257973   2.642   0.462  11.400  0.3020  0.1484  0.4913
12161TIP3    H157974   2.663   0.408  11.477 -2.0850 -0.1796  0.9939
12161TIP3    H257975   2.570   0.415  11.358  0.7604  0.9752 -1.2866
12162TIP3   OH257976   2.799   1.066  11.639 -0.5678 -0.5819  0.3773
12162TIP3    H157977   2.821   1.159  11.639 -0.7227 -0.5315 -0.9030
12162TIP3    H257978   2.703   1.064  11.643 -0.5994 -0.6653 -0.3379
12163TIP3   OH257979   5.358   1.901  13.906 -0.6832 -0.1701  0.0239
12163TIP3    H157980   5.275   1.909  13.953 -0.7396  3.2363 -0.3703
12163TIP3    H257981   5.332   1.888  13.814 -0.9497  2.0404 -0.2849
12164TIP3   OH257982   3.175   2.856  16.881  0.5942  0.1752  0.3769
12164TIP3    H157983   3.093   2.881  16.922  0.6843  0.7177  0.2305
12164TIP3    H257984   3.223   2.808  16.949 -0.1362 -0.7716  0.2420
12165TIP3   OH257985   5.868   6.103  11.395  0.2085  0.2690 -0.3216
12165TIP3    H157986   5.785   6.068  11.364  0.0577  0.3478 -0.0078
12165TIP3    H257987   5.927   6.094  11.321  0.0772 -0.3338 -0.3583
12166TIP3   OH257988   2.534   5.973  15.108  0.3123  0.0780  0.0256
12166TIP3    H157989   2.508   6.039  15.172 -2.7416  0.9937 -1.9474
12166TIP3    H257990   2.507   5.890  15.148 -1.0056  0.5802  0.2397
12167TIP3   OH257991   3.476   3.897  16.310 -0.0867 -0.0192  0.3439
12167TIP3    H157992   3.403   3.944  16.351  0.4973 -0.1832  1.6541
12167TIP3    H257993   3.442   3.868  16.226 -0.5922  2.4116 -0.3690
12168TIP3   OH257994   2.797   2.373  12.041 -0.0350 -0.1269 -0.9167
12168TIP3    H157995   2.886   2.344  12.057  0.5478  1.2602 -1.4405
12168TIP3    H257996   2.801   2.416  11.956 -0.9811  0.7951 -0.5167
12169TIP3   OH257997   4.684   4.671   1.680  0.3128 -0.4476  0.0368
12169TIP3    H157998   4.708   4.763   1.683  0.1575 -0.3936 -0.3959
12169TIP3    H257999   4.766   4.624   1.689  0.3032 -0.2750  1.2048
12170TIP3   OH258000   6.117   0.834   0.047  1.3134 -0.1483  0.5689
12170TIP3    H158001   6.036   0.785   0.038 -0.0408  1.8406  1.4243
12170TIP3    H258002   6.138   0.830   0.140  2.9281 -1.6672  0.2003
12171TIP3   OH258003   6.037   0.069  12.159  0.1376 -0.1296  0.4099
12171TIP3    H158004   5.974   0.131  12.123  1.7890  1.3852  0.0255
12171TIP3    H258005   6.076   0.027  12.083 -0.9456 -1.7020  0.6636
12172TIP3   OH258006   5.680   0.104   6.231  0.4572 -0.6684 -0.1400
12172TIP3    H158007   5.703   0.013   6.251 -1.9237 -1.3724 -0.3033
12172TIP3    H258008   5.590   0.114   6.263  0.9118  1.8953  0.6125
12173TIP3   OH258009   2.880   5.885  14.599  0.0853 -0.3230 -0.2880
12173TIP3    H158010   2.962   5.926  14.629 -0.3935  0.3620  0.1184
12173TIP3    H258011   2.876   5.907  14.505 -0.7622  1.6892  0.1530
12174TIP3   OH258012   3.214   6.473   3.721 -0.0907 -0.4187  0.3838
12174TIP3    H158013   3.124   6.489   3.693 -0.5619 -0.1955  1.9593
12174TIP3    H258014   3.251   6.419   3.651 -1.4239 -0.4675 -0.3157
12175TIP3   OH258015   6.046   4.818   5.534 -0.1485  0.5256  0.5303
12175TIP3    H158016   6.020   4.794   5.622  0.0819 -0.3151  0.3715
12175TIP3    H258017   6.140   4.800   5.531  0.5113  3.3506  1.0472
12176TIP3   OH258018   3.951   0.909   6.761 -0.1277 -0.3531  0.1654
12176TIP3    H158019   3.860   0.880   6.749 -0.2340 -0.5368  1.2976
12176TIP3    H258020   3.944   1.003   6.779 -0.2923 -0.6816  2.0891
12177TIP3   OH258021   6.086   0.181  15.570 -0.5005  0.6332  0.0212
12177TIP3    H158022   5.994   0.202  15.556 -0.9462 -1.3609 -0.2687
12177TIP3    H258023   6.129   0.211  15.490 -1.3749 -0.9085 -1.0945
12178TIP3   OH258024   2.373   6.617   2.309  0.0796  0.3175 -0.0890
12178TIP3    H158025   2.279   6.602   2.318  0.3585 -0.8971  1.1651
12178TIP3    H258026   2.411   6.582   2.389  1.7518 -0.6773 -1.2451
12179TIP3   OH258027   1.027   4.994   6.210  0.0414  0.2124 -0.0171
12179TIP3    H158028   1.079   4.985   6.290 -0.2757  1.0389  0.2962
12179TIP3    H258029   1.038   5.086   6.185  2.3958 -0.6147 -2.5037
12180TIP3   OH258030   0.506   6.072  16.402  0.0964  0.3236  0.4727
12180TIP3    H158031   0.434   6.131  16.382 -0.1251 -0.3498 -0.7711
12180TIP3    H258032   0.525   6.027  16.320  1.3018 -0.2063  1.0119
12181TIP3   OH258033   3.225   0.641  11.727  0.2606  0.2287  0.7099
12181TIP3    H158034   3.245   0.590  11.649  0.9030 -0.2807  1.1926
12181TIP3    H258035   3.138   0.677  11.712  0.8277  1.0751 -0.7274
12182TIP3   OH258036   3.915   0.861  12.033 -0.0785  0.3741 -0.7203
12182TIP3    H158037   3.940   0.770  12.047  0.7905  0.5686 -0.9816
12182TIP3    H258038   3.906   0.897  12.122  1.0501  0.4268 -0.6202
12183TIP3   OH258039   4.864   2.583  15.055  0.7414 -0.5179 -0.0012
12183TIP3    H158040   4.946   2.623  15.084  0.8844  1.4142 -2.6579
12183TIP3    H258041   4.890   2.523  14.984 -0.1095  0.3733 -1.1117
12184TIP3   OH258042   1.114   5.445  15.891  0.6231 -0.2021 -0.4359
12184TIP3    H158043   1.208   5.459  15.890  0.4531  1.3230  0.9443
12184TIP3    H258044   1.077   5.532  15.908 -0.8668 -1.2207  2.0718
12185TIP3   OH258045   5.070   5.713  13.799  0.0089 -0.1293 -0.2574
12185TIP3    H158046   4.975   5.718  13.798  0.0326  0.9066  0.7921
12185TIP3    H258047   5.094   5.727  13.891  1.1477 -0.9442 -0.4082
12186TIP3   OH258048   0.520   1.392  14.655  0.4163 -0.3320 -0.3484
12186TIP3    H158049   0.452   1.459  14.659 -0.3506 -1.1501  1.0704
12186TIP3    H258050   0.512   1.355  14.567  0.0241  0.5797 -0.7035
12187TIP3   OH258051   4.933   4.703  16.604 -0.0852 -0.1728  0.4253
12187TIP3    H158052   4.960   4.790  16.574 -0.7108 -0.5943 -1.4766
12187TIP3    H258053   4.862   4.720  16.666 -0.8469  0.6582 -0.6541
12188TIP3   OH258054   1.428   4.658   0.546 -0.4928  0.5634 -0.4145
12188TIP3    H158055   1.498   4.593   0.547  0.8189  1.8254 -2.4280
12188TIP3    H258056   1.458   4.727   0.604 -1.9043 -0.5363  1.7555
12189TIP3   OH258057   4.058   4.785   2.427  0.0745  0.2379  0.7585
12189TIP3    H158058   3.966   4.761   2.427  0.3198 -0.8413 -0.6255
12189TIP3    H258059   4.103   4.708   2.463  0.5522  0.1250 -0.0566
12190TIP3   OH258060   3.297   5.524   0.192 -0.4294 -0.3832  0.1699
12190TIP3    H158061   3.318   5.436   0.224 -0.5242 -0.7650 -0.7723
12190TIP3    H258062   3.212   5.515   0.150  0.2496 -0.2287 -1.3249
12191TIP3   OH258063   3.060   2.644   5.090  0.3722  0.1978  0.0681
12191TIP3    H158064   3.073   2.628   4.997  1.0885 -0.4842  0.2746
12191TIP3    H258065   3.148   2.660   5.124  0.2317 -0.4638  0.7844
12192TIP3   OH258066   4.551   6.319   2.708 -0.2060 -0.1642  0.0170
12192TIP3    H158067   4.479   6.266   2.743 -0.0715 -0.0248  0.5179
12192TIP3    H258068   4.620   6.312   2.775 -0.7667  1.9279  0.8670
12193TIP3   OH258069   2.556   0.375   1.812  0.1163 -0.4212 -0.0094
12193TIP3    H158070   2.576   0.467   1.792 -0.6693 -0.4320 -0.9258
12193TIP3    H258071   2.555   0.371   1.908 -1.1345  0.8388  0.0688
12194TIP3   OH258072   2.180   2.396  15.726 -0.2601 -0.1132 -0.2763
12194TIP3    H158073   2.087   2.400  15.704 -0.4488 -0.1298  0.4649
12194TIP3    H258074   2.220   2.468  15.677 -1.0238  1.2515  1.0141
12195TIP3   OH258075   1.905   0.141   5.852 -0.6669  0.3105 -0.2800
12195TIP3    H158076   1.990   0.179   5.827 -1.4567  1.7442 -0.9594
12195TIP3    H258077   1.850   0.218   5.870 -2.2183 -0.5366 -1.2256
12196TIP3   OH258078   6.491   5.186   0.111 -0.0860  0.7701 -0.8846
12196TIP3    H158079   6.518   5.263   0.060  2.0915  0.0926 -0.8448
12196TIP3    H258080   6.523   5.112   0.060  0.5075  0.0055  0.5580
12197TIP3   OH258081   3.523   6.238   4.345 -0.3603 -0.1573  0.4230
12197TIP3    H158082   3.431   6.256   4.325 -1.3012 -0.1378  4.1190
12197TIP3    H258083   3.525   6.224   4.439  3.6831  1.2763  0.7424
12198TIP3   OH258084   1.355   5.711   1.841  0.6372 -0.0688  0.2974
12198TIP3    H158085   1.296   5.785   1.825  1.3716  0.6961  1.0399
12198TIP3    H258086   1.296   5.638   1.860 -0.0977  0.7314  1.2498
12199TIP3   OH258087   0.895   4.699   5.571 -0.2848  0.1936  0.4919
12199TIP3    H158088   0.897   4.789   5.539  1.5257  0.3934  1.0386
12199TIP3    H258089   0.912   4.706   5.665  1.0359 -0.7555  0.3542
12200TIP3   OH258090   6.745   6.219   0.615  0.0148 -0.4357 -0.6918
12200TIP3    H158091   6.781   6.140   0.574  3.9401  2.0381 -2.5996
12200TIP3    H258092   6.787   6.223   0.700  0.0399 -0.2641 -0.7123
12201TIP3   OH258093   5.198   6.028  16.853 -0.2289  0.0949 -0.0261
12201TIP3    H158094   5.212   6.009  16.946 -0.7054  0.2174  0.0716
12201TIP3    H258095   5.169   6.119  16.852  2.0437  0.8814 -0.4828
12202TIP3   OH258096   6.226   6.707  13.333 -0.3259  0.0573 -0.1044
12202TIP3    H158097   6.155   6.769  13.351 -1.1989 -1.6404  3.1942
12202TIP3    H258098   6.300   6.739  13.384 -0.1755 -0.5437  0.0692
12203TIP3   OH258099   1.566   4.131  13.672  0.1640 -0.5255  0.4702
12203TIP3    H158100   1.638   4.193  13.664 -0.2662 -0.1252 -0.3258
12203TIP3    H258101   1.558   4.117  13.767  0.1012  0.8297  0.6843
12204TIP3   OH258102   2.640   4.691  15.323  0.2173  0.3822  0.2443
12204TIP3    H158103   2.627   4.763  15.385 -4.0734  0.2773 -0.2754
12204TIP3    H258104   2.613   4.612  15.371 -2.2941  0.1787 -1.3511
12205TIP3   OH258105   5.258   0.824   2.256 -0.1253  0.1371  0.0893
12205TIP3    H158106   5.210   0.826   2.173 -0.0369  1.2766  0.0498
12205TIP3    H258107   5.205   0.769   2.313 -0.8677  0.3995 -0.3304
12206TIP3   OH258108   2.047   2.395  14.302 -0.0639  0.0283  0.0151
12206TIP3    H158109   2.121   2.416  14.359 -0.7709 -1.3753  1.5213
12206TIP3    H258110   2.086   2.345  14.231  0.6350  0.6223 -0.0447
12207TIP3   OH258111   3.953   4.979  16.643 -0.5953 -0.9444  0.6846
12207TIP3    H158112   3.925   4.977  16.735  1.0030 -2.3684  1.1738
12207TIP3    H258113   4.048   4.986  16.647 -0.4888 -1.2300 -0.8854
12208TIP3   OH258114   4.597   3.723  14.558 -0.0607 -0.2731  0.4477
12208TIP3    H158115   4.610   3.630  14.578  0.4951 -0.8342 -2.1047
12208TIP3    H258116   4.627   3.732  14.468 -0.3555  2.3641  0.5340
12209TIP3   OH258117   2.553   3.539  10.275  0.0647  0.1477 -1.1310
12209TIP3    H158118   2.577   3.520  10.365 -1.4497  1.5621 -0.3770
12209TIP3    H258119   2.554   3.454  10.231 -1.2782 -0.8943  0.7512
12210TIP3   OH258120   4.386   3.610   2.708 -0.9557  0.0369 -0.1185
12210TIP3    H158121   4.417   3.700   2.698 -1.8907  0.2335 -1.6392
12210TIP3    H258122   4.308   3.618   2.764 -0.4476  0.0280  0.5981
12211TIP3   OH258123   3.264   6.785   2.030 -0.7378  0.4383  0.1850
12211TIP3    H158124   3.176   6.820   2.035 -1.8249 -1.8940 -0.9038
12211TIP3    H258125   3.270   6.747   1.942  0.3592 -1.7822  1.1204
12212TIP3   OH258126   1.467   3.239  11.462  0.0869  0.0601 -0.5551
12212TIP3    H158127   1.532   3.213  11.397  0.6822 -0.7782  0.3448
12212TIP3    H258128   1.445   3.157  11.507  0.5373  0.7931  1.0550
12213TIP3   OH258129   2.717   1.415   0.397  0.0508 -0.1078  0.1215
12213TIP3    H158130   2.698   1.355   0.325  2.0640 -0.5998 -0.0714
12213TIP3    H258131   2.681   1.372   0.475 -1.4257  0.0445 -0.4467
12214TIP3   OH258132   0.005   6.760  11.128 -0.5843  0.5026  0.3388
12214TIP3    H158133   0.086   6.744  11.080 -0.1816 -1.4093  1.5354
12214TIP3    H258134  -0.059   6.782  11.061  0.6856  1.0959 -0.7272
12215TIP3   OH258135   2.617   2.259  15.318  0.2430 -0.2367  0.4967
12215TIP3    H158136   2.640   2.176  15.360  1.3763 -0.4205 -0.4181
12215TIP3    H258137   2.676   2.264  15.242 -0.1558  1.1669  0.2540
12216TIP3   OH258138   3.342   2.579   5.071 -0.0692 -0.3188  0.3872
12216TIP3    H158139   3.305   2.491   5.068 -0.2590 -0.2397  0.4236
12216TIP3    H258140   3.398   2.579   5.149  0.7455 -0.7297 -0.1771
12217TIP3   OH258141   5.626   4.315  14.842 -0.1621  0.2732  0.1983
12217TIP3    H158142   5.608   4.228  14.877  0.7433 -0.1030 -0.2296
12217TIP3    H258143   5.610   4.374  14.916 -1.2759 -0.1952  0.3443
12218TIP3   OH258144   2.483   6.447   5.968 -0.2356 -0.1252 -0.1018
12218TIP3    H158145   2.484   6.469   6.061  0.3922 -1.7442  0.3120
12218TIP3    H258146   2.391   6.443   5.945 -0.4416 -0.9648  0.7914
12219TIP3   OH258147   4.560   4.405  15.508 -0.0993  0.4104  0.0913
12219TIP3    H158148   4.590   4.403  15.417  0.4368  1.8955  0.2039
12219TIP3    H258149   4.640   4.415  15.560 -0.2468 -1.9233  0.8754
12220TIP3   OH258150   1.794   6.121   0.721  0.5553  0.5251 -0.7196
12220TIP3    H158151   1.858   6.049   0.723  0.0574  0.0839 -0.2693
12220TIP3    H258152   1.838   6.193   0.767  1.7909  1.1625 -2.7999
12221TIP3   OH258153   4.443   6.633  16.810  0.2164 -0.3448 -0.6791
12221TIP3    H158154   4.429   6.609  16.902 -1.8267  0.0725 -0.8328
12221TIP3    H258155   4.444   6.549  16.764 -2.2365 -0.4529 -0.6536
12222TIP3   OH258156   0.172   5.414   0.243  0.2095  0.3512 -0.3571
12222TIP3    H158157   0.151   5.470   0.169  1.7478  2.7849  0.8974
12222TIP3    H258158   0.235   5.465   0.294 -1.0962 -0.9809  2.8577
12223TIP3   OH258159   5.740   4.410   1.118 -0.1390 -0.7942  0.3739
12223TIP3    H158160   5.688   4.467   1.062  0.3033 -0.6981  0.0572
12223TIP3    H258161   5.746   4.328   1.070  0.0699 -0.7774  0.3700
12224TIP3   OH258162   3.697   6.770  15.693 -0.6726 -0.0771  0.0397
12224TIP3    H158163   3.623   6.829  15.706  0.4132  1.1103  1.0747
12224TIP3    H258164   3.708   6.726  15.777  0.5208  0.6617  0.3015
12225TIP3   OH258165   1.725   3.550  14.543  0.2413  0.5085  0.4037
12225TIP3    H158166   1.648   3.502  14.572  0.4290 -0.0865 -0.0485
12225TIP3    H258167   1.762   3.587  14.623  0.8521 -1.2559  1.0027
12226TIP3   OH258168   1.133   1.431  13.458  0.3004  0.0789  0.3402
12226TIP3    H158169   1.051   1.464  13.420 -1.3926 -0.7781  2.9433
12226TIP3    H258170   1.201   1.484  13.419 -1.5817  1.3657 -1.3781
12227TIP3   OH258171   6.190   1.432  14.591 -0.5533 -0.1616 -0.2478
12227TIP3    H158172   6.150   1.519  14.587 -0.2251  0.0274  0.4774
12227TIP3    H258173   6.128   1.375  14.547 -1.5784  0.1501  0.7530
12228TIP3   OH258174   6.510   4.976   5.457  0.2374  0.1151  0.2927
12228TIP3    H158175   6.489   5.056   5.505  0.8006 -0.3996  1.4183
12228TIP3    H258176   6.508   5.003   5.365 -1.5045  0.9601  0.5405
12229TIP3   OH258177   5.132   6.150   5.042 -1.0687  0.6251 -0.1798
12229TIP3    H158178   5.103   6.145   5.133 -0.5005  1.2334  0.0402
12229TIP3    H258179   5.115   6.240   5.015 -0.3242  0.7213 -0.3557
12230TIP3   OH258180   1.973   4.396   2.609 -0.3411 -0.0313  0.3559
12230TIP3    H158181   1.921   4.440   2.677 -1.5996 -0.7379 -0.1034
12230TIP3    H258182   2.005   4.317   2.651 -0.1022  0.1316  0.4801
12231TIP3   OH258183   4.272   0.860  12.866  0.2510  0.0219 -0.3785
12231TIP3    H158184   4.181   0.834  12.856  0.2044  0.1961 -0.4100
12231TIP3    H258185   4.313   0.787  12.912 -0.0125  0.1471  0.0614
12232TIP3   OH258186   1.217   3.897  13.637  0.2327 -0.1139  0.0931
12232TIP3    H158187   1.164   3.821  13.612  0.9384 -0.6026  0.0452
12232TIP3    H258188   1.278   3.909  13.564  1.6540 -0.9355  1.0758
12233TIP3   OH258189   4.870   3.693   4.814  0.1383  0.5356 -0.2280
12233TIP3    H158190   4.910   3.770   4.774  0.6748 -0.1762 -1.0949
12233TIP3    H258191   4.927   3.621   4.790  1.0487  0.1779  2.6950
12234TIP3   OH258192   1.084   5.976   2.115  0.7314  0.1005 -0.1349
12234TIP3    H158193   1.080   5.969   2.211  0.1034 -1.7243 -0.2637
12234TIP3    H258194   1.011   5.923   2.084  1.3063  0.1616 -1.6548
12235TIP3   OH258195   4.852   3.839   2.005  0.2367  0.2258  0.2771
12235TIP3    H158196   4.815   3.822   2.092  0.8711 -0.2083  0.4652
12235TIP3    H258197   4.874   3.753   1.971 -0.3293  0.3612 -0.4706
12236TIP3   OH258198   5.380   2.050  15.554 -0.0001 -0.0165  0.0407
12236TIP3    H158199   5.394   2.119  15.490 -3.5779  1.1658  0.2867
12236TIP3    H258200   5.343   1.978  15.504  1.8871 -1.0930  0.1009
12237TIP3   OH258201   2.629   1.966   6.643  0.0206  0.2865 -0.6210
12237TIP3    H158202   2.603   1.877   6.667  0.1322  0.6779  1.0346
12237TIP3    H258203   2.709   1.982   6.693 -0.0502  1.3421 -0.8392
12238TIP3   OH258204   6.089   4.688  14.919 -0.9471 -0.3042  0.2438
12238TIP3    H158205   6.056   4.599  14.925 -3.1826  0.4147 -0.2305
12238TIP3    H258206   6.076   4.712  14.827 -0.2851  0.4948  0.3449
12239TIP3   OH258207   3.215   2.996  16.229  0.4473  0.7271  0.0922
12239TIP3    H158208   3.226   2.952  16.314 -1.6526  0.0346  0.0681
12239TIP3    H258209   3.210   2.924  16.166 -0.5108  1.0989 -0.2715
12240TIP3   OH258210   0.167   2.037   3.944  0.2895  0.3856  0.4295
12240TIP3    H158211   0.099   2.059   4.009  0.8012 -0.6933  1.3766
12240TIP3    H258212   0.137   1.953   3.907 -0.0461  1.0386 -0.8315
12241TIP3   OH258213   5.824   1.983   5.897  0.2251 -0.0147 -0.4742
12241TIP3    H158214   5.743   1.965   5.849  0.8053  0.0088 -1.4925
12241TIP3    H258215   5.814   2.073   5.928 -0.8665 -0.5909  0.9234
12242TIP3   OH258216   6.490   4.185  14.638  0.1274 -0.6742 -0.6660
12242TIP3    H158217   6.519   4.099  14.669  0.5792 -1.2249 -2.5427
12242TIP3    H258218   6.570   4.238  14.636 -0.3566  0.3328  1.9142
12243TIP3   OH258219   4.271   4.138  15.379 -0.5424 -0.0543  0.0176
12243TIP3    H158220   4.292   4.210  15.438  0.7088 -1.9052  1.9675
12243TIP3    H258221   4.185   4.107  15.408 -1.2985  0.8662 -1.1217
12244TIP3   OH258222   4.113   1.306   4.458 -0.1828 -0.1735 -0.3220
12244TIP3    H158223   4.196   1.335   4.496  0.2498 -2.2312  0.4413
12244TIP3    H258224   4.095   1.222   4.501 -1.5363 -0.8546 -2.0934
12245TIP3   OH258225   1.307   6.801   1.424  0.0692 -0.5086 -0.3901
12245TIP3    H158226   1.215   6.799   1.451  0.3924  2.4909  1.3594
12245TIP3    H258227   1.346   6.725   1.468 -1.5986 -2.2268 -1.6875
12246TIP3   OH258228   4.036   3.586  10.924  0.0724 -0.0223 -0.1612
12246TIP3    H158229   4.131   3.600  10.922  0.1961 -0.3442  1.5857
12246TIP3    H258230   4.020   3.518  10.859  1.6225 -2.7818  2.1220
12247TIP3   OH258231   5.610   5.676   2.702 -0.1003  0.0268 -0.5123
12247TIP3    H158232   5.695   5.711   2.728 -0.3534  1.4567 -1.4838
12247TIP3    H258233   5.630   5.613   2.632  0.1017  1.3344 -1.6687
12248TIP3   OH258234   1.276   6.634   3.714  0.1631 -0.4013 -0.2755
12248TIP3    H158235   1.316   6.718   3.692 -1.4688  0.8350  1.2264
12248TIP3    H258236   1.266   6.636   3.809 -1.3778 -1.5914 -0.3686
12249TIP3   OH258237   4.157   1.714  12.368  0.5895 -0.0651 -0.3529
12249TIP3    H158238   4.218   1.744  12.436  0.6401 -0.1725 -0.3511
12249TIP3    H258239   4.075   1.758  12.389  0.4796 -0.4495  0.0457
12250TIP3   OH258240   1.325   2.619   4.985  0.2466  0.1084  0.2901
12250TIP3    H158241   1.404   2.669   4.966  0.2295 -0.1243 -0.4497
12250TIP3    H258242   1.343   2.531   4.950 -0.6721  0.3038 -0.7464
12251TIP3   OH258243   3.971   2.552  13.489 -0.3624 -0.3815  0.1405
12251TIP3    H158244   4.007   2.639  13.508  0.9392 -1.0662  0.9428
12251TIP3    H258245   3.997   2.534  13.399  0.2507 -0.3581  0.3121
12252TIP3   OH258246   6.349   3.015  12.248 -0.2144 -0.0463  0.3268
12252TIP3    H158247   6.352   3.049  12.159 -0.2501  1.9502  1.0392
12252TIP3    H258248   6.310   2.928  12.239  1.4388 -0.6660 -1.7911
12253TIP3   OH258249   4.385   4.670  10.725  0.0877  0.4041  0.4866
12253TIP3    H158250   4.427   4.594  10.685 -0.8548  0.1852 -0.0996
12253TIP3    H258251   4.456   4.735  10.733  0.9299 -0.5747  1.1335
12254TIP3   OH258252   4.615   1.507  14.861  0.4502  0.0569  0.3297
12254TIP3    H158253   4.608   1.577  14.925 -1.1609  0.4259 -0.2009
12254TIP3    H258254   4.629   1.552  14.777  0.6077 -0.3054  0.1587
12255TIP3   OH258255   2.294   1.015  12.933 -0.2118  0.3536 -0.1530
12255TIP3    H158256   2.220   0.977  12.885 -0.1870  0.6588 -0.4387
12255TIP3    H258257   2.255   1.054  13.011 -0.5378  1.6239 -0.9243
12256TIP3   OH258258   2.341   5.203   3.860 -0.4381 -0.1540 -0.1153
12256TIP3    H158259   2.415   5.164   3.813 -0.5466  1.8913 -2.1437
12256TIP3    H258260   2.264   5.156   3.827 -0.2462 -0.8690  0.4336
12257TIP3   OH258261   3.095   2.680  16.672 -0.0729 -0.2451 -0.3028
12257TIP3    H158262   3.140   2.715  16.749 -0.5810  0.3924 -0.2911
12257TIP3    H258263   3.013   2.644  16.707 -0.3300  0.0960 -0.5472
12258TIP3   OH258264   4.160   1.478  16.932  0.2570 -0.0976 -0.6277
12258TIP3    H158265   4.240   1.477  16.879  0.4603 -3.4841 -0.4569
12258TIP3    H258266   4.090   1.489  16.868  0.7169  0.1701 -1.0988
12259TIP3   OH258267   2.913   6.000  16.330 -0.1103 -0.6604 -0.6319
12259TIP3    H158268   2.958   6.019  16.248 -1.8371  1.2559 -1.1954
12259TIP3    H258269   2.945   6.067  16.391 -1.1762 -0.1059 -0.6669
12260TIP3   OH258270   4.710   0.075  15.277  0.1747 -0.4050 -0.8787
12260TIP3    H158271   4.635   0.099  15.222 -0.4346 -2.0209 -0.8169
12260TIP3    H258272   4.696  -0.018  15.296  0.9873 -0.1651  1.0533
12261TIP3   OH258273   0.730   3.781  11.539 -0.4583  0.6112 -0.6448
12261TIP3    H158274   0.804   3.807  11.594  1.3718 -1.6457 -1.8512
12261TIP3    H258275   0.668   3.742  11.601  1.5447 -1.8489 -0.0045
12262TIP3   OH258276   3.541   5.175  12.974  0.0618 -0.0913 -0.0667
12262TIP3    H158277   3.561   5.183  13.067 -0.6737  1.2209  0.0046
12262TIP3    H258278   3.448   5.195  12.968  0.2653  0.5860 -1.1654
12263TIP3   OH258279   6.439   6.715  11.626 -0.7676 -0.4817  0.2056
12263TIP3    H158280   6.452   6.623  11.602  0.3282 -0.4908  0.7887
12263TIP3    H258281   6.379   6.749  11.559 -2.9902 -2.1570  1.2097
12264TIP3   OH258282   5.089   3.000   5.866 -0.1531 -0.4668 -0.6372
12264TIP3    H158283   4.999   3.005   5.898  0.5918  0.1687  1.5035
12264TIP3    H258284   5.082   2.953   5.782 -2.8184  2.1597 -2.0685
12265TIP3   OH258285   5.354   5.501   0.094 -0.7646  0.4563  0.8351
12265TIP3    H158286   5.445   5.530   0.085 -0.6143 -0.4889 -1.3237
12265TIP3    H258287   5.302   5.580   0.078 -0.3304  0.5677 -0.0757
12266TIP3   OH258288   4.061   4.201  11.769  0.0179 -0.4208 -0.6233
12266TIP3    H158289   3.969   4.205  11.796  0.3812  4.1945  0.9417
12266TIP3    H258290   4.108   4.174  11.848  0.1202 -1.0895 -0.9130
12267TIP3   OH258291   3.932   2.340   3.370  0.4707  0.0581  0.3965
12267TIP3    H158292   3.898   2.394   3.441 -3.1091 -0.4131 -0.7329
12267TIP3    H258293   3.915   2.391   3.291  2.2903 -0.3756 -0.3293
12268TIP3   OH258294   2.044   1.696   1.931 -0.6259 -0.8478  0.4888
12268TIP3    H158295   2.091   1.690   1.847 -0.0381 -0.6401  0.7927
12268TIP3    H258296   2.027   1.789   1.942 -0.8531 -0.8942  0.5190
12269TIP3   OH258297   3.991   2.154   4.113  0.2686 -0.3348 -0.0357
12269TIP3    H158298   3.941   2.187   4.038  1.0914  1.3245  0.1196
12269TIP3    H258299   3.989   2.225   4.177  1.2012 -0.9904  0.7441
12270TIP3   OH258300   3.683   0.673  11.101  0.0893  0.3133  0.1277
12270TIP3    H158301   3.677   0.766  11.123  2.1617  0.5508 -0.1217
12270TIP3    H258302   3.681   0.670  11.005  0.4057  0.1446  0.1248
12271TIP3   OH258303   1.297   4.546  12.004 -0.5600  0.9929  0.1588
12271TIP3    H158304   1.366   4.611  11.989  1.8239 -1.0095  1.6484
12271TIP3    H258305   1.276   4.555  12.097 -2.4458  1.5932 -0.2765
12272TIP3   OH258306   5.330   5.171  10.928  0.2496  0.2279 -0.4624
12272TIP3    H158307   5.310   5.085  10.965  0.2774 -1.0261 -3.1155
12272TIP3    H258308   5.424   5.181  10.937  0.1203  0.4688  0.7609
12273TIP3   OH258309   5.066   2.229  11.473  0.4081  0.2865  0.2277
12273TIP3    H158310   5.150   2.275  11.477  0.7458 -0.0616 -1.7253
12273TIP3    H258311   5.000   2.298  11.466  0.6733  0.5429  0.2779
12274TIP3   OH258312   2.749   1.689  14.121 -0.3462  0.2183  0.0433
12274TIP3    H158313   2.678   1.719  14.177 -1.4298  0.8933 -1.6120
12274TIP3    H258314   2.710   1.683  14.034  1.1720 -1.1439 -0.5943
12275TIP3   OH258315   4.097   1.291  16.096 -0.3586 -0.2781 -0.5912
12275TIP3    H158316   4.131   1.360  16.040  0.7818 -0.7183 -0.4689
12275TIP3    H258317   4.073   1.221  16.036 -1.4638  0.1848 -0.7105
12276TIP3   OH258318   2.163   6.502   2.088 -0.5660  0.4624 -0.4093
12276TIP3    H158319   2.079   6.457   2.078 -0.0609 -0.5724 -0.1054
12276TIP3    H258320   2.163   6.534   2.178 -0.6841  0.5896 -0.4534
12277TIP3   OH258321   4.104   6.643   0.941 -0.3866  0.3309  0.9650
12277TIP3    H158322   4.011   6.666   0.947 -0.0713  1.8843  0.2457
12277TIP3    H258323   4.107   6.552   0.971 -2.0094  0.5101  1.8197
12278TIP3   OH258324   3.680   4.868   5.135 -0.6117 -0.0593  0.1919
12278TIP3    H158325   3.728   4.788   5.154  0.5019  0.5379 -0.0437
12278TIP3    H258326   3.641   4.893   5.218 -0.2521 -0.3888  0.4613
12279TIP3   OH258327   3.915   0.190   4.997  0.1323 -0.3588 -0.6923
12279TIP3    H158328   3.856   0.170   4.924 -0.3863  1.0376 -0.6870
12279TIP3    H258329   3.946   0.104   5.027 -1.0489 -1.0587 -1.3923
12280TIP3   OH258330   3.340   4.883  11.503 -0.4871 -0.0547 -0.6336
12280TIP3    H158331   3.389   4.906  11.423 -1.2031  0.4041 -0.9460
12280TIP3    H258332   3.380   4.937  11.571 -1.0525  0.9154 -1.0422
12281TIP3   OH258333   3.837   0.731   3.054 -0.0082 -0.1253 -0.3183
12281TIP3    H158334   3.846   0.640   3.083 -1.1792 -0.3780 -0.6959
12281TIP3    H258335   3.743   0.742   3.042  0.0154  1.4311  0.6618
12282TIP3   OH258336   6.299   2.455   2.985  0.5167 -0.2665  0.3682
12282TIP3    H158337   6.368   2.438   2.920  0.2321 -2.8101  0.6300
12282TIP3    H258338   6.286   2.371   3.029 -0.8598  0.8372  2.2171
12283TIP3   OH258339   6.408   6.719  11.183  0.0584 -0.3358 -0.3779
12283TIP3    H158340   6.349   6.657  11.225 -1.0156  0.8488 -0.1058
12283TIP3    H258341   6.393   6.707  11.089 -1.3032  0.5919 -0.2964
12284TIP3   OH258342   0.115   4.507  13.287 -0.4753  0.3173  0.9304
12284TIP3    H158343   0.095   4.447  13.359 -0.6296  0.0942  0.7044
12284TIP3    H258344   0.066   4.586  13.307 -1.0750  0.0079  0.7208
12285TIP3   OH258345   0.456   6.223  15.990 -0.1107  0.0706 -0.3628
12285TIP3    H158346   0.524   6.239  15.924  0.2861 -0.1047 -0.0031
12285TIP3    H258347   0.451   6.305  16.039 -1.2812  0.6366 -1.3797
12286TIP3   OH258348   0.798   4.737  15.355  0.0781  0.3197 -0.2728
12286TIP3    H158349   0.815   4.678  15.282 -1.1166  0.1276 -0.4035
12286TIP3    H258350   0.869   4.802  15.350  2.6038 -2.1102  1.0180
12287TIP3   OH258351   6.170   1.594   4.355 -0.2916  0.3483  0.3536
12287TIP3    H158352   6.247   1.549   4.317 -1.1587  0.7751 -2.1177
12287TIP3    H258353   6.207   1.667   4.404  0.9327  0.8401 -1.1962
12288TIP3   OH258354   2.591   1.639  12.300 -0.1331 -0.0718 -0.1832
12288TIP3    H158355   2.572   1.710  12.239 -0.5298  1.1918  1.3585
12288TIP3    H258356   2.507   1.596  12.314 -0.1811  0.0854  0.0141
12289TIP3   OH258357   4.093   0.459   1.422  0.2338 -0.3924 -0.3250
12289TIP3    H158358   4.059   0.373   1.401  0.4043 -0.5883  0.1698
12289TIP3    H258359   4.163   0.474   1.358  2.2034 -1.8882  1.3123
12290TIP3   OH258360   3.360   3.652  13.885 -0.3377 -0.4710  0.3006
12290TIP3    H158361   3.266   3.659  13.870 -0.5716 -1.5584  1.0979
12290TIP3    H258362   3.392   3.598  13.812 -0.8556 -2.5878  1.5423
12291TIP3   OH258363   1.319   6.731  16.536 -0.1245 -0.2572  0.3303
12291TIP3    H158364   1.275   6.816  16.532  0.8812  0.4535  2.4965
12291TIP3    H258365   1.411   6.751  16.516  0.1428 -0.7914  0.9808
12292TIP3   OH258366   6.443   0.429  12.061 -0.0159  0.2659 -0.2951
12292TIP3    H158367   6.424   0.345  12.104  0.8798  0.4354  0.4632
12292TIP3    H258368   6.407   0.419  11.973 -0.7372 -0.5766  0.0811
12293TIP3   OH258369   5.169   2.433  15.671  0.6894  0.0884  0.2922
12293TIP3    H158370   5.113   2.478  15.734  1.0558  0.5331  0.3100
12293TIP3    H258371   5.175   2.343  15.703 -0.7881 -0.2263 -0.2325
12294TIP3   OH258372   1.312   3.327  13.072 -0.1194  0.4723  0.0890
12294TIP3    H158373   1.285   3.419  13.067  0.0599  0.6021  1.2109
12294TIP3    H258374   1.388   3.328  13.131 -0.8027 -0.5336  1.0167
12295TIP3   OH258375   5.726   0.676   1.330 -0.7392  0.5826 -0.9409
12295TIP3    H158376   5.727   0.770   1.350 -2.4214  0.3492  0.5117
12295TIP3    H258377   5.663   0.668   1.259 -2.4791  0.3619  0.5380
12296TIP3   OH258378   0.659   6.435  12.499  0.1730 -0.4271 -0.4041
12296TIP3    H158379   0.714   6.370  12.544  1.6899  0.1911 -1.2742
12296TIP3    H258380   0.644   6.398  12.413 -0.5129 -0.4333 -0.2874
12297TIP3   OH258381   3.257   4.989  12.229  0.1859  0.0234  0.2693
12297TIP3    H158382   3.316   4.968  12.301 -1.4899  1.0475  2.0366
12297TIP3    H258383   3.207   4.909  12.214 -0.1150  0.0930  0.9045
12298TIP3   OH258384   6.544   5.571  12.399 -0.2520  0.1991 -0.0323
12298TIP3    H158385   6.509   5.598  12.484  1.8670 -0.0242  0.9729
12298TIP3    H258386   6.582   5.650  12.362  0.2777 -0.0526 -0.0300
12299TIP3   OH258387   6.420   3.630  11.908 -0.0589  0.9583  0.3679
12299TIP3    H158388   6.345   3.574  11.927  0.3144  0.4174  0.2548
12299TIP3    H258389   6.410   3.654  11.816 -0.4416  1.4236  0.5245
12300TIP3   OH258390   5.499   0.198  11.207 -0.6324  0.1268 -0.0226
12300TIP3    H158391   5.565   0.255  11.167 -0.8458 -0.6437 -1.5221
12300TIP3    H258392   5.418   0.218  11.160 -1.8270  1.8616  2.5102
12301TIP3   OH258393   6.519   0.557  14.789 -0.0751  0.0697 -0.7099
12301TIP3    H158394   6.493   0.634  14.840 -0.2687 -0.5398  0.1212
12301TIP3    H258395   6.442   0.537  14.736 -0.7119 -0.6769  0.4624
12302TIP3   OH258396   1.423   2.083   4.708  0.2557  0.2377  0.0289
12302TIP3    H158397   1.374   2.117   4.783 -1.1433  0.8132 -1.0930
12302TIP3    H258398   1.435   1.990   4.727 -2.5687 -0.2688 -0.2625
12303TIP3   OH258399   4.689   5.501  13.254 -0.3197  0.3692  0.5949
12303TIP3    H158400   4.623   5.458  13.308 -0.0604 -0.2946  0.3954
12303TIP3    H258401   4.652   5.499  13.166  0.2258 -0.5951  0.3656
12304TIP3   OH258402   0.967   5.051   4.363 -0.3839  0.1216 -1.1000
12304TIP3    H158403   0.933   4.969   4.398  2.0841 -0.6875 -0.3668
12304TIP3    H258404   0.904   5.077   4.296 -1.4871 -2.1190 -1.0259
12305TIP3   OH258405   5.913   6.558   3.361 -0.4077 -0.2503  0.4043
12305TIP3    H158406   5.932   6.584   3.451  0.9244 -0.7184  0.2870
12305TIP3    H258407   5.950   6.629   3.308 -1.2562  0.0625  0.2105
12306TIP3   OH258408   5.257   1.251   2.818  0.7078  0.0182 -0.6624
12306TIP3    H158409   5.258   1.156   2.807  0.5933 -0.3018  1.6164
12306TIP3    H258410   5.176   1.269   2.867  0.5316  1.3517 -1.3903
12307TIP3   OH258411   4.221   2.388  12.932 -0.0803  0.0340 -0.0221
12307TIP3    H158412   4.300   2.345  12.963 -0.4551 -0.5233  0.1878
12307TIP3    H258413   4.242   2.481  12.931  0.5881 -0.1159 -0.0176
12308TIP3   OH258414   4.871   1.808   4.389 -0.3682 -0.0488 -0.2602
12308TIP3    H158415   4.899   1.889   4.433 -0.4838  1.6604 -3.1008
12308TIP3    H258416   4.811   1.767   4.451  0.6533  1.3522  1.7957
12309TIP3   OH258417   2.555   1.137   2.748  0.0960 -0.1157 -0.1062
12309TIP3    H158418   2.554   1.180   2.662 -0.6722  0.5442  0.2214
12309TIP3    H258419   2.639   1.092   2.751  1.5243  2.3350 -0.0092
12310TIP3   OH258420   6.106   5.542   5.070  0.1377  0.1205 -0.1353
12310TIP3    H158421   6.143   5.454   5.078 -1.7369 -0.5944  1.7490
12310TIP3    H258422   6.094   5.571   5.161 -1.3575  1.3753 -0.6867
12311TIP3   OH258423   1.823   3.881   1.182  0.4097  0.1177 -0.2134
12311TIP3    H158424   1.861   3.901   1.097 -0.6058  1.6459 -0.3472
12311TIP3    H258425   1.872   3.934   1.244  0.1459  0.1854 -0.0591
12312TIP3   OH258426   1.616   1.585   3.156  0.7486  0.0391 -0.3123
12312TIP3    H158427   1.567   1.652   3.109  1.3067 -0.3383 -1.4621
12312TIP3    H258428   1.554   1.549   3.220  0.3035  1.2926 -0.0208
12313TIP3   OH258429   3.789   6.324   3.342 -0.0651 -0.4542 -0.8072
12313TIP3    H158430   3.815   6.242   3.384 -1.0426 -0.5550 -0.3839
12313TIP3    H258431   3.845   6.330   3.265 -0.9194 -2.2095 -1.6184
12314TIP3   OH258432   4.766   1.024  12.582  0.2069  0.6320 -0.0702
12314TIP3    H158433   4.812   1.072  12.651 -1.9730  1.2615  1.0377
12314TIP3    H258434   4.781   0.932  12.602  1.2773  0.8075  0.0127
12315TIP3   OH258435   0.807   0.199   1.612  0.1038  0.5282  0.5939
12315TIP3    H158436   0.755   0.201   1.691 -0.3354 -0.4817  0.3508
12315TIP3    H258437   0.842   0.110   1.609  0.2126  0.5906 -0.2783
12316TIP3   OH258438   4.739   2.853  12.965 -0.3180  0.3146  0.2558
12316TIP3    H158439   4.745   2.948  12.955  1.1208  0.4064  1.6110
12316TIP3    H258440   4.829   2.822  12.952 -1.1012 -1.1516 -2.4117
12317TIP3   OH258441   4.516   4.679  11.293  0.1806  0.0036  0.0530
12317TIP3    H158442   4.578   4.752  11.293 -1.8082  1.8160  1.3597
12317TIP3    H258443   4.525   4.640  11.380  0.5730 -0.7627 -0.3176
12318TIP3   OH258444   4.984   5.146  16.307 -0.1218 -0.7887  0.5717
12318TIP3    H158445   4.927   5.217  16.335  0.0543 -1.4349  2.6992
12318TIP3    H258446   5.072   5.177  16.327  0.0311 -1.2052  0.5492
12319TIP3   OH258447   1.459   0.994  14.578  0.2968  1.2117  0.5856
12319TIP3    H158448   1.486   1.005  14.669 -0.0004  1.7092  0.6188
12319TIP3    H258449   1.502   1.066  14.532  2.0491 -0.1624 -0.0353
12320TIP3   OH258450   5.308   5.657  11.356 -0.6776 -0.2357  0.6509
12320TIP3    H158451   5.383   5.599  11.344  0.8166  1.8329 -0.4791
12320TIP3    H258452   5.321   5.696  11.443 -0.1862  0.4731  0.2609
12321TIP3   OH258453   2.998   1.189   5.170 -0.1183  0.0242 -0.4676
12321TIP3    H158454   2.976   1.261   5.111 -1.1161  0.4323  0.3807
12321TIP3    H258455   3.094   1.190   5.175 -0.0163  0.0051 -2.0279
12322TIP3   OH258456   0.636   2.865  10.353  0.1324 -0.4314  0.7073
12322TIP3    H158457   0.566   2.825  10.301 -0.2849  2.0880 -0.8043
12322TIP3    H258458   0.682   2.790  10.391 -1.7040 -2.2681 -0.4310
12323TIP3   OH258459   0.513   0.464  10.846  0.4355  0.0712  0.4887
12323TIP3    H158460   0.565   0.406  10.902 -0.5896  0.5798  2.0106
12323TIP3    H258461   0.546   0.447  10.758  0.6830 -2.3015  0.9587
12324TIP3   OH258462   0.955   3.942  16.321  0.1508 -0.0141 -0.3816
12324TIP3    H158463   0.878   3.965  16.270 -0.6992 -0.5957  0.6091
12324TIP3    H258464   1.022   4.006  16.294 -1.5176  2.3942  0.7952
12325TIP3   OH258465   2.856   2.331   2.536  0.1978 -0.2186  0.1062
12325TIP3    H158466   2.871   2.284   2.454 -0.8123  0.7702 -0.6618
12325TIP3    H258467   2.773   2.295   2.569 -0.4108  0.7860 -0.3179
12326TIP3   OH258468   0.810   0.396   5.244  0.4553 -0.1581  0.5191
12326TIP3    H158469   0.730   0.437   5.211 -0.1942 -0.7753  1.2657
12326TIP3    H258470   0.794   0.384   5.338  0.3461 -2.6012  0.2632
12327TIP3   OH258471   3.480   2.913   5.644 -0.2329 -0.2564 -0.3689
12327TIP3    H158472   3.501   2.999   5.609  0.7022  0.4045  1.6836
12327TIP3    H258473   3.389   2.898   5.618 -0.2346  1.1103 -1.2188
12328TIP3   OH258474   2.350   0.275   1.436  0.3561  0.4210 -0.4258
12328TIP3    H158475   2.292   0.337   1.480  1.0152 -0.2474  1.5251
12328TIP3    H258476   2.409   0.329   1.384 -0.0941  1.3087 -0.0353
12329TIP3   OH258477   4.582   6.793  14.247  0.7704  0.1769  0.0882
12329TIP3    H158478   4.535   6.819  14.326  2.1532  0.9961  0.6811
12329TIP3    H258479   4.620   6.708  14.268 -2.2300 -1.6398 -1.2045
12330TIP3   OH258480   6.125   4.341  15.582 -0.0688 -0.2551 -0.6851
12330TIP3    H158481   6.207   4.292  15.590 -0.8082 -1.2439  1.4667
12330TIP3    H258482   6.073   4.291  15.519 -0.7209 -2.2550  1.3004
12331TIP3   OH258483   1.054   2.584   4.899 -0.2516  0.2255  0.6565
12331TIP3    H158484   1.044   2.672   4.863 -0.3605 -0.7614 -2.0005
12331TIP3    H258485   1.139   2.585   4.942 -0.3806  1.6998  0.9091
12332TIP3   OH258486   6.157   6.243   5.608  0.1310 -0.1350  0.6501
12332TIP3    H158487   6.108   6.221   5.687  0.9462  0.1246  1.2411
12332TIP3    H258488   6.094   6.289   5.552  0.1297  1.8194  2.1478
12333TIP3   OH258489   2.837   0.740  13.483  0.2281  0.0335  0.5908
12333TIP3    H158490   2.930   0.736  13.504  0.5644  2.7716 -0.0967
12333TIP3    H258491   2.833   0.759  13.390 -1.0037  0.8100  0.7786
12334TIP3   OH258492   5.465   1.578  12.573 -0.7048  0.0537  0.3497
12334TIP3    H158493   5.445   1.644  12.640  2.1317  1.6847 -0.2231
12334TIP3    H258494   5.451   1.623  12.490 -0.1105 -0.5212 -0.0739
12335TIP3   OH258495   3.664   2.183  14.543 -0.9536 -0.0165 -0.5907
12335TIP3    H158496   3.638   2.091  14.544 -0.0380 -0.2829  0.2607
12335TIP3    H258497   3.734   2.187  14.478 -0.8860  0.0534 -0.5129
12336TIP3   OH258498   1.076   4.440   1.091 -0.0842  0.5023  0.0661
12336TIP3    H158499   1.077   4.523   1.044  0.2530  0.2607 -0.3601
12336TIP3    H258500   1.048   4.463   1.180  2.0823  1.4043  0.5640
12337TIP3   OH258501   5.314   5.687   2.065  0.6665 -0.6543 -0.4999
12337TIP3    H158502   5.360   5.641   1.995  2.4512 -0.0129  0.2025
12337TIP3    H258503   5.377   5.690   2.137 -0.4091  0.4616  0.4302
12338TIP3   OH258504   6.067   2.482   3.310  0.1138 -0.4252 -0.3912
12338TIP3    H158505   6.141   2.460   3.367 -1.3790  1.5989  2.5698
12338TIP3    H258506   6.071   2.577   3.301 -1.3112 -0.4266 -1.4215
12339TIP3   OH258507   2.039   1.717  15.993 -0.1860  0.5590  0.2421
12339TIP3    H158508   2.083   1.787  15.946  1.0185  1.0880  2.0615
12339TIP3    H258509   2.076   1.719  16.081 -1.7575 -0.9068  1.0128
12340TIP3   OH258510   3.841   2.139   5.038  0.4303  0.3333  0.0740
12340TIP3    H158511   3.782   2.091   5.095  1.1514 -3.4470 -2.0702
12340TIP3    H258512   3.800   2.136   4.952  1.6750  1.5312 -0.6139
12341TIP3   OH258513   0.332   1.466  12.034 -0.0639  0.3546  0.3625
12341TIP3    H158514   0.425   1.444  12.032 -0.7553 -3.0212 -0.3195
12341TIP3    H258515   0.301   1.431  12.117 -1.1183 -0.6081 -0.4137
12342TIP3   OH258516   0.144   4.956  16.198 -0.1229  0.4603 -0.1888
12342TIP3    H158517   0.085   5.004  16.139 -1.5931 -0.5045  0.4378
12342TIP3    H258518   0.152   4.869  16.159 -1.1912 -0.2249  0.9992
12343TIP3   OH258519   2.137   3.254  15.062 -0.2598  0.0172  0.1493
12343TIP3    H158520   2.042   3.242  15.065 -0.2911  0.4094  1.6204
12343TIP3    H258521   2.166   3.230  15.150  0.5215  3.6157  1.0071
12344TIP3   OH258522   2.426   6.332   0.922  0.3662  0.1228  0.1834
12344TIP3    H158523   2.354   6.328   0.984 -0.0587  2.1376 -0.1309
12344TIP3    H258524   2.503   6.353   0.974  0.7786 -1.9974  0.5146
12345TIP3   OH258525   6.744   0.256  14.157 -0.0153  0.1949  0.7400
12345TIP3    H158526   6.751   0.298  14.071 -1.5118 -0.8089  0.0826
12345TIP3    H258527   6.830   0.217  14.172  0.0499 -0.2563 -0.6546
12346TIP3   OH258528   4.333   1.337   4.210 -0.0441  0.1236 -0.0385
12346TIP3    H158529   4.314   1.407   4.147 -0.0183  0.2867  0.1365
12346TIP3    H258530   4.290   1.364   4.291  1.0154  0.5569  0.4030
12347TIP3   OH258531   1.464   0.308  10.772  0.3424 -0.8685 -0.1057
12347TIP3    H158532   1.393   0.289  10.710 -1.3070 -1.7214  1.9143
12347TIP3    H258533   1.518   0.374  10.728 -0.2411 -2.0221 -2.7590
12348TIP3   OH258534   5.753   2.363  12.666  0.1496 -0.1035  0.4464
12348TIP3    H158535   5.782   2.338  12.578  1.4738 -0.9274  1.0750
12348TIP3    H258536   5.691   2.434  12.652  1.1991  0.5593 -1.1031
12349TIP3   OH258537   0.979   4.989  12.953  0.3881  0.3799 -0.2102
12349TIP3    H158538   1.052   5.033  12.909 -0.1182  0.6338 -0.8071
12349TIP3    H258539   1.010   4.976  13.043  1.4667 -0.2044 -0.6447
12350TIP3   OH258540   6.056   6.688  11.628 -0.0261  0.2664 -0.5022
12350TIP3    H158541   6.107   6.626  11.680  0.2813 -1.0342 -2.2809
12350TIP3    H258542   5.969   6.649  11.622 -0.0293  0.3571 -1.0433
12351TIP3   OH258543   2.057   4.202  17.162  0.1210 -0.2193 -0.5391
12351TIP3    H158544   1.968   4.209  17.196  0.4819 -1.0190  0.6193
12351TIP3    H258545   2.112   4.190  17.240  1.2338  0.1104 -1.2439
12352TIP3   OH258546   0.423   4.420  14.337 -0.2368  0.2517 -0.2091
12352TIP3    H158547   0.391   4.483  14.401  1.0017 -1.2353  2.0053
12352TIP3    H258548   0.344   4.377  14.303 -0.8902 -0.0059  1.5340
12353TIP3   OH258549   0.885   1.484  16.070 -0.4130  0.5460  0.0797
12353TIP3    H158550   0.873   1.393  16.095  0.4510  0.1078 -1.0062
12353TIP3    H258551   0.810   1.504  16.013 -0.3381  0.3592 -0.0842
12354TIP3   OH258552   0.023   6.215  10.291 -0.1084  0.5519 -0.0614
12354TIP3    H158553   0.030   6.119  10.284  1.3607  0.5968  0.3702
12354TIP3    H258554   0.001   6.244  10.202  0.6659 -0.1163 -0.4867
12355TIP3   OH258555   4.778   3.958  11.177  0.1983  0.1152  0.2049
12355TIP3    H158556   4.753   3.970  11.085 -0.5636 -4.5177 -0.4487
12355TIP3    H258557   4.856   4.012  11.188  0.4733  0.6570 -3.2379
12356TIP3   OH258558   4.556   3.622   1.424 -0.7794 -0.2694  0.1321
12356TIP3    H158559   4.517   3.673   1.494  2.3804  2.9907 -0.1462
12356TIP3    H258560   4.513   3.653   1.344 -0.6742  0.0337  0.1922
12357TIP3   OH258561   1.422   4.958  13.114  0.5278  0.0427  0.3003
12357TIP3    H158562   1.373   4.911  13.181 -0.8519 -0.2389 -0.8411
12357TIP3    H258563   1.355   4.989  13.053  1.7328  0.0616 -1.0708
12358TIP3   OH258564   4.472   5.383  14.979 -0.3553  0.2273  0.1686
12358TIP3    H158565   4.539   5.445  14.953 -2.8657  2.8164 -0.6485
12358TIP3    H258566   4.462   5.325  14.904 -0.3559  1.0441 -0.4669
12359TIP3   OH258567   4.688   6.163  14.558  0.4525 -0.1077 -0.6511
12359TIP3    H158568   4.676   6.147  14.651  0.5999 -2.0654 -0.9347
12359TIP3    H258569   4.774   6.126  14.538 -0.0312 -0.6786 -1.7590
12360TIP3   OH258570   3.616   2.344   4.851 -0.2912 -0.3655  0.1547
12360TIP3    H158571   3.663   2.408   4.905 -2.0071  1.3033 -0.2171
12360TIP3    H258572   3.546   2.313   4.908 -0.6966 -0.3765 -0.3535
12361TIP3   OH258573   2.529   6.685   0.761  0.3568  0.6067  0.2558
12361TIP3    H158574   2.567   6.771   0.745 -0.3366  1.1789  1.5078
12361TIP3    H258575   2.464   6.700   0.830 -1.1342 -0.5831 -0.8274
12362TIP3   OH258576   1.607   1.990   3.479  0.6824  0.2132  0.0580
12362TIP3    H158577   1.675   1.922   3.476  1.2303  0.6580  1.4742
12362TIP3    H258578   1.525   1.943   3.465  1.0897 -0.6793  0.6036
12363TIP3   OH258579   6.793   0.100   5.872 -0.4605  0.5801  0.0036
12363TIP3    H158580   6.712   0.067   5.833 -0.1034  0.3885 -0.5785
12363TIP3    H258581   6.816   0.177   5.821 -0.2939  0.6606  0.1948
12364TIP3   OH258582   3.646   4.490   1.986  0.0627  0.1104  0.4819
12364TIP3    H158583   3.578   4.423   1.999  0.4208 -0.4407 -0.4245
12364TIP3    H258584   3.598   4.573   1.985 -1.0357 -0.4185 -2.8911
12365TIP3   OH258585   1.952   5.070  16.284  0.0674 -0.6539 -0.1531
12365TIP3    H158586   1.887   5.072  16.213  0.8033  0.8016 -0.8331
12365TIP3    H258587   1.978   5.162  16.295  1.2168 -1.0775  0.8459
12366TIP3   OH258588   3.838   2.602   1.385  0.2372  0.1077 -0.4925
12366TIP3    H158589   3.895   2.656   1.330  1.1143 -0.7323 -0.4315
12366TIP3    H258590   3.894   2.574   1.458 -0.4801 -0.0739  0.0080
12367TIP3   OH258591   1.268   5.972  16.572  0.4209 -0.2257 -0.5636
12367TIP3    H158592   1.249   5.954  16.664 -0.4102  1.3910 -0.3806
12367TIP3    H258593   1.203   6.038  16.547  0.3267 -0.9705 -2.4529
12368TIP3   OH258594   2.220   2.200  11.562 -0.2294  0.2161  0.2450
12368TIP3    H158595   2.139   2.203  11.613  0.6356 -1.2357  1.8324
12368TIP3    H258596   2.280   2.147  11.615  1.2678 -0.0526 -1.5795
12369TIP3   OH258597   2.175   6.071  13.076  0.1124 -0.3457  0.3965
12369TIP3    H158598   2.126   6.142  13.036 -0.9607 -0.8236  0.8231
12369TIP3    H258599   2.150   5.993  13.027 -0.2748 -0.7415  1.1958
12370TIP3   OH258600   0.315   0.868   4.503  0.3199  0.1591 -0.3371
12370TIP3    H158601   0.368   0.788   4.494  0.6624 -0.0565  2.5761
12370TIP3    H258602   0.355   0.916   4.575 -0.3724  2.6229 -1.4861
12371TIP3   OH258603   5.022   1.699  12.662 -0.2625 -0.9867  0.6061
12371TIP3    H158604   5.068   1.642  12.602  0.2607  0.7210 -0.6913
12371TIP3    H258605   5.060   1.680  12.748  2.9480  0.3569 -0.3993
12372TIP3   OH258606   1.103   6.781   1.609 -0.1975 -0.5830  0.4362
12372TIP3    H158607   1.131   6.704   1.658  0.0082  0.4153  1.9310
12372TIP3    H258608   1.008   6.772   1.602 -0.1861 -0.9148  0.7035
12373TIP3   OH258609   0.216   6.656  15.979 -0.6661 -0.2911 -0.9896
12373TIP3    H158610   0.235   6.724  15.915  1.5331  0.1514  0.0352
12373TIP3    H258611   0.181   6.703  16.054  0.8479 -0.2364 -0.2822
12374TIP3   OH258612   6.607   1.498  12.663  0.4193 -0.1455 -0.0800
12374TIP3    H158613   6.533   1.556  12.644  0.1602 -0.3963  0.1476
12374TIP3    H258614   6.619   1.446  12.583 -0.6948 -1.2324  0.4278
12375TIP3   OH258615   5.223   2.024  12.645 -0.0775  0.2953  0.4751
12375TIP3    H158616   5.140   2.051  12.604  0.0702  0.0821  0.0372
12375TIP3    H258617   5.290   2.068  12.593  0.1263 -0.2635  0.2594
12376TIP3   OH258618   4.693   3.076  16.913 -0.1776  0.2936 -0.0848
12376TIP3    H158619   4.764   3.139  16.924 -1.6477  2.2272 -0.9657
12376TIP3    H258620   4.618   3.117  16.957 -1.1352 -0.9372 -0.5129
12377TIP3   OH258621   6.559   0.024  16.730 -0.4159 -0.4856 -0.6588
12377TIP3    H158622   6.634  -0.026  16.700 -0.1007 -0.7084  0.4374
12377TIP3    H258623   6.588   0.064  16.812 -2.1010 -2.2594  0.9073
12378TIP3   OH258624   0.678   0.363   0.909  0.2834  0.1330 -0.5882
12378TIP3    H158625   0.739   0.414   0.855 -0.3383  0.7809 -0.7021
12378TIP3    H258626   0.732   0.297   0.951  1.3526  1.6391  0.5251
12379TIP3   OH258627   0.234   6.452  11.841 -0.0706  0.1271 -0.1426
12379TIP3    H158628   0.260   6.538  11.808  1.2036 -0.4085 -0.6396
12379TIP3    H258629   0.232   6.462  11.936 -0.7921  0.9163 -0.2303
12380TIP3   OH258630   2.317   2.437  14.506 -0.3875  0.4267  0.3466
12380TIP3    H158631   2.301   2.525  14.541 -0.2303  0.1300  1.1913
12380TIP3    H258632   2.389   2.448  14.444 -0.8750  1.0158 -0.1331
12381TIP3   OH258633   4.885   1.125   3.738  0.3060  0.3810  0.0397
12381TIP3    H158634   4.794   1.152   3.729  0.4431  0.9469  0.2770
12381TIP3    H258635   4.928   1.199   3.783  0.7677 -0.0981  0.4023
12382TIP3   OH258636   3.722   5.035   1.512  0.3227 -0.3056  0.3997
12382TIP3    H158637   3.729   5.020   1.606  2.8203  0.0934  0.3599
12382TIP3    H258638   3.778   4.967   1.473 -1.1685 -0.8644 -0.8783
12383TIP3   OH258639   4.506   0.153  12.192  0.2462 -0.2124 -0.3230
12383TIP3    H158640   4.479   0.095  12.121 -0.9392  1.5620 -1.4244
12383TIP3    H258641   4.554   0.097  12.253  0.1131 -2.0793 -1.8450
12384TIP3   OH258642   4.784   0.605  16.338  0.0399 -0.0777  0.1784
12384TIP3    H158643   4.813   0.523  16.298 -1.9658  0.1983 -2.0693
12384TIP3    H258644   4.799   0.671  16.270 -1.0561  0.8980  0.8474
12385TIP3   OH258645   1.748   0.824  14.593  0.2284 -0.2093 -0.4555
12385TIP3    H158646   1.691   0.818  14.669 -0.3683 -1.0409 -0.9516
12385TIP3    H258647   1.691   0.855  14.522  0.6995  0.2360 -0.6467
12386TIP3   OH258648   3.274   6.585  13.132 -0.2891  0.0597  0.7927
12386TIP3    H158649   3.270   6.510  13.074  0.8784  0.5840 -0.0010
12386TIP3    H258650   3.325   6.555  13.207  0.9847  0.3085  0.0507
12387TIP3   OH258651   1.084   1.561  14.845 -0.1453 -0.4384  0.5278
12387TIP3    H158652   1.024   1.540  14.774  0.5792  0.2548 -0.3032
12387TIP3    H258653   1.148   1.620  14.807  0.2565 -0.0369  1.7623
12388TIP3   OH258654   5.280   0.070  14.487  0.3848  0.8216 -0.0488
12388TIP3    H158655   5.311  -0.010  14.528  1.0616  1.9049  1.6373
12388TIP3    H258656   5.185   0.059  14.481  0.4501 -0.0106  0.3783
12389TIP3   OH258657   5.833   4.188   2.832  0.5193 -0.7320  0.1778
12389TIP3    H158658   5.896   4.250   2.868 -0.0540  0.6429 -1.0625
12389TIP3    H258659   5.748   4.216   2.865  0.4581 -2.3285  1.5139
12390TIP3   OH258660   6.256   4.066  12.266  0.1154  0.1957 -0.2148
12390TIP3    H158661   6.295   4.136  12.213  1.0186 -0.1959 -0.0808
12390TIP3    H258662   6.283   3.985  12.223 -0.3224 -0.0940  0.0459
12391TIP3   OH258663   2.801   5.215   4.845 -0.3499 -0.3161  0.1678
12391TIP3    H158664   2.743   5.278   4.803 -0.5820 -0.8254 -0.2816
12391TIP3    H258665   2.889   5.252   4.833 -0.6323  1.0283  1.8287
12392TIP3   OH258666   6.195   2.384  12.339  0.5128 -0.3061  0.3586
12392TIP3    H158667   6.281   2.343  12.335  0.8378  0.3325  0.6603
12392TIP3    H258668   6.136   2.315  12.371  0.4593 -1.4287 -1.9133
12393TIP3   OH258669   5.490   0.239  14.826  0.0873  0.0976 -0.0077
12393TIP3    H158670   5.512   0.302  14.757  0.3354  0.2664  0.2206
12393TIP3    H258671   5.401   0.212  14.806  0.3069 -0.1800 -0.6363
12394TIP3   OH258672   5.338   3.413  11.771 -0.4958  0.2767  0.0991
12394TIP3    H158673   5.353   3.489  11.828 -0.3706 -0.6275  1.3199
12394TIP3    H258674   5.256   3.375  11.804  0.0213 -0.7448  0.2415
12395TIP3   OH258675   6.127   3.340   2.688 -0.1239 -0.3284  0.0871
12395TIP3    H158676   6.071   3.296   2.752 -2.2370  1.4489 -0.3727
12395TIP3    H258677   6.182   3.398   2.740  0.5156 -1.2706  0.4804
12396TIP3   OH258678   0.038   3.585   0.093  0.2412  0.6574  0.7273
12396TIP3    H158679   0.037   3.639   0.172 -1.9899  0.8627  0.5999
12396TIP3    H258680   0.064   3.645   0.023 -0.6518  1.1972  0.8481
12397TIP3   OH258681   1.697   1.084  15.947  0.2237  0.0249 -0.6954
12397TIP3    H158682   1.760   1.014  15.934  0.6238  0.3996 -0.8164
12397TIP3    H258683   1.726   1.154  15.888  0.8424  0.9495  0.6280
12398TIP3   OH258684   4.168   0.908  16.345  0.1059 -0.1889 -0.2472
12398TIP3    H158685   4.233   0.936  16.281 -1.9587  0.4006 -2.2379
12398TIP3    H258686   4.175   0.813  16.347  2.3837 -0.0737  1.2165
12399TIP3   OH258687   4.672   5.174  16.163  0.6422  0.2179  0.0646
12399TIP3    H158688   4.713   5.092  16.192 -0.9174 -0.7310 -0.2814
12399TIP3    H258689   4.628   5.208  16.240 -0.4459 -0.3910 -0.2616
12400TIP3   OH258690   0.164   1.683   4.299  0.0712  0.0695 -0.6471
12400TIP3    H158691   0.073   1.664   4.323  0.4221 -1.9267 -0.6987
12400TIP3    H258692   0.176   1.776   4.319 -1.3704 -0.1157  1.3496
12401TIP3   OH258693   2.781   4.899   5.707 -0.1668 -0.2753 -0.5606
12401TIP3    H158694   2.805   4.990   5.690  1.3702 -0.0782  2.0166
12401TIP3    H258695   2.860   4.860   5.745 -1.1452 -2.3581 -0.5051
12402TIP3   OH258696   6.113   3.518   3.234 -0.1329 -0.3035 -0.5162
12402TIP3    H158697   6.178   3.448   3.238 -0.1147 -0.2671 -0.1796
12402TIP3    H258698   6.091   3.536   3.325 -1.3590 -1.0111 -0.6444
12403TIP3   OH258699   3.640   4.427  15.744 -0.3515 -0.9282 -0.4142
12403TIP3    H158700   3.616   4.386  15.827 -0.6524 -0.4185 -0.2513
12403TIP3    H258701   3.736   4.432  15.747 -0.4311  0.3897  0.5311
12404TIP3   OH258702   3.345   1.014  11.385 -0.1910 -0.6529 -0.0924
12404TIP3    H158703   3.318   0.925  11.363 -2.4851 -0.6851  2.3105
12404TIP3    H258704   3.334   1.063  11.303 -1.1100 -2.1091 -0.8968
12405TIP3   OH258705   1.074   6.184  11.036  0.2083  0.3798 -0.2823
12405TIP3    H158706   1.024   6.127  10.978  1.4010  0.3845 -1.3440
12405TIP3    H258707   1.141   6.128  11.074 -0.4609  0.4102  1.0236
12406TIP3   OH258708   1.696   4.893  13.696 -0.7320  0.1155 -0.5654
12406TIP3    H158709   1.712   4.882  13.790  1.0976  0.4264 -0.7975
12406TIP3    H258710   1.609   4.856  13.682  0.6058 -3.9803  0.5069
12407TIP3   OH258711   4.875   5.431   0.866  0.4230  0.2219 -0.1151
12407TIP3    H158712   4.867   5.417   0.772 -2.4869 -0.9188  0.2103
12407TIP3    H258713   4.896   5.345   0.902 -2.0921 -0.1915  0.5313
12408TIP3   OH258714   6.665   0.112   4.332 -0.2893  0.1911 -0.0293
12408TIP3    H158715   6.654   0.143   4.242 -0.4690  1.3534  0.3651
12408TIP3    H258716   6.648   0.190   4.385 -0.2158 -0.4889  1.0094
12409TIP3   OH258717   5.019   2.369  11.838 -0.1986 -0.4113  0.3421
12409TIP3    H158718   5.099   2.418  11.817 -0.5330 -0.3232 -0.8097
12409TIP3    H258719   4.969   2.369  11.757 -0.1508 -2.8224  0.2318
12410TIP3   OH258720   1.787   2.792   4.519 -0.0039 -0.0678  0.0849
12410TIP3    H158721   1.791   2.801   4.614 -1.2448  0.6310  0.0867
12410TIP3    H258722   1.878   2.806   4.490  0.4391 -0.5894  1.1682
12411TIP3   OH258723   1.329   4.185   4.539  0.0453 -0.2573  0.1249
12411TIP3    H158724   1.288   4.158   4.621 -1.6224  2.2326  0.2239
12411TIP3    H258725   1.288   4.130   4.472 -0.7994 -0.2763  0.6420
12412TIP3   OH258726   6.457   0.101   1.098  0.4946 -0.2547  0.3454
12412TIP3    H158727   6.501   0.022   1.128 -0.8818 -0.3718  2.2682
12412TIP3    H258728   6.484   0.169   1.160 -0.8181  0.0016  0.6734
12413TIP3   OH258729   3.576   0.500   2.544  0.0734 -0.1230  0.8535
12413TIP3    H158730   3.519   0.551   2.487 -0.7833 -1.0685  0.8421
12413TIP3    H258731   3.574   0.547   2.627  1.6303  1.4799  0.0590
12414TIP3   OH258732   5.011   1.968  15.253 -0.6661  0.2178 -0.2963
12414TIP3    H158733   5.089   2.022  15.264  0.0881 -0.7225 -0.7696
12414TIP3    H258734   5.008   1.913  15.331 -1.3732  0.8702  0.1401
12415TIP3   OH258735   2.690   3.214  10.781 -0.2501  0.4739 -0.0544
12415TIP3    H158736   2.719   3.124  10.791  2.4978  1.0030 -2.1099
12415TIP3    H258737   2.604   3.208  10.738  0.9445 -1.1974 -2.4003
12416TIP3   OH258738   2.082   6.101   4.478  1.0021 -0.0539 -0.2143
12416TIP3    H158739   2.012   6.118   4.415 -1.4664 -2.8277  1.4782
12416TIP3    H258740   2.112   6.012   4.457  1.6965 -0.1569  1.0976
12417TIP3   OH258741   5.251   5.227  16.225 -0.2562  0.3505 -0.0932
12417TIP3    H158742   5.247   5.322  16.228 -2.6382  0.3245 -0.7200
12417TIP3    H258743   5.220   5.204  16.138  1.4142 -1.0056 -0.3991
12418TIP3   OH258744   5.303   4.714   3.095  0.2057 -0.1964  0.0964
12418TIP3    H158745   5.317   4.620   3.112  0.4391 -0.7052 -2.5030
12418TIP3    H258746   5.216   4.718   3.054 -0.0100  0.8021  0.6239
12419TIP3   OH258747   5.766   5.505   1.087  0.4894  0.0334  0.1122
12419TIP3    H158748   5.777   5.594   1.055 -1.3676  0.7120  1.1839
12419TIP3    H258749   5.730   5.515   1.176  0.7928 -1.7765  0.4947
12420TIP3   OH258750   4.824   5.824  11.793 -0.0063  0.1082  0.0021
12420TIP3    H158751   4.863   5.781  11.716 -0.0410 -0.1127  0.1080
12420TIP3    H258752   4.888   5.890  11.818 -0.2597  0.5844 -0.5771
12421TIP3   OH258753   1.774   6.262  12.756 -0.0049 -0.3233 -0.4071
12421TIP3    H158754   1.836   6.246  12.827  0.2667 -0.0500 -0.5828
12421TIP3    H258755   1.689   6.268  12.800 -0.1673 -2.3885 -0.3386
12422TIP3   OH258756   4.355   3.410   5.633  0.0514 -0.5053 -0.0903
12422TIP3    H158757   4.327   3.465   5.707 -0.8126 -0.8196 -0.1800
12422TIP3    H258758   4.450   3.404   5.643  0.2160  1.3040 -0.2785
12423TIP3   OH258759   6.784   3.916  15.484  0.3495  0.2011  0.4483
12423TIP3    H158760   6.876   3.890  15.488  0.7030  1.0959 -1.0745
12423TIP3    H258761   6.782   3.986  15.418 -1.1329  1.4268  1.7109
12424TIP3   OH258762   3.337   4.319  14.959 -0.0810 -0.0027  0.1076
12424TIP3    H158763   3.414   4.299  15.012  0.3285  0.6768 -0.2331
12424TIP3    H258764   3.326   4.413  14.966 -1.7110 -0.2371  1.2841
12425TIP3   OH258765   2.591   2.916   4.843 -0.1567 -0.0252 -0.4385
12425TIP3    H158766   2.624   2.925   4.754  0.4662  0.1457 -0.1965
12425TIP3    H258767   2.622   2.830   4.872 -1.2048 -0.5066 -0.7331
12426TIP3   OH258768   3.676   4.532  15.227  0.0395  0.2489  0.1848
12426TIP3    H158769   3.650   4.445  15.196 -0.4416  0.6830 -0.6473
12426TIP3    H258770   3.642   4.537  15.316 -0.0683 -0.3517  0.1830
12427TIP3   OH258771   5.448   0.538   4.805 -0.1384 -0.0059  0.1057
12427TIP3    H158772   5.494   0.565   4.885  0.8153  0.1620 -0.4813
12427TIP3    H258773   5.500   0.465   4.771 -0.7785 -0.3509 -0.1410
12428TIP3   OH258774   1.466   3.096   1.496  0.6032  0.1661 -0.1223
12428TIP3    H158775   1.375   3.069   1.506  0.3699  1.1187  0.5025
12428TIP3    H258776   1.479   3.103   1.402  0.0662 -0.0954 -0.2212
12429TIP3   OH258777   1.418   4.045   0.274  0.2992 -0.2203 -0.0387
12429TIP3    H158778   1.371   4.110   0.327 -0.4872 -0.3349 -0.5717
12429TIP3    H258779   1.351   4.010   0.215  1.1644 -0.0456 -1.1508
12430TIP3   OH258780   2.576   3.328   1.343 -0.0282  0.0465 -0.4598
12430TIP3    H158781   2.499   3.378   1.316  0.4012  1.4608  0.8100
12430TIP3    H258782   2.649   3.369   1.296 -0.0285 -1.5719 -2.0127
12431TIP3   OH258783   0.763   4.214   5.364  0.7437  0.6028  0.1041
12431TIP3    H158784   0.833   4.154   5.390 -0.1391  0.0117  1.1840
12431TIP3    H258785   0.802   4.301   5.372  0.8974  0.3881  2.3171
12432TIP3   OH258786   5.387   5.382  13.549 -0.2074  0.1635  0.1969
12432TIP3    H158787   5.397   5.411  13.459 -1.1767  0.3519  0.1417
12432TIP3    H258788   5.299   5.345  13.554 -0.1667  0.1448  1.0629
12433TIP3   OH258789   3.108   2.508   1.570  0.3434  0.4004  0.1092
12433TIP3    H158790   3.191   2.495   1.616  0.4706 -0.9150 -0.4497
12433TIP3    H258791   3.041   2.473   1.629  0.5873 -2.1058 -0.9690
12434TIP3   OH258792   5.630   3.587   4.739  1.0181 -0.3131  0.2564
12434TIP3    H158793   5.669   3.527   4.803  0.2492 -0.8705  0.2260
12434TIP3    H258794   5.616   3.533   4.661  1.3512  0.2003 -0.1687
12435TIP3   OH258795   2.176   0.331   5.776 -0.6166  0.7933  0.4597
12435TIP3    H158796   2.145   0.312   5.687 -2.1165 -1.4398  1.3593
12435TIP3    H258797   2.242   0.399   5.765 -1.3210  1.1289 -2.2740
12436TIP3   OH258798   4.304   1.153   1.689  0.0802 -0.0868 -0.5413
12436TIP3    H158799   4.361   1.193   1.624  0.7310  0.2895  0.2462
12436TIP3    H258800   4.216   1.180   1.664  0.3777  0.5402 -0.9180
12437TIP3   OH258801   3.166   3.824   2.464  0.1664  0.1461  0.1403
12437TIP3    H158802   3.255   3.859   2.463  0.5857 -0.9104 -1.0605
12437TIP3    H258803   3.175   3.734   2.433 -1.6911  0.9969 -3.3100
12438TIP3   OH258804   0.386   3.141   4.905 -0.6605  0.1496  0.0490
12438TIP3    H158805   0.367   3.047   4.910 -0.9517  0.1566 -0.7886
12438TIP3    H258806   0.367   3.164   4.815  0.7333  0.7327 -0.1149
12439TIP3   OH258807   2.727   5.406  14.475  0.5874 -0.1193 -0.9236
12439TIP3    H158808   2.803   5.463  14.479  0.2757  0.2796 -0.5825
12439TIP3    H258809   2.688   5.412  14.562  0.9397 -1.3963 -0.6473
12440TIP3   OH258810   6.501   1.167  16.515  0.3433 -0.1514 -0.2255
12440TIP3    H158811   6.537   1.105  16.578  0.4104 -0.7672 -0.8715
12440TIP3    H258812   6.470   1.240  16.569  0.8345 -0.4601  0.4806
12441TIP3   OH258813   3.144   5.083   6.544 -0.3730 -0.2723 -0.8315
12441TIP3    H158814   3.089   5.131   6.482 -2.5470  0.1380  1.3031
12441TIP3    H258815   3.104   4.996   6.549 -0.2818 -0.2673  0.0534
12442TIP3   OH258816   3.921   3.724   5.488  0.4071 -0.2172 -0.0155
12442TIP3    H158817   3.988   3.789   5.467 -0.7287  0.9783 -0.0613
12442TIP3    H258818   3.889   3.750   5.575  0.2056 -0.9506  0.1368
12443TIP3   OH258819   5.721   3.165  11.995 -0.7757  0.2167  0.0015
12443TIP3    H158820   5.680   3.079  11.988 -2.2612  0.8144  1.0048
12443TIP3    H258821   5.808   3.147  12.031 -1.2441 -0.8355  0.6546
12444TIP3   OH258822   2.080   5.587   1.217 -0.4521  0.5556  0.0015
12444TIP3    H158823   2.143   5.627   1.277  0.2406 -2.0402  1.1557
12444TIP3    H258824   2.057   5.657   1.156  1.8783  2.1980  0.8621
12445TIP3   OH258825   1.155   1.353   2.746 -0.2796 -0.3396  0.2912
12445TIP3    H158826   1.171   1.430   2.800  0.7865 -0.0085 -0.4704
12445TIP3    H258827   1.075   1.374   2.698  0.5499  0.7630 -0.6780
12446TIP3   OH258828   5.938   0.134   1.231 -0.1119  0.9315 -0.3552
12446TIP3    H158829   5.952   0.225   1.258  1.4141  0.4982  0.3676
12446TIP3    H258830   5.979   0.129   1.144  1.4375  0.5106  0.3626
12447TIP3   OH258831   4.894   3.261  16.916 -0.0852 -0.4568 -0.1449
12447TIP3    H158832   4.905   3.303  16.831 -2.2774  2.4049  0.8116
12447TIP3    H258833   4.898   3.333  16.979 -1.3873 -2.0500  1.9093
12448TIP3   OH258834   2.034   6.110  14.275 -0.3230  0.3035 -0.2184
12448TIP3    H158835   2.074   6.155  14.350  0.0191  0.3359 -0.4188
12448TIP3    H258836   2.085   6.029  14.266  0.9349  1.2056 -1.6340
12449TIP3   OH258837   1.299   4.496  14.346 -0.0468 -0.9123  0.1288
12449TIP3    H158838   1.357   4.459  14.412 -0.3366 -0.0064  0.9125
12449TIP3    H258839   1.235   4.547  14.396 -1.1665 -1.4081 -0.7608
12450TIP3   OH258840   0.808   2.536   3.975  0.5367 -0.3327 -0.0805
12450TIP3    H158841   0.750   2.504   4.043 -0.1917  0.7241 -0.1799
12450TIP3    H258842   0.889   2.561   4.021  0.5308 -0.8450  0.2052
12451TIP3   OH258843   4.407   6.307   0.254 -0.4033  0.3246 -0.0467
12451TIP3    H158844   4.318   6.291   0.286  0.2205 -0.7716  1.2638
12451TIP3    H258845   4.463   6.283   0.328  0.9568  1.6656 -0.6059
12452TIP3   OH258846   6.286   4.731   3.130  0.2219  0.1141  0.6646
12452TIP3    H158847   6.377   4.709   3.149 -0.1218 -0.8825  1.2393
12452TIP3    H258848   6.290   4.816   3.086  1.4672 -0.1630  0.2038
12453TIP3   OH258849   6.496   6.317   6.289 -0.2609 -0.5097  1.1800
12453TIP3    H158850   6.508   6.258   6.364  2.0930  1.4776  2.5400
12453TIP3    H258851   6.585   6.348   6.269 -1.3410  2.7931  0.8226
12454TIP3   OH258852   6.340   1.642  15.146  0.2458  0.1948  0.3600
12454TIP3    H158853   6.262   1.652  15.201  0.2705  2.5207  0.0677
12454TIP3    H258854   6.306   1.607  15.064  0.0674 -2.2823  1.3848
12455TIP3   OH258855   5.769   3.803  13.875  0.0491  0.4360  0.4277
12455TIP3    H158856   5.736   3.751  13.802  4.2235  1.1721 -2.3337
12455TIP3    H258857   5.732   3.890  13.863  0.0870  0.3446 -0.4164
12456TIP3   OH258858   1.896   5.667  14.733  0.1324 -0.3765 -0.2849
12456TIP3    H158859   1.829   5.619  14.683  0.1418  0.3966 -1.0624
12456TIP3    H258860   1.847   5.715  14.799  0.0392 -0.7816 -0.0601
12457TIP3   OH258861   1.766   5.883   2.683  0.2290 -0.5012  0.6088
12457TIP3    H158862   1.822   5.867   2.759  1.0720  1.3752  0.4507
12457TIP3    H258863   1.820   5.858   2.608  1.4662  2.3658  0.3759
12458TIP3   OH258864   5.449   3.990   4.102  0.5818  0.2005  0.1962
12458TIP3    H158865   5.492   3.931   4.040  0.8684 -1.1784  1.6210
12458TIP3    H258866   5.485   3.965   4.187 -0.2553  1.5963  0.9989
12459TIP3   OH258867   5.524   3.454   0.831  0.6515  0.8480  0.2680
12459TIP3    H158868   5.579   3.377   0.818 -0.3073  0.6102 -3.9893
12459TIP3    H258869   5.441   3.420   0.864  0.4047  0.0571 -1.0965
12460TIP3   OH258870   4.774   0.673  13.618  0.4745 -0.0053  0.1840
12460TIP3    H158871   4.843   0.736  13.637  1.6960 -0.8976 -1.1231
12460TIP3    H258872   4.735   0.654  13.703  0.3118  2.2024  0.6563
12461TIP3   OH258873   3.633   2.058   2.200 -0.3061  0.1957 -0.1242
12461TIP3    H158874   3.558   2.103   2.161 -0.5441 -0.4080 -0.3685
12461TIP3    H258875   3.702   2.125   2.204  0.5161 -0.2417 -3.6969
12462TIP3   OH258876   1.694   4.333  13.190 -0.3547  0.4801  0.4965
12462TIP3    H158877   1.694   4.424  13.219 -0.4987  1.1422 -1.4309
12462TIP3    H258878   1.749   4.333  13.111  0.8218 -1.3919  1.2432
12463TIP3   OH258879   2.186   5.835   3.103  0.2223  0.2775 -0.5286
12463TIP3    H158880   2.181   5.764   3.039 -1.7705 -0.9367  0.8500
12463TIP3    H258881   2.222   5.794   3.182  0.0207  1.0561 -0.0194
12464TIP3   OH258882   5.227   6.004   5.788  0.0614  0.1843 -0.2988
12464TIP3    H158883   5.177   6.085   5.775  2.2445  1.7561  0.3437
12464TIP3    H258884   5.279   5.995   5.708 -0.5917 -0.9315 -0.6077
12465TIP3   OH258885   6.546   2.358  12.960 -0.1885 -0.0576  0.3385
12465TIP3    H158886   6.633   2.363  13.000  0.5409  0.7664 -1.2307
12465TIP3    H258887   6.493   2.421  13.009  0.4687  0.3883  0.4898
12466TIP3   OH258888   3.014   1.826  14.917  0.1167  0.9269  0.0010
12466TIP3    H158889   3.046   1.829  14.827 -0.3313  1.7465 -0.1423
12466TIP3    H258890   3.005   1.733  14.936  1.7215  0.6833 -0.2502
12467TIP3   OH258891   1.545   5.128   4.370  0.0959  0.2076  0.2008
12467TIP3    H158892   1.513   5.077   4.444  1.4999  0.4639  1.0273
12467TIP3    H258893   1.639   5.140   4.388  0.6846 -0.5240 -2.0937
12468TIP3   OH258894   1.646   3.510  11.650  0.1113 -0.0603  0.1325
12468TIP3    H158895   1.700   3.433  11.634 -1.5171 -1.1501 -0.4153
12468TIP3    H258896   1.700   3.566  11.705 -0.1946 -3.5334  4.5679
12469TIP3   OH258897   4.707   5.455   1.670 -0.4808 -0.9180  0.1202
12469TIP3    H158898   4.681   5.440   1.579 -0.0685 -1.7441  0.1323
12469TIP3    H258899   4.795   5.417   1.676 -0.0070  0.2122  0.5476
12470TIP3   OH258900   4.800   2.163   4.682 -0.2612 -0.1178 -0.2707
12470TIP3    H158901   4.753   2.222   4.740 -0.9734 -0.1669 -0.7817
12470TIP3    H258902   4.893   2.175   4.705 -0.5013  0.1427  0.5937
12471TIP3   OH258903   5.001   1.864  17.027  0.0293  0.3976 -0.2095
12471TIP3    H158904   4.959   1.851  16.943  2.4873 -0.0283 -1.4714
12471TIP3    H258905   5.095   1.868  17.007  0.6504  1.2070  2.3996
12472TIP3   OH258906   5.036   6.763   0.909 -0.6516 -0.7697 -0.8923
12472TIP3    H158907   5.019   6.850   0.873  0.6719  0.2222  0.7286
12472TIP3    H258908   4.958   6.713   0.886 -2.3120  1.3590 -0.2854
12473TIP3   OH258909   6.632   6.583   4.076  0.0886  0.3828 -0.1915
12473TIP3    H158910   6.648   6.489   4.080  1.9930  0.6452 -0.5362
12473TIP3    H258911   6.573   6.601   4.149 -0.5289 -1.1131 -0.2979
12474TIP3   OH258912   0.184   2.702  15.909 -0.0544  0.4309  0.4118
12474TIP3    H158913   0.160   2.612  15.933  0.0285 -0.1030 -1.3615
12474TIP3    H258914   0.113   2.755  15.945 -0.9098 -0.5243  0.2080
12475TIP3   OH258915   5.080   3.528   3.494  0.2637  0.2600 -0.2392
12475TIP3    H158916   5.056   3.558   3.406  1.8033 -0.4859 -0.9644
12475TIP3    H258917   5.156   3.581   3.517  0.5571 -0.3218  0.1548
12476TIP3   OH258918   2.629   5.668  16.347 -0.2822  0.7276 -0.2134
12476TIP3    H158919   2.685   5.697  16.275  0.1528  1.8616  0.5636
12476TIP3    H258920   2.662   5.713  16.424 -1.7999  0.8569  0.3996
12477TIP3   OH258921   5.829   5.175  13.283  0.6913 -0.1464 -0.1595
12477TIP3    H158922   5.812   5.261  13.321 -0.8096  0.2256 -1.5389
12477TIP3    H258923   5.749   5.155  13.234  0.2016 -3.1919  1.6362
12478TIP3   OH258924   2.034   6.714   5.685 -0.6762 -0.6632 -0.2114
12478TIP3    H158925   2.118   6.684   5.652 -0.5467  1.1842 -1.6655
12478TIP3    H258926   2.050   6.736   5.777  0.2100 -1.0613 -0.2677
12479TIP3   OH258927   5.546   3.574  15.270 -0.5357  0.0081 -0.0084
12479TIP3    H158928   5.482   3.621  15.323 -1.1967 -2.0602  1.1222
12479TIP3    H258929   5.506   3.566  15.184 -1.2228 -0.1036  0.3176
12480TIP3   OH258930   0.678   1.835  13.428  0.0084  0.1130 -0.0187
12480TIP3    H158931   0.680   1.930  13.418 -0.3270 -0.0306 -1.7422
12480TIP3    H258932   0.751   1.804  13.374 -1.3961 -0.7242 -1.5056
12481TIP3   OH258933   3.658   6.466   4.429 -0.5554 -0.5582 -0.3294
12481TIP3    H158934   3.643   6.372   4.421 -2.7667 -0.2900  0.0122
12481TIP3    H258935   3.697   6.491   4.346  0.1258 -1.7555 -0.4031
12482TIP3   OH258936   3.426   3.024   5.918 -0.0180 -0.5119 -1.1653
12482TIP3    H158937   3.486   2.960   5.880  1.0502  0.2445 -0.8252
12482TIP3    H258938   3.341   3.006   5.878  0.2238 -2.2063 -0.9817
12483TIP3   OH258939   3.036   5.151   2.440  0.2344  0.2996  0.3557
12483TIP3    H158940   3.127   5.143   2.411  0.4627 -0.6363  1.2354
12483TIP3    H258941   3.039   5.215   2.511  0.3648 -0.2950  0.9058
12484TIP3   OH258942   1.313   4.719  16.987  0.0660 -0.2414  0.0906
12484TIP3    H158943   1.221   4.707  16.965 -0.0822  0.2222  0.4485
12484TIP3    H258944   1.337   4.803  16.948  0.9965 -1.4181 -2.0671
12485TIP3   OH258945   6.281   0.420  12.910  0.2665  0.1961  0.2817
12485TIP3    H158946   6.349   0.388  12.850 -0.1150  1.5656 -0.9394
12485TIP3    H258947   6.258   0.506  12.875 -2.3186 -0.3531  0.4643
12486TIP3   OH258948   5.868   5.909  15.211  0.0823 -0.1957  0.1473
12486TIP3    H158949   5.809   5.972  15.251 -0.1716 -0.9864  1.0726
12486TIP3    H258950   5.814   5.830  15.199  0.8355 -0.7980  0.6289
12487TIP3   OH258951   4.088   4.721  13.748 -0.4208 -0.0564  0.0519
12487TIP3    H158952   4.163   4.747  13.694  0.6749 -0.7372  1.2071
12487TIP3    H258953   4.013   4.733  13.690  0.6530 -0.2646 -1.4647
12488TIP3   OH258954   2.019   5.620  12.376 -0.3594 -0.2404 -0.5379
12488TIP3    H158955   2.072   5.591  12.301 -0.0855  0.6326 -0.6889
12488TIP3    H258956   2.075   5.681  12.423 -0.6133 -0.6117  0.2649
12489TIP3   OH258957   4.682   3.460   2.322  0.4492 -0.3415 -0.0270
12489TIP3    H158958   4.679   3.364   2.317  0.3003 -0.4209  1.1234
12489TIP3    H258959   4.737   3.477   2.399 -0.7171  0.4638  0.6535
12490TIP3   OH258960   2.643   2.947   1.600  0.4667  0.3890  0.7438
12490TIP3    H158961   2.639   3.042   1.599  1.3512  0.4243  0.0779
12490TIP3    H258962   2.729   2.927   1.638  0.0464 -0.1579  1.4434
12491TIP3   OH258963   3.698   1.855  11.458  0.4543 -0.2042  0.5358
12491TIP3    H158964   3.764   1.878  11.392  1.7084  0.2881  1.9158
12491TIP3    H258965   3.730   1.773  11.496 -0.0315 -0.2445  0.8574
12492TIP3   OH258966   1.992   0.949  12.039 -0.0166  0.2760 -0.3023
12492TIP3    H158967   2.069   1.005  12.031 -0.3557  1.0380  1.3468
12492TIP3    H258968   2.027   0.863  12.060  0.4093  0.8751  1.6858
12493TIP3   OH258969   3.604   2.954  16.016 -0.0320 -0.2842  0.0412
12493TIP3    H158970   3.629   2.946  15.924  1.1000  0.8444  0.2323
12493TIP3    H258971   3.526   3.009  16.014  1.7207  2.3475 -0.0823
12494TIP3   OH258972   0.637   3.312   2.666  0.5889 -0.7495 -0.3648
12494TIP3    H158973   0.607   3.399   2.640 -0.9803 -0.9610  0.5925
12494TIP3    H258974   0.580   3.252   2.618  1.0607 -1.2389 -0.3183
12495TIP3   OH258975   4.989   5.914  10.620  0.3565 -0.0097  0.1662
12495TIP3    H158976   5.000   5.823  10.648 -0.8365  0.1317  1.1337
12495TIP3    H258977   4.953   5.907  10.531 -0.8656 -0.5139  0.6786
12496TIP3   OH258978   3.295   3.224   4.332 -0.1177  0.2406 -0.3524
12496TIP3    H158979   3.377   3.181   4.310  1.4900  2.6961  0.4214
12496TIP3    H258980   3.281   3.205   4.424  1.6442  2.7821  0.5330
12497TIP3   OH258981   4.162   0.986   1.843 -0.8147 -0.0845 -0.3478
12497TIP3    H158982   4.120   1.035   1.913 -0.7540  0.0235 -0.3859
12497TIP3    H258983   4.210   1.053   1.793 -0.7590 -0.1781 -0.4192
12498TIP3   OH258984   6.820   6.753  13.478 -0.0118  0.4425  0.1197
12498TIP3    H158985   6.904   6.778  13.519 -0.2989 -0.1498  1.0929
12498TIP3    H258986   6.845   6.695  13.406  0.3640 -0.6820  1.1328
12499TIP3   OH258987   1.375   6.698  17.233 -0.1843 -0.1512 -0.0062
12499TIP3    H158988   1.344   6.788  17.240  2.0893  0.6302  0.5893
12499TIP3    H258989   1.428   6.696  17.153  0.2802 -0.7944  0.3085
12500TIP3   OH258990   5.123   0.291  11.283 -0.4087 -0.1062 -0.2147
12500TIP3    H158991   5.181   0.302  11.208 -0.5687 -0.4300 -0.3906
12500TIP3    H258992   5.044   0.341  11.259 -0.1698  0.4179  0.0673
12501TIP3   OH258993   3.577   4.097   5.210  0.0104 -0.0703  0.7967
12501TIP3    H158994   3.585   4.180   5.258 -1.3646 -0.6719  2.1462
12501TIP3    H258995   3.577   4.123   5.118  1.6831  1.2176  1.0918
12502TIP3   OH258996   1.994   6.581  11.871 -0.0049 -0.1603 -0.1199
12502TIP3    H158997   1.965   6.587  11.962 -2.2716  0.3117 -0.7936
12502TIP3    H258998   1.944   6.650  11.826  1.3843 -0.1030 -1.6530
12503TIP3   OH258999   5.083   1.369   3.712  0.0316  0.1806 -0.2631
12503TIP3    H159000   5.148   1.421   3.665  0.5131 -1.1495 -1.1240
12503TIP3    H259001   5.021   1.341   3.645 -0.2587 -0.2832  0.1887
12504TIP3   OH259002   1.403   6.554  12.150  0.5078  0.3373 -0.0597
12504TIP3    H159003   1.353   6.477  12.175 -0.0515  0.9381  0.7563
12504TIP3    H259004   1.424   6.541  12.057 -1.1010  0.0276 -0.4082
12505TIP3   OH259005   6.677   3.547  14.956  0.4739 -0.4354 -0.1800
12505TIP3    H159006   6.719   3.518  14.875 -0.4812  1.5867 -1.4628
12505TIP3    H259007   6.604   3.486  14.969  1.5502 -1.7200  0.0676
12506TIP3   OH259008   0.140   0.503   3.580 -0.2450  0.2153 -0.6451
12506TIP3    H159009   0.055   0.502   3.535 -0.8245 -0.0742  0.4062
12506TIP3    H259010   0.181   0.585   3.552 -2.0971  1.8051  0.9293
12507TIP3   OH259011   5.086   0.302  16.449 -0.4388  0.4565  0.3506
12507TIP3    H159012   5.015   0.256  16.495 -1.7395  2.0690  0.0502
12507TIP3    H259013   5.145   0.331  16.519  0.0397 -1.0308  0.5940
12508TIP3   OH259014   5.951   0.448   4.796 -0.0582  0.0101  0.2854
12508TIP3    H159015   5.930   0.457   4.703  1.1976 -1.0044 -0.1097
12508TIP3    H259016   5.988   0.533   4.820 -4.9499  2.2637  1.2231
12509TIP3   OH259017   5.299   2.442  13.090 -1.2025 -0.2787 -0.1561
12509TIP3    H159018   5.335   2.355  13.073 -1.8450 -0.5084 -0.3912
12509TIP3    H259019   5.204   2.428  13.095 -1.4282  0.6167 -1.5514
12510TIP3   OH259020   4.168   6.173  15.506  0.5376 -0.2458  0.1360
12510TIP3    H159021   4.240   6.123  15.468  0.2543  0.2959 -1.1602
12510TIP3    H259022   4.202   6.205  15.589  1.4825 -0.7253 -0.0567
12511TIP3   OH259023   5.910   3.522   0.889 -0.5573 -0.1116  0.4744
12511TIP3    H159024   5.855   3.562   0.956 -0.0759 -0.2658  0.9600
12511TIP3    H259025   5.991   3.573   0.889 -1.1802  0.9650 -1.1690
12512TIP3   OH259026   1.619   4.832   6.085  0.1645  0.1313  0.0520
12512TIP3    H159027   1.687   4.770   6.061 -0.0269  0.2111 -0.7120
12512TIP3    H259028   1.618   4.896   6.014 -0.7805  0.0713  0.0036
12513TIP3   OH259029   1.151   0.909  15.047  0.8131  0.1319  0.5663
12513TIP3    H159030   1.152   0.850  14.972  0.5117  0.5425  0.2255
12513TIP3    H259031   1.165   0.996  15.008 -2.2757  0.7571  0.5491
12514TIP3   OH259032   6.352   6.551  13.654 -0.3043  0.4588 -0.5000
12514TIP3    H159033   6.362   6.487  13.724 -1.1501 -0.8254 -1.4981
12514TIP3    H259034   6.433   6.545  13.604 -0.0693  0.7269 -0.1522
12515TIP3   OH259035   4.759   4.407   1.753 -0.3687 -0.0032  0.9463
12515TIP3    H159036   4.834   4.433   1.806 -0.5680 -0.0700  1.2648
12515TIP3    H259037   4.698   4.369   1.816 -0.8989  0.5436  0.7722
12516TIP3   OH259038   1.506   4.807   1.791 -0.0701  0.3348  0.7572
12516TIP3    H159039   1.531   4.726   1.836  0.8662  1.2383  1.9213
12516TIP3    H259040   1.469   4.777   1.708 -0.6142 -1.3302  1.5381
12517TIP3   OH259041   0.009   1.471  15.958  0.8460 -0.3532  0.1395
12517TIP3    H159042  -0.077   1.510  15.942  0.8342  0.7099  2.4184
12517TIP3    H259043   0.050   1.466  15.871 -0.4364  1.7115 -0.6558
12518TIP3   OH259044   0.105   4.610   1.350 -0.3808 -0.1622 -0.0615
12518TIP3    H159045   0.168   4.538   1.340 -0.8347 -0.8201  1.5410
12518TIP3    H259046   0.158   4.689   1.347  0.3462 -0.6456 -0.1654
12519TIP3   OH259047   5.654   0.639   5.321 -0.3975  0.0742  0.3193
12519TIP3    H159048   5.676   0.580   5.393 -0.6921 -0.5221 -0.0759
12519TIP3    H259049   5.576   0.686   5.352  0.8871  1.6183  1.3944
12520TIP3   OH259050   6.183   4.697  13.533 -0.5207  0.0559  0.2848
12520TIP3    H159051   6.207   4.655  13.616 -0.8600  1.2700  1.0352
12520TIP3    H259052   6.143   4.780  13.560 -0.0096  0.7890 -1.1233
12521TIP3   OH259053   1.420   5.263   5.572  1.1267 -0.3441  0.6448
12521TIP3    H159054   1.440   5.170   5.580  1.4777 -0.1368  3.0013
12521TIP3    H259055   1.338   5.274   5.622 -0.4121  0.2173 -1.8430
12522TIP3   OH259056   3.081   4.503  15.087 -0.2621 -0.0227  0.5731
12522TIP3    H159057   3.089   4.535  14.998 -0.9931  1.2647  0.9478
12522TIP3    H259058   2.992   4.526  15.114 -0.2781 -0.9593  1.4276
12523TIP3   OH259059   4.562   2.278   1.406  0.6289  0.1752  0.4044
12523TIP3    H159060   4.474   2.291   1.371  1.2334  0.5953 -1.0281
12523TIP3    H259061   4.585   2.363   1.444  0.8465  0.4158 -0.2525
12524TIP3   OH259062   5.106   1.485   3.003  0.5681  0.0383 -0.2703
12524TIP3    H159063   5.146   1.512   2.920 -0.6933  2.7519 -0.1025
12524TIP3    H259064   5.079   1.567   3.045 -1.0881 -1.3906  1.6936
12525TIP3   OH259065   6.508   3.143   4.898 -0.2567 -0.4203  0.4997
12525TIP3    H159066   6.555   3.226   4.887  0.3829 -0.9256 -0.7837
12525TIP3    H259067   6.495   3.111   4.809 -2.0104 -0.8911  0.8858
12526TIP3   OH259068   4.337   2.699   2.387 -0.1840 -0.0998  0.3688
12526TIP3    H159069   4.306   2.786   2.362  0.4955  0.4017  1.2050
12526TIP3    H259070   4.300   2.684   2.474 -0.3754 -0.6961  0.1917
12527TIP3   OH259071   0.029   6.624   0.102  0.4986 -1.2468 -0.2729
12527TIP3    H159072  -0.024   6.638   0.180  0.8172  0.7520 -0.3591
12527TIP3    H259073   0.119   6.634   0.132  0.7234 -2.1452 -0.6013
12528TIP3   OH259074   2.730   0.871  14.942  0.5554  0.6686 -0.1080
12528TIP3    H159075   2.685   0.840  14.863 -1.1334  1.3554  0.5283
12528TIP3    H259076   2.799   0.807  14.957 -1.1846 -1.3656 -0.2653
12529TIP3   OH259077   1.914   0.340   3.735 -0.1377 -0.1016 -0.1730
12529TIP3    H159078   1.867   0.334   3.818  0.5123  0.6699  0.2730
12529TIP3    H259079   1.918   0.434   3.716  1.2091 -0.1366 -0.1848
12530TIP3   OH259080   5.351   2.269   0.036  0.2172 -0.0813  0.3309
12530TIP3    H159081   5.376   2.179   0.018 -0.5245 -0.3722  0.6896
12530TIP3    H259082   5.395   2.321  -0.031  1.8371 -0.5344  1.0000
12531TIP3   OH259083   5.511   4.505   0.444 -0.4490  0.2549 -0.1033
12531TIP3    H159084   5.504   4.413   0.469  1.5983  0.3754  1.1670
12531TIP3    H259085   5.598   4.513   0.405 -0.9887  1.4780 -1.1352
12532TIP3   OH259086   4.826   2.198   0.703  0.6208 -0.7622  0.6177
12532TIP3    H159087   4.739   2.190   0.664  1.0133  0.2138 -0.5350
12532TIP3    H259088   4.810   2.209   0.796 -0.4332 -1.6515  0.5578
12533TIP3   OH259089   6.114   0.724   3.455  0.3164  0.2356 -0.0273
12533TIP3    H159090   6.115   0.685   3.368  1.5594 -0.3109  0.2044
12533TIP3    H259091   6.027   0.765   3.463 -0.6293 -1.5620 -0.6803
12534TIP3   OH259092   5.355   0.351   5.763  0.2193  0.0621 -0.1634
12534TIP3    H159093   5.339   0.259   5.742  1.7023  0.0914 -1.6962
12534TIP3    H259094   5.439   0.351   5.810  0.9611  0.7090 -1.4198
12535TIP3   OH259095   1.918   2.173  12.835 -0.2228  0.5624  0.9010
12535TIP3    H159096   1.836   2.152  12.879  0.3379  0.9133  2.1647
12535TIP3    H259097   1.974   2.097  12.848  0.2369  0.9993  1.5344
12536TIP3   OH259098   6.341   3.823   0.330  0.2169  0.5449 -0.4343
12536TIP3    H159099   6.349   3.908   0.286 -1.3760  0.8951 -0.1373
12536TIP3    H259100   6.399   3.830   0.406  0.9162  0.9648 -0.9987
12537TIP3   OH259101   2.653   2.440  12.286 -0.1030 -0.3229  0.4016
12537TIP3    H159102   2.561   2.449  12.312  0.2441  2.8166  0.8863
12537TIP3    H259103   2.649   2.411  12.195 -1.5649 -0.1616  0.3827
12538TIP3   OH259104   3.418   2.638   3.091 -0.2598 -0.1369 -0.7130
12538TIP3    H159105   3.335   2.605   3.124 -0.7434  1.0531 -0.6657
12538TIP3    H259106   3.478   2.632   3.165 -0.1983 -1.3012 -0.8390
12539TIP3   OH259107   5.278   1.828  16.531 -0.6338  0.3917 -0.4841
12539TIP3    H159108   5.305   1.815  16.440 -0.6254  1.7531 -0.6888
12539TIP3    H259109   5.256   1.740  16.562 -1.8392  0.0645 -2.1708
12540TIP3   OH259110   1.392   6.200   1.540 -0.0704 -0.8226  0.4110
12540TIP3    H159111   1.441   6.184   1.460  0.6315 -0.5247  0.7737
12540TIP3    H259112   1.374   6.113   1.575 -0.2329 -0.9467  0.0205
12541TIP3   OH259113   4.161   3.590  13.964  0.0216 -0.4801 -0.3031
12541TIP3    H159114   4.209   3.672  13.976 -0.1116 -0.2606 -1.1892
12541TIP3    H259115   4.126   3.570  14.050 -2.8577  2.2008 -0.6614
12542TIP3   OH259116   2.985   1.411  13.361  0.7594 -0.1751  0.6700
12542TIP3    H159117   3.009   1.327  13.399 -0.4537 -1.0127 -0.3204
12542TIP3    H259118   2.891   1.404  13.345  1.0427  0.4570 -1.6359
12543TIP3   OH259119   1.319   1.116  11.420 -0.2489 -0.0949  0.0159
12543TIP3    H159120   1.339   1.194  11.368 -0.6866  1.1600  1.6462
12543TIP3    H259121   1.388   1.113  11.486 -0.0984 -1.2409 -0.1845
12544TIP3   OH259122   0.269   4.063  11.123  0.4318  0.0651 -0.6028
12544TIP3    H159123   0.353   4.052  11.077  0.4964 -2.7449  0.0117
12544TIP3    H259124   0.294   4.084  11.213  0.5526 -1.6946 -0.1989
12545TIP3   OH259125   5.643   5.443   4.014  0.6600 -0.0033  0.1527
12545TIP3    H159126   5.616   5.445   4.106  0.5818 -1.2139  0.1718
12545TIP3    H259127   5.736   5.423   4.016  0.4103 -1.2229 -0.0562
12546TIP3   OH259128   6.331   5.411  11.508  0.9618 -0.0860 -0.0897
12546TIP3    H159129   6.326   5.317  11.523  0.5662 -0.0762 -0.1482
12546TIP3    H259130   6.276   5.425  11.430 -1.6454  0.6183  1.7527
12547TIP3   OH259131   1.999   1.809   5.229 -0.5661  0.1811 -0.5569
12547TIP3    H159132   2.074   1.758   5.200 -0.5027 -0.1848  0.2157
12547TIP3    H259133   2.025   1.900   5.216 -0.0320  0.0542 -0.3990
12548TIP3   OH259134   1.346   4.452   1.483  0.0972 -0.0328 -0.5255
12548TIP3    H159135   1.349   4.548   1.485 -1.0791  0.0127 -0.1721
12548TIP3    H259136   1.303   4.432   1.400 -2.4840 -0.1230  0.7371
12549TIP3   OH259137   4.809   2.558  16.450 -0.8262 -0.3215  0.1892
12549TIP3    H159138   4.788   2.487  16.510 -0.4322 -0.9500 -0.4084
12549TIP3    H259139   4.790   2.522  16.363  0.0264  0.0702 -0.1634
12550TIP3   OH259140   4.438   6.559   5.731  0.8805  0.1822  0.0055
12550TIP3    H159141   4.511   6.504   5.701 -0.4647 -1.5453 -0.2646
12550TIP3    H259142   4.430   6.539   5.824  0.3835 -0.1037 -0.0948
12551TIP3   OH259143   2.300   6.795   0.581 -0.5662  0.6844 -0.1359
12551TIP3    H159144   2.303   6.890   0.588 -0.5217  0.6627  0.1571
12551TIP3    H259145   2.272   6.765   0.667 -0.9275  0.4488 -0.3344
12552TIP3   OH259146   4.098   1.792   1.923  0.2269 -0.0259  0.1543
12552TIP3    H159147   4.083   1.832   1.838  0.4922 -0.1914  0.0279
12552TIP3    H259148   4.019   1.811   1.973  0.3172  0.5833  0.0726
12553TIP3   OH259149   2.891   0.211   4.279  0.2891  0.1106 -0.4964
12553TIP3    H159150   2.937   0.294   4.291  1.1468 -0.4632  0.2928
12553TIP3    H259151   2.823   0.211   4.347  2.1951 -1.1017  1.5416
12554TIP3   OH259152   1.833   5.881  11.482  0.1615  0.0595 -0.4440
12554TIP3    H159153   1.837   5.910  11.573 -1.1411 -2.9467  0.7147
12554TIP3    H259154   1.770   5.939  11.440  1.3270  1.9483  0.3094
12555TIP3   OH259155   5.047   0.296   2.743 -0.5839  0.1613 -0.4124
12555TIP3    H159156   5.102   0.351   2.687  1.5283  1.2974  2.5393
12555TIP3    H259157   5.108   0.234   2.783 -2.1666 -1.1882 -0.0010
12556TIP3   OH259158   1.675   0.967   5.378 -0.4694 -0.2016  0.3824
12556TIP3    H159159   1.625   1.043   5.410 -1.2997 -0.3002 -0.6415
12556TIP3    H259160   1.625   0.935   5.303 -0.6963 -2.3826  1.3755
12557TIP3   OH259161   1.404   5.569  14.202  0.3726  0.3565 -0.2202
12557TIP3    H159162   1.498   5.587  14.204  0.0764  2.1504 -0.7579
12557TIP3    H259163   1.374   5.604  14.118 -1.0047  1.0985  0.5479
12558TIP3   OH259164   3.236   2.760  12.989  0.4381 -0.4934 -0.8122
12558TIP3    H159165   3.268   2.807  13.065  1.2058 -1.8484 -0.2711
12558TIP3    H259166   3.261   2.814  12.914  0.2938  0.4976 -0.1517
12559TIP3   OH259167   1.471   0.119  12.453  0.6358 -0.5049  0.1860
12559TIP3    H159168   1.408   0.068  12.404 -0.6752 -0.0020  1.2638
12559TIP3    H259169   1.487   0.068  12.533  1.9373 -0.8287 -0.2606
12560TIP3   OH259170   5.847   2.465  11.852  0.3650 -0.3715 -0.4379
12560TIP3    H159171   5.934   2.454  11.815  1.4667 -0.5591  2.0589
12560TIP3    H259172   5.806   2.379  11.843  0.7556 -0.5224 -0.8193
12561TIP3   OH259173   5.211   2.370   3.047  0.2031  0.8553 -0.3458
12561TIP3    H159174   5.182   2.343   3.134 -1.4955 -0.5431 -1.2721
12561TIP3    H259175   5.202   2.291   2.993 -0.2100  2.0321 -2.1109
12562TIP3   OH259176   0.207   1.296  13.549  0.1419 -0.0267 -0.6289
12562TIP3    H159177   0.162   1.381  13.548 -1.0017 -0.6188 -0.5163
12562TIP3    H259178   0.298   1.318  13.569  0.1816  1.3105 -2.0947
12563TIP3   OH259179   6.220   5.662   4.766 -0.7189  0.3359  0.5574
12563TIP3    H159180   6.141   5.716   4.772 -1.3111 -0.6086  1.6237
12563TIP3    H259181   6.188   5.573   4.755  0.1423 -0.1829  1.9755
12564TIP3   OH259182   6.613   6.640   3.798  0.8587 -0.3412 -0.8765
12564TIP3    H159183   6.605   6.735   3.786  0.8786 -0.1959  0.1695
12564TIP3    H259184   6.617   6.628   3.893 -0.4064 -1.4987 -0.9442
12565TIP3   OH259185   5.947   3.333  13.515  0.4954 -0.2402  0.3106
12565TIP3    H159186   5.901   3.250  13.526  2.1872 -1.3275 -0.2858
12565TIP3    H259187   5.981   3.353  13.602 -2.2347  1.3467  1.0933
12566TIP3   OH259188   6.700   5.651   1.872  0.1167  0.0829 -0.1234
12566TIP3    H159189   6.782   5.684   1.835  0.0628 -0.4246 -0.6984
12566TIP3    H259190   6.635   5.667   1.804 -0.1675 -0.0020  0.1258
12567TIP3   OH259191   6.690   4.567   0.282  0.1767  0.2033  0.2453
12567TIP3    H159192   6.643   4.489   0.251  1.0333 -0.6893  1.1180
12567TIP3    H259193   6.782   4.542   0.275  0.6341  2.1946 -2.1897
12568TIP3   OH259194   4.412   4.618  13.714 -0.0839 -0.0760  0.1491
12568TIP3    H159195   4.489   4.637  13.662 -0.6283  1.6294 -0.0816
12568TIP3    H259196   4.365   4.551  13.664  1.5297 -1.6373  0.6190
12569TIP3   OH259197   3.192   2.443  16.241  0.8019  0.3161 -0.0827
12569TIP3    H159198   3.187   2.469  16.333  1.3555  1.1147 -0.2658
12569TIP3    H259199   3.114   2.390  16.227 -0.7461  2.3839  0.1690
12570TIP3   OH259200   1.176   1.495  14.439  0.1595  0.0564  0.5502
12570TIP3    H159201   1.150   1.561  14.504  1.0380 -0.0712  1.0476
12570TIP3    H259202   1.149   1.532  14.355 -0.2074  0.6219  0.9087
12571TIP3   OH259203   3.289   1.537  11.910  0.3088 -0.2779  0.4989
12571TIP3    H159204   3.338   1.616  11.884 -0.9600  1.3446  2.6607
12571TIP3    H259205   3.198   1.559  11.893  0.0262 -1.9511 -0.3215
12572TIP3   OH259206   6.570   5.066  15.722  0.0524 -0.3126  0.5773
12572TIP3    H159207   6.489   5.024  15.694 -0.8135  1.0736  0.9429
12572TIP3    H259208   6.601   5.011  15.794 -0.2294 -1.1824  0.0574
12573TIP3   OH259209   1.638   0.255   6.047 -1.1717  0.1487  0.0028
12573TIP3    H159210   1.591   0.283   5.968 -0.4107 -0.3641 -0.6434
12573TIP3    H259211   1.572   0.209   6.099 -1.3475 -0.7755 -1.0002
12574TIP3   OH259212   4.718   3.197  15.170 -0.2356 -0.3765  0.5373
12574TIP3    H159213   4.675   3.166  15.249  0.2370 -2.1847  0.1522
12574TIP3    H259214   4.784   3.130  15.151  0.4259  0.5819 -0.7654
12575TIP3   OH259215   0.233   0.850  11.381  0.5981  1.0298 -0.7847
12575TIP3    H159216   0.202   0.886  11.464 -1.8272  1.3284 -1.7297
12575TIP3    H259217   0.298   0.784  11.406 -0.0870  1.0801  1.3240
12576TIP3   OH259218   5.589   3.319   3.411  0.0053 -0.4644 -0.0585
12576TIP3    H159219   5.574   3.289   3.321  0.2809  1.4272 -0.7758
12576TIP3    H259220   5.504   3.307   3.454 -0.1664 -1.2727 -0.5898
12577TIP3   OH259221   3.681   2.698   1.803 -0.2960 -0.4133 -0.9979
12577TIP3    H159222   3.691   2.634   1.873  0.3642 -1.3751 -1.9484
12577TIP3    H259223   3.587   2.718   1.802 -0.1977  0.3461  0.7511
12578TIP3   OH259224   4.160   3.818   2.142  0.1060 -0.0834 -0.1771
12578TIP3    H159225   4.228   3.879   2.113 -0.9823  1.3891  0.2850
12578TIP3    H259226   4.080   3.870   2.145 -0.1585 -0.4424  4.0189
12579TIP3   OH259227   4.490   2.957  13.945  1.2143 -0.7098  0.0154
12579TIP3    H159228   4.459   3.000  14.024  0.7950  0.0438 -0.5388
12579TIP3    H259229   4.525   3.028  13.891  0.2385 -0.9917 -1.0414
12580TIP3   OH259230   3.045   3.279   4.191  0.1177 -0.0075  0.3720
12580TIP3    H159231   3.044   3.365   4.233  0.1002  0.0205  0.3150
12580TIP3    H259232   3.132   3.244   4.210 -0.1954 -0.3633  1.1648
12581TIP3   OH259233   1.113   6.306  16.581 -0.1464  0.2986  0.5847
12581TIP3    H159234   1.188   6.268  16.537 -0.3891 -0.0496  0.4692
12581TIP3    H259235   1.144   6.391  16.612 -0.2380  0.9367 -1.0270
12582TIP3   OH259236   4.618   0.849   0.747  0.3255 -0.1466 -0.5189
12582TIP3    H159237   4.696   0.877   0.700 -2.1831  2.6947 -3.4799
12582TIP3    H259238   4.608   0.912   0.818  0.7962 -0.6455 -0.0012
12583TIP3   OH259239   0.447   1.053  12.758  0.1403  0.4445  0.0511
12583TIP3    H159240   0.517   1.069  12.821  0.3025  2.1399 -0.5303
12583TIP3    H259241   0.378   1.009  12.809  0.7811  0.6205  1.0912
12584TIP3   OH259242   0.013   4.251   5.700 -0.3828  0.3034  1.0516
12584TIP3    H159243   0.085   4.296   5.655  0.0536  0.2829  1.7159
12584TIP3    H259244  -0.065   4.300   5.674 -0.3029 -0.3721 -0.6186
12585TIP3   OH259245   3.820   4.145  17.207 -0.0676 -0.1993 -0.4457
12585TIP3    H159246   3.761   4.130  17.132 -0.8508 -1.0730  0.3217
12585TIP3    H259247   3.808   4.238  17.228  0.2883  0.1032 -1.4916
12586TIP3   OH259248   0.803   4.055   0.314 -0.3403 -0.4361  0.6734
12586TIP3    H159249   0.819   4.020   0.227 -2.2241  0.6703 -0.1742
12586TIP3    H259250   0.840   4.143   0.311  1.0504 -0.9649  1.5615
12587TIP3   OH259251   4.375   2.478   0.566  0.0640 -0.1808 -0.2677
12587TIP3    H159252   4.412   2.497   0.652 -0.1458 -0.4493 -0.1211
12587TIP3    H259253   4.287   2.445   0.583  0.2421 -0.8156 -0.5561
12588TIP3   OH259254   2.416   6.468   4.423  0.1817  0.1073  0.3239
12588TIP3    H159255   2.407   6.375   4.443 -0.9863  0.2560  0.5273
12588TIP3    H259256   2.351   6.485   4.355  2.6579  0.0657 -2.2098
12589TIP3   OH259257   2.248   2.301   6.122  0.0339 -0.0468  0.5508
12589TIP3    H159258   2.162   2.331   6.091 -0.5578 -2.7695 -0.7053
12589TIP3    H259259   2.300   2.290   6.043  1.2115  0.5525  1.2226
12590TIP3   OH259260   1.755   0.193   1.941  0.2289  0.0613 -0.4291
12590TIP3    H159261   1.783   0.267   1.996 -0.3240  0.7254 -1.0147
12590TIP3    H259262   1.803   0.118   1.975  2.1047  0.9991 -0.8881
12591TIP3   OH259263   1.139   3.224   4.145  0.2267 -0.0351 -0.5087
12591TIP3    H159264   1.205   3.166   4.183  0.3257 -0.1871 -0.9027
12591TIP3    H259265   1.189   3.300   4.114  0.3692 -0.5603 -1.6534
12592TIP3   OH259266   1.331   0.914  10.942  0.1103 -0.3852 -0.3120
12592TIP3    H159267   1.403   0.857  10.917 -1.1160 -2.4277  0.5395
12592TIP3    H259268   1.360   0.956  11.023  0.5592 -0.7607 -0.2756
12593TIP3   OH259269   0.926   1.665  16.314  0.3740 -0.2648  0.2212
12593TIP3    H159270   0.884   1.590  16.272  1.1691 -0.6514  0.0943
12593TIP3    H259271   0.919   1.736  16.250 -0.1275 -0.3072  0.2258
12594TIP3   OH259272   2.273   0.768   3.219 -0.0808 -0.3199 -0.3696
12594TIP3    H159273   2.310   0.738   3.301 -0.0366  2.3422  0.6765
12594TIP3    H259274   2.349   0.782   3.161  0.0546 -0.3965 -0.2094
12595TIP3   OH259275   2.249   0.572   2.673 -0.0939 -0.1407 -0.0834
12595TIP3    H159276   2.233   0.493   2.725 -1.1912  0.2373  0.1743
12595TIP3    H259277   2.317   0.546   2.611  2.7471 -0.0870  2.7192
12596TIP3   OH259278   4.110   3.357  11.401  0.7415  0.2859 -0.3899
12596TIP3    H159279   4.103   3.280  11.459 -2.8501 -1.1338 -2.3792
12596TIP3    H259280   4.175   3.331  11.336 -0.3710 -1.1572 -0.9955
12597TIP3   OH259281   1.678   5.512   0.462 -0.5495 -0.1015 -0.4606
12597TIP3    H159282   1.685   5.552   0.375  0.3757  1.2905  0.2110
12597TIP3    H259283   1.761   5.534   0.505 -1.3350 -0.0047  1.0769
12598TIP3   OH259284   5.947   0.693   6.402  0.0349 -0.0418  0.0777
12598TIP3    H159285   5.997   0.697   6.483 -0.2388 -0.3063  0.2623
12598TIP3    H259286   5.927   0.784   6.381  0.7244  0.0754 -0.0790
12599TIP3   OH259287   5.847   6.762  15.743 -0.6732 -0.8816  0.1844
12599TIP3    H159288   5.800   6.829  15.793 -0.3603 -1.0089  0.6537
12599TIP3    H259289   5.836   6.788  15.652  0.6068  0.6007  0.4047
12600TIP3   OH259290   5.841   0.184   0.542 -0.0166 -0.2953 -0.1425
12600TIP3    H159291   5.849   0.250   0.610  0.9857  1.7386 -2.0733
12600TIP3    H259292   5.929   0.147   0.535 -0.0360 -0.2794 -0.4994
12601TIP3   OH259293   6.292   6.314   4.131  0.5981 -0.1482  0.0633
12601TIP3    H159294   6.278   6.219   4.129  0.6393 -0.2301  1.7805
12601TIP3    H259295   6.324   6.335   4.043 -3.3483 -1.0381 -1.8263
12602TIP3   OH259296   3.069   1.832  13.559 -0.2102 -0.2901 -0.2114
12602TIP3    H159297   3.030   1.782  13.632 -0.3030 -2.7753 -1.8553
12602TIP3    H259298   3.162   1.809  13.561  0.1234  0.9829  0.1012
12603TIP3   OH259299   1.562   6.580   4.799 -0.0870 -0.1919  0.0114
12603TIP3    H159300   1.567   6.653   4.861 -1.4524 -0.8117  0.8838
12603TIP3    H259301   1.517   6.616   4.723 -2.1322 -0.4790  1.0356
12604TIP3   OH259302   0.612   5.945  11.499  0.9086  0.1975 -0.3804
12604TIP3    H159303   0.530   5.944  11.451  0.0269 -4.1268  0.8172
12604TIP3    H259304   0.594   5.996  11.577 -0.0282  0.8262 -0.9902
12605TIP3   OH259305   6.444   2.856  14.707 -0.2400  0.4579 -0.0124
12605TIP3    H159306   6.535   2.842  14.734 -0.3737  0.6951  0.5806
12605TIP3    H259307   6.425   2.783  14.648 -0.2120 -0.6265  1.2665
12606TIP3   OH259308   0.363   2.983  16.189  0.4145  0.3936  0.3318
12606TIP3    H159309   0.384   3.076  16.198  1.6891  0.0305  1.3768
12606TIP3    H259310   0.426   2.951  16.124 -2.2961  0.9143 -2.8580
12607TIP3   OH259311   2.640   0.189   3.064  0.0044 -0.7574 -0.4746
12607TIP3    H159312   2.620   0.174   3.157  0.5402 -0.6700 -0.3422
12607TIP3    H259313   2.661   0.282   3.059  0.7248 -0.9217 -0.5437
12608TIP3   OH259314   5.304   3.811  16.819 -0.2465  0.1722  0.5059
12608TIP3    H159315   5.291   3.871  16.746 -1.5823  1.4644  1.7255
12608TIP3    H259316   5.396   3.819  16.841  0.3551 -0.7680 -1.4209
12609TIP3   OH259317   0.884   4.933   5.367  0.9599  0.0593  0.1429
12609TIP3    H159318   0.875   5.015   5.318 -0.8673  0.5741  1.2643
12609TIP3    H259319   0.822   4.941   5.439  0.8819 -2.2518  0.3957
12610TIP3   OH259320   1.720   0.233  11.433  0.5186  0.6901 -0.3499
12610TIP3    H159321   1.762   0.149  11.413 -2.0333 -0.4291 -1.3925
12610TIP3    H259322   1.641   0.209  11.482  1.0494  2.7113  1.6795
12611TIP3   OH259323   6.305   5.297  10.247  0.0433  0.0118  0.4188
12611TIP3    H159324   6.390   5.256  10.231 -1.7528 -3.6204 -1.0358
12611TIP3    H259325   6.290   5.351  10.169 -0.7575 -2.9810 -1.6868
12612TIP3   OH259326   0.458   6.150  13.807 -0.3854 -0.3790 -0.2519
12612TIP3    H159327   0.390   6.101  13.761  0.0454 -1.4838  0.2298
12612TIP3    H259328   0.429   6.241  13.804 -1.5294 -0.7376 -0.6556
12613TIP3   OH259329   3.635   5.475  12.695  0.0124 -0.4158 -0.4923
12613TIP3    H159330   3.607   5.555  12.740 -0.8017  0.1422 -1.9237
12613TIP3    H259331   3.572   5.464  12.623 -0.0365 -2.4939 -0.1915
12614TIP3   OH259332   1.830   4.344  16.206  0.2750 -0.0024  0.3485
12614TIP3    H159333   1.850   4.428  16.248 -1.4561  0.0114  1.2282
12614TIP3    H259334   1.774   4.298  16.269 -0.9051 -0.7466 -1.1871
12615TIP3   OH259335   2.416   5.774  14.568  0.2705  0.2406  0.3394
12615TIP3    H159336   2.455   5.688  14.551  0.5421  0.4271  0.0029
12615TIP3    H259337   2.375   5.765  14.653 -1.0060 -0.6972 -0.3348
12616TIP3   OH259338   3.059   4.998  11.364 -0.7310 -0.0728 -0.0854
12616TIP3    H159339   3.000   4.947  11.308 -1.3936 -0.4126  0.8956
12616TIP3    H259340   3.137   4.943  11.372 -0.9260 -0.3555 -0.0852
12617TIP3   OH259341   5.450   3.722   6.665  0.6302  0.5018  0.1164
12617TIP3    H159342   5.416   3.796   6.714  1.9705  0.6766  0.8148
12617TIP3    H259343   5.438   3.746   6.573 -0.2685  0.9392  0.3434
12618TIP3   OH259344   0.625   5.664   0.236  0.3164 -0.1757  0.0403
12618TIP3    H159345   0.576   5.725   0.291  0.3601  0.7134 -0.8672
12618TIP3    H259346   0.589   5.677   0.148  0.7035 -1.0779 -0.2652
12619TIP3   OH259347   3.069   1.606   2.829  0.1564  0.4257  0.0549
12619TIP3    H159348   3.006   1.535   2.819 -1.4538  2.0542 -3.2471
12619TIP3    H259349   3.155   1.563   2.825 -0.7406 -1.4575  0.0282
12620TIP3   OH259350   6.723   3.928  13.747 -0.3098 -0.0432  0.4565
12620TIP3    H159351   6.641   3.884  13.723  0.9733 -1.3365 -1.9754
12620TIP3    H259352   6.754   3.880  13.824 -0.5332 -1.3719 -0.2386
12621TIP3   OH259353   2.362   4.066  10.366  0.1109  0.1703 -0.2554
12621TIP3    H159354   2.340   3.979  10.333  1.3406  0.7001 -2.6374
12621TIP3    H259355   2.438   4.052  10.423  0.2795 -0.3062 -0.5977
12622TIP3   OH259356   3.532   2.854   4.604 -0.6596 -0.2688  0.0526
12622TIP3    H159357   3.514   2.817   4.690 -0.1616  0.4095  0.4650
12622TIP3    H259358   3.506   2.946   4.612 -0.4376 -0.1571 -0.4656
12623TIP3   OH259359   2.642   3.210   3.530 -0.1963  0.2176  0.8923
12623TIP3    H159360   2.616   3.120   3.550  1.1954 -0.1250  1.2663
12623TIP3    H259361   2.559   3.259   3.527 -1.3183 -1.5553 -2.1144
12624TIP3   OH259362   4.455   1.690   1.536  0.5146 -0.5320  0.5738
12624TIP3    H159363   4.365   1.692   1.503  0.1325 -0.1184  1.6310
12624TIP3    H259364   4.447   1.698   1.631  1.6288 -1.2395  0.7505
12625TIP3   OH259365   5.551   5.378  15.400 -0.0806  0.1576 -0.3393
12625TIP3    H159366   5.458   5.371  15.423  0.5662 -1.0402  2.3585
12625TIP3    H259367   5.556   5.458  15.347 -2.5705  0.4690 -0.2555
12626TIP3   OH259368   6.059   2.391  15.059  0.2850  0.3877 -0.3151
12626TIP3    H159369   5.999   2.322  15.090  1.8472 -1.2307 -0.6825
12626TIP3    H259370   6.063   2.379  14.965 -1.2415  2.6038 -0.7290
12627TIP3   OH259371   0.986   3.361   0.984 -0.0634 -0.2300 -0.5168
12627TIP3    H159372   1.031   3.282   0.955 -1.8886 -1.5473  0.0297
12627TIP3    H259373   0.999   3.362   1.079  0.1211  0.2574 -0.5440
12628TIP3   OH259374   4.497   0.329   1.724  0.1071  0.7036  0.3978
12628TIP3    H159375   4.420   0.386   1.730 -0.2295  0.2731  0.2043
12628TIP3    H259376   4.512   0.320   1.630  1.0719  1.6839  0.4335
12629TIP3   OH259377   4.920   2.219   3.114  0.2268 -0.1919  0.6743
12629TIP3    H159378   4.933   2.149   3.177  0.9960  0.1724  0.9406
12629TIP3    H259379   4.966   2.294   3.152  1.9296 -0.3409 -0.9504
12630TIP3   OH259380   5.517   0.825   6.036 -0.1638 -0.4632 -0.1167
12630TIP3    H159381   5.472   0.803   6.117 -0.2656 -1.5623 -0.4541
12630TIP3    H259382   5.570   0.747   6.017 -0.1010 -0.1950 -1.0697
12631TIP3   OH259383   5.145   3.305   4.287 -0.3263  0.1255 -0.3267
12631TIP3    H159384   5.124   3.228   4.339 -0.9858  1.0324  0.7982
12631TIP3    H259385   5.106   3.378   4.335  0.9659  1.2608 -0.9360
12632TIP3   OH259386   6.562   3.781   0.054  0.4500  0.3277 -0.5873
12632TIP3    H159387   6.564   3.830  -0.028 -0.6911  0.4327 -0.5596
12632TIP3    H259388   6.515   3.837   0.115 -0.3970 -0.5615 -0.4046
12633TIP3   OH259389   4.040   2.285  15.687  0.7254  0.1933 -0.1157
12633TIP3    H159390   4.053   2.214  15.624 -2.0299 -0.3870 -0.1751
12633TIP3    H259391   3.974   2.251  15.748 -0.0938  2.3869  0.3278
12634TIP3   OH259392   6.189   6.629  16.463 -0.1842  0.0348  0.0672
12634TIP3    H159393   6.209   6.672  16.546  0.8906  0.3978 -0.3528
12634TIP3    H259394   6.172   6.538  16.487  2.5283 -0.4562  0.4991
12635TIP3   OH259395   3.200   0.039   6.701 -0.6770  0.1997  0.1655
12635TIP3    H159396   3.211  -0.041   6.753  0.6604 -0.2407 -0.7537
12635TIP3    H259397   3.266   0.099   6.735 -0.1843  0.1163 -0.6344
12636TIP3   OH259398   5.301   3.103  15.747  0.1923 -0.4969 -0.2386
12636TIP3    H159399   5.379   3.086  15.800 -0.0649  1.5913  0.9381
12636TIP3    H259400   5.319   3.062  15.663  1.6879 -1.7900  0.6691
12637TIP3   OH259401   3.160   0.604   4.812  0.3103 -0.5404 -0.4143
12637TIP3    H159402   3.142   0.609   4.905 -0.0092 -2.8044 -0.2941
12637TIP3    H259403   3.083   0.643   4.770 -0.4241 -1.2154  0.2661
12638TIP3   OH259404   1.817   1.019  11.825 -0.7103  0.2007  0.4184
12638TIP3    H159405   1.855   0.950  11.770  1.5518  1.6552  0.0044
12638TIP3    H259406   1.863   1.010  11.909 -1.1290  0.5726  0.6863
12639TIP3   OH259407   4.202   5.773   2.088 -1.0194 -0.4707  0.7594
12639TIP3    H159408   4.219   5.782   2.182 -1.5079 -2.2993  1.0748
12639TIP3    H259409   4.120   5.725   2.083 -1.9390  1.1632 -0.6558
12640TIP3   OH259410   2.985   2.371  11.218  0.0760 -0.3224 -0.1016
12640TIP3    H159411   2.906   2.317  11.208 -0.2971 -0.3865  2.4530
12640TIP3    H259412   3.057   2.307  11.220  0.0912 -0.3587 -1.2055
12641TIP3   OH259413   2.129   4.170  10.467 -0.6402 -0.1497  0.8214
12641TIP3    H159414   2.121   4.262  10.490 -2.3842  0.5146 -1.9494
12641TIP3    H259415   2.215   4.162  10.426 -0.1812  0.0767  1.7427
12642TIP3   OH259416   5.503   4.434   0.077  0.1246 -0.2942  0.5653
12642TIP3    H159417   5.521   4.354   0.027  2.4455  0.1027  0.6608
12642TIP3    H259418   5.575   4.440   0.140  2.2094  3.6882 -1.7928
12643TIP3   OH259419   5.709   2.665   5.716 -0.0366  0.7762 -0.1277
12643TIP3    H159420   5.623   2.691   5.683 -0.4421 -1.6246 -1.1515
12643TIP3    H259421   5.695   2.653   5.810 -0.7801  0.6297 -0.2475
12644TIP3   OH259422   1.889   0.692   5.059 -0.6132  0.0313 -0.9096
12644TIP3    H159423   1.845   0.633   5.120 -1.3511  0.7883 -0.6896
12644TIP3    H259424   1.942   0.749   5.115  0.5268 -0.7562 -1.1606
12645TIP3   OH259425   3.081   3.551   5.757 -0.1084 -0.0643 -0.1390
12645TIP3    H159426   3.154   3.611   5.743  1.6365 -2.5037 -2.5460
12645TIP3    H259427   3.084   3.531   5.850  1.0576  1.3842  0.1693
12646TIP3   OH259428   0.850   6.134  14.281  0.1166 -0.1996 -0.3121
12646TIP3    H159429   0.938   6.107  14.258 -0.0190  0.1849 -1.3324
12646TIP3    H259430   0.793   6.069  14.239 -0.0738 -0.8552  0.9279
12647TIP3   OH259431   0.034   5.358   4.436  0.1075 -0.0044 -0.0029
12647TIP3    H159432   0.005   5.416   4.366 -0.6334  0.2338  0.4862
12647TIP3    H259433   0.048   5.415   4.511 -0.7962 -0.4585  0.5311
12648TIP3   OH259434   2.106   0.452  14.812 -0.8183 -0.3000 -0.2661
12648TIP3    H159435   2.156   0.383  14.769 -0.2654  0.3730 -0.7424
12648TIP3    H259436   2.172   0.515  14.841 -1.0616 -1.2351  2.5761
12649TIP3   OH259437   5.032   4.705  16.899  0.1492 -0.1880 -0.1182
12649TIP3    H159438   5.069   4.678  16.983  0.5630  1.4782  0.2837
12649TIP3    H259439   4.998   4.625  16.860 -0.5298 -0.9404  1.8721
12650TIP3   OH259440   3.230   1.175   3.256  0.4352  0.5641  1.0004
12650TIP3    H159441   3.279   1.215   3.183 -2.4081  1.3990 -0.5832
12650TIP3    H259442   3.205   1.249   3.311 -1.0187  0.4710  0.4970
12651TIP3   OH259443   0.564   6.643  11.624  0.3097 -0.4734  0.0100
12651TIP3    H159444   0.609   6.716  11.666  0.7329 -1.1978  0.8482
12651TIP3    H259445   0.472   6.669  11.624  0.5487  0.4171 -0.4726
12652TIP3   OH259446   5.598   5.603   5.371  0.1504 -0.6832  0.4931
12652TIP3    H159447   5.675   5.640   5.327  0.2989 -0.5772  0.8431
12652TIP3    H259448   5.531   5.602   5.303  0.0817  0.4350  0.5162
12653TIP3   OH259449   5.136   1.931   3.123  0.2735 -0.2313 -0.4963
12653TIP3    H159450   5.088   1.991   3.180  0.6435 -0.1454 -0.2698
12653TIP3    H259451   5.079   1.855   3.114  0.4109 -0.4469  0.3767
12654TIP3   OH259452   1.166   2.674  13.152 -0.0775  0.6853  0.4744
12654TIP3    H159453   1.225   2.609  13.113  0.4436  1.4900 -0.1331
12654TIP3    H259454   1.090   2.624  13.182  0.6560 -0.2933  0.7336
12655TIP3   OH259455   0.493   1.630   4.343  0.0413  0.2034  0.4182
12655TIP3    H159456   0.535   1.691   4.283  0.8895  0.4574  1.2545
12655TIP3    H259457   0.400   1.649   4.334  0.1945  0.6781 -0.3327
12656TIP3   OH259458   2.292   3.334   1.991  0.4301  0.6329  0.0335
12656TIP3    H159459   2.324   3.326   1.901 -0.3994 -1.4230 -0.1298
12656TIP3    H259460   2.352   3.280   2.043 -0.9328 -0.7853  0.1882
12657TIP3   OH259461   3.376   4.701  15.718  0.3970  0.4930  0.1036
12657TIP3    H159462   3.457   4.721  15.763  0.5098  0.5651 -0.1296
12657TIP3    H259463   3.394   4.719  15.626  0.3998 -0.3585 -0.0697
12658TIP3   OH259464   2.914   2.338  15.712  0.4335  0.6535  0.1105
12658TIP3    H159465   2.953   2.296  15.635  2.3604  1.9200  0.3323
12658TIP3    H259466   2.962   2.301  15.786 -1.6236 -0.8003  0.8212
12659TIP3   OH259467   6.629   6.296   2.583  0.4867  0.3023  0.5093
12659TIP3    H159468   6.622   6.213   2.631  1.3717  0.1554  0.4055
12659TIP3    H259469   6.715   6.331   2.608  1.2584 -0.0727 -1.4086
12660TIP3   OH259470   0.537   3.650   6.568  0.2534 -0.1606 -0.3071
12660TIP3    H159471   0.532   3.594   6.645  2.1698 -0.5559 -0.4071
12660TIP3    H259472   0.513   3.593   6.495 -1.5218  0.2040 -0.0484
12661TIP3   OH259473   3.352   5.031  15.860  0.7143 -0.3515 -0.0795
12661TIP3    H159474   3.443   5.044  15.888  1.0412  1.1766 -1.7245
12661TIP3    H259475   3.301   5.092  15.913  0.7503 -0.5599  0.1997
12662TIP3   OH259476   3.311   6.816  12.332 -0.1360  0.1402 -0.4756
12662TIP3    H159477   3.393   6.770  12.351  0.5178  1.5182  0.1857
12662TIP3    H259478   3.249   6.747  12.309  0.2596 -1.2714  2.3331
12663TIP3   OH259479   3.526   2.341   3.499  0.6936  0.0430 -0.2245
12663TIP3    H159480   3.581   2.363   3.575 -1.6237 -1.9237  2.2364
12663TIP3    H259481   3.458   2.408   3.498 -1.3933 -1.8152  1.9321
12664TIP3   OH259482   1.702   2.313  15.076 -0.0934 -0.7957 -0.1013
12664TIP3    H159483   1.759   2.239  15.054  1.5606  0.8779 -1.7436
12664TIP3    H259484   1.760   2.376  15.119 -1.0629  0.2897 -0.3424
12665TIP3   OH259485   0.602   4.332  14.173  0.3230 -0.9832  0.3517
12665TIP3    H159486   0.555   4.343  14.256  0.1751 -1.5356  0.3450
12665TIP3    H259487   0.655   4.411  14.165 -0.6141 -0.3306  0.3567
12666TIP3   OH259488   3.918   1.185  12.348  0.4713 -0.2931 -0.3348
12666TIP3    H159489   3.846   1.236  12.312  0.9147  0.1758 -0.5649
12666TIP3    H259490   3.991   1.200  12.288  0.5134 -1.4765 -0.5995
12667TIP3   OH259491   2.497   5.126   3.410 -0.5592 -0.2966  0.2386
12667TIP3    H159492   2.525   5.039   3.383 -0.1972 -0.2935  0.5952
12667TIP3    H259493   2.524   5.184   3.339  1.5256 -0.0978  1.1142
12668TIP3   OH259494   3.449   6.272  11.860  0.2072  0.0848 -0.1938
12668TIP3    H159495   3.391   6.256  11.934  1.1401  0.9131  0.7509
12668TIP3    H259496   3.393   6.261  11.783 -0.7359 -0.9721  0.6127
12669TIP3   OH259497   4.968   1.815   5.820 -0.1870 -0.1491 -0.1806
12669TIP3    H159498   5.032   1.840   5.886  0.9217  0.2044 -1.3446
12669TIP3    H259499   5.006   1.738   5.778 -0.2963  0.3184 -1.1699
12670TIP3   OH259500   6.259   1.112   3.984 -0.8055 -0.3404  0.1440
12670TIP3    H159501   6.193   1.048   3.959 -0.6283 -0.8671  1.0093
12670TIP3    H259502   6.210   1.191   4.007 -1.4802 -1.7033  4.0412
12671TIP3   OH259503   6.568   4.864  16.927 -0.4912  0.0421  0.2557
12671TIP3    H159504   6.583   4.882  16.834  0.9687  1.2421  0.6869
12671TIP3    H259505   6.475   4.884  16.941 -0.3855  1.2613 -0.6378
12672TIP3   OH259506   2.896   1.137   1.071  0.2477 -0.0019 -0.0355
12672TIP3    H159507   2.914   1.095   1.155 -0.7809 -0.2014  0.1018
12672TIP3    H259508   2.802   1.127   1.059  0.1698  1.2101 -0.5780
12673TIP3   OH259509   0.119   2.335  10.676  0.1281 -0.7317 -0.0158
12673TIP3    H159510   0.060   2.261  10.686  0.3849 -0.7716  1.4770
12673TIP3    H259511   0.164   2.342  10.760  1.1429  0.2445 -0.5973
12674TIP3   OH259512   2.638   6.499   3.224 -0.1229  0.0065  0.1744
12674TIP3    H159513   2.686   6.555   3.286  0.9886  1.4201 -1.8679
12674TIP3    H259514   2.554   6.543   3.213 -0.9867 -1.1061  1.7963
12675TIP3   OH259515   0.443   2.838  16.964  0.5377  0.0139 -0.4315
12675TIP3    H159516   0.430   2.931  16.948  0.1388  0.3950  1.8156
12675TIP3    H259517   0.356   2.805  16.988  0.9168 -0.6439  0.0882
12676TIP3   OH259518   6.240   4.546  17.288 -0.3915 -0.0629 -0.0975
12676TIP3    H159519   6.302   4.606  17.247 -0.9992  0.0275 -0.9091
12676TIP3    H259520   6.211   4.593  17.367  0.0397  0.1953 -0.0905
12677TIP3   OH259521   3.676   4.851   0.686  0.5202  0.6075  0.2014
12677TIP3    H159522   3.618   4.925   0.707  0.7740  1.4532 -1.7915
12677TIP3    H259523   3.761   4.891   0.671  0.6815 -0.0888 -0.8452
12678TIP3   OH259524   3.312   5.060   1.538  0.2471  0.4703 -0.0356
12678TIP3    H159525   3.227   5.032   1.572 -0.2805  0.2203 -1.4769
12678TIP3    H259526   3.374   4.998   1.575 -0.6117 -1.2732 -1.3357
12679TIP3   OH259527   4.891   3.971   5.194 -0.4242 -0.5571  0.0945
12679TIP3    H159528   4.984   3.957   5.176 -0.0735  1.0116  0.5647
12679TIP3    H259529   4.889   4.010   5.281 -1.4021  0.7637 -0.4801
12680TIP3   OH259530   0.325   0.298   2.733 -0.1597 -0.1263  0.1476
12680TIP3    H159531   0.256   0.325   2.673 -1.0243  1.0809  1.6307
12680TIP3    H259532   0.378   0.377   2.745  0.7360 -0.6928  0.0503
12681TIP3   OH259533   5.147   2.416  16.719 -0.4038 -0.4342  0.2052
12681TIP3    H159534   5.074   2.355  16.727 -0.1574 -1.0656 -1.8559
12681TIP3    H259535   5.105   2.500  16.698 -0.6203 -0.3368  0.9793
12682TIP3   OH259536   2.563   5.480   2.830 -0.1444  0.0645 -0.0095
12682TIP3    H159537   2.511   5.560   2.838  0.8893  0.6343  1.4293
12682TIP3    H259538   2.641   5.507   2.780 -0.1514 -0.2309 -0.1824
12683TIP3   OH259539   6.512   4.388  13.584  0.0767  0.0365 -0.3962
12683TIP3    H159540   6.593   4.435  13.563  0.0047  1.0866  1.3993
12683TIP3    H259541   6.536   4.331  13.657 -0.4211 -0.8962 -0.9514
12684TIP3   OH259542   0.119   4.299   1.206  0.7505 -0.3045  0.1212
12684TIP3    H159543   0.131   4.337   1.119  2.2797  0.5641  0.6662
12684TIP3    H259544   0.067   4.220   1.191  0.0830  0.3929 -1.4335
12685TIP3   OH259545   3.160   3.810  14.049 -0.7693 -0.6875  0.6210
12685TIP3    H159546   3.243   3.849  14.019 -0.8634 -0.0187  1.2227
12685TIP3    H259547   3.107   3.803  13.969 -0.3229 -0.6637  0.3150
12686TIP3   OH259548   5.630   3.626  15.661  0.4006  0.6184 -0.3595
12686TIP3    H159549   5.535   3.622  15.664  0.3381  2.1385  0.8754
12686TIP3    H259550   5.650   3.659  15.574 -0.1022 -0.8340 -1.0696
12687TIP3   OH259551   3.030   3.404   2.536  0.1674 -0.4295 -0.3134
12687TIP3    H159552   2.977   3.392   2.615  1.9611 -1.4360  0.8348
12687TIP3    H259553   3.111   3.445   2.568  0.3834  0.4464 -1.8820
12688TIP3   OH259554   1.274   2.257  12.027 -0.3619 -0.1876 -0.2057
12688TIP3    H159555   1.312   2.170  12.037  2.9075  1.2799  2.1063
12688TIP3    H259556   1.311   2.289  11.944  0.1023 -0.2693 -0.0319
12689TIP3   OH259557   4.217   3.832  12.287  0.0527 -0.4222  0.5195
12689TIP3    H159558   4.248   3.812  12.375 -1.3674 -1.3170  0.8376
12689TIP3    H259559   4.263   3.771  12.230  1.7868  0.8586  0.4544
12690TIP3   OH259560   3.004   1.867   2.858  0.4479 -0.1752  0.3259
12690TIP3    H159561   2.909   1.857   2.860  0.5257 -0.9842  0.1199
12690TIP3    H259562   3.038   1.778   2.850  1.3050 -0.1475  2.8274
12691TIP3   OH259563   3.235   4.931  11.872 -1.1256 -0.0991 -0.5444
12691TIP3    H159564   3.212   4.911  11.782  0.3605 -0.6931 -0.8213
12691TIP3    H259565   3.324   4.966  11.867 -1.5170  1.1631  0.5519
12692TIP3   OH259566   4.704   4.946   3.476  0.3878  0.1110 -0.0392
12692TIP3    H159567   4.739   5.020   3.524  0.4278 -0.6626  1.1579
12692TIP3    H259568   4.781   4.891   3.457  0.6543  1.1874 -2.5030
12693TIP3   OH259569   2.823   2.749  12.113  0.1820  0.5860 -0.7459
12693TIP3    H159570   2.748   2.699  12.146  1.2499 -1.2397 -0.9876
12693TIP3    H259571   2.800   2.840  12.132 -0.8224 -0.1028  1.8363
12694TIP3   OH259572   4.318   3.953  17.026 -0.0237  0.1599 -0.0947
12694TIP3    H159573   4.336   3.903  16.947  0.4275 -0.7903  0.5840
12694TIP3    H259574   4.313   3.887  17.095 -1.1135  0.8983  0.5599
12695TIP3   OH259575   1.011   1.238   4.142 -0.6700 -0.0646  0.3041
12695TIP3    H159576   1.106   1.247   4.153 -0.6762  0.1533  0.2015
12695TIP3    H259577   0.997   1.145   4.129 -0.3739 -0.0012 -0.5277
12696TIP3   OH259578   3.327   0.503   2.157 -0.1074  0.0134  0.5667
12696TIP3    H159579   3.325   0.563   2.082  1.7969  1.8371  1.8435
12696TIP3    H259580   3.271   0.431   2.132 -0.3472  1.0455 -2.1951
12697TIP3   OH259581   2.159   1.521   6.219 -0.1053  0.0830  0.2993
12697TIP3    H159582   2.099   1.447   6.214 -0.5624  0.4403  0.3375
12697TIP3    H259583   2.226   1.494   6.281  0.6583 -0.9331 -0.9299
12698TIP3   OH259584   6.360   5.328   5.133 -0.0011  0.3838 -0.2691
12698TIP3    H159585   6.280   5.314   5.184  0.3449  1.9113  0.7344
12698TIP3    H259586   6.348   5.273   5.055 -1.9620  0.4733 -0.0740
12699TIP3   OH259587   0.665   5.836   2.623  0.2555  0.3649 -0.5900
12699TIP3    H159588   0.588   5.891   2.636  0.7605  0.7202  1.0644
12699TIP3    H259589   0.656   5.803   2.533 -3.6397 -2.3988  0.5615
12700TIP3   OH259590   0.597   0.003  16.598 -0.1706 -0.0740 -0.5293
12700TIP3    H159591   0.686  -0.003  16.564 -0.6141  3.0734 -2.7191
12700TIP3    H259592   0.599   0.076  16.659 -1.1035 -0.4335 -0.0393
12701TIP3   OH259593   5.114   4.884   0.025 -0.3838 -0.1715  0.0473
12701TIP3    H159594   5.061   4.952  -0.015 -0.4451 -0.2865 -0.0697
12701TIP3    H259595   5.169   4.851  -0.047  0.2542  0.3329  0.2947
12702TIP3   OH259596   0.047   3.530   1.397 -0.1808 -0.0043  0.6341
12702TIP3    H159597   0.095   3.447   1.400 -0.6825 -0.2714  1.3033
12702TIP3    H259598   0.094   3.587   1.459  1.8735  1.1766 -1.7775
12703TIP3   OH259599   5.405   2.322  16.634 -0.2549  0.1576  0.0992
12703TIP3    H159600   5.423   2.408  16.597 -0.7201  0.3252  0.2548
12703TIP3    H259601   5.312   2.326  16.659 -0.3241 -0.4443 -0.0527
12704TIP3   OH259602   2.655   5.868  11.702 -0.1041 -0.9407  0.2520
12704TIP3    H159603   2.574   5.913  11.728 -0.1475 -0.3534 -0.8594
12704TIP3    H259604   2.637   5.834  11.615  0.8327 -0.8445  0.0132
12705TIP3   OH259605   2.991   5.672  14.139 -0.4941  0.0637 -0.6401
12705TIP3    H159606   2.916   5.623  14.172 -1.2368  0.6996 -1.3554
12705TIP3    H259607   3.064   5.643  14.194 -1.6839  1.1638  1.6858
12706TIP3   OH259608   6.189   3.729  10.273 -0.6242  0.0186 -0.2185
12706TIP3    H159609   6.117   3.786  10.244 -1.8753 -0.3438  1.9640
12706TIP3    H259610   6.151   3.641  10.274  0.0865 -0.2863  0.2702
12707TIP3   OH259611   0.982   1.945  15.727 -0.4963  0.1389  0.0070
12707TIP3    H159612   0.898   1.982  15.699 -0.9491 -0.5412  0.4416
12707TIP3    H259613   0.976   1.852  15.705  0.6718  0.3047 -1.1610
12708TIP3   OH259614   4.059   6.396  12.845  0.1526 -0.0517  0.1397
12708TIP3    H159615   4.004   6.326  12.880  0.3322 -0.5785 -0.6015
12708TIP3    H259616   4.003   6.443  12.783  0.0637  0.4055  0.5567
12709TIP3   OH259617   2.750   0.621  12.137 -0.2454  0.1315  0.1077
12709TIP3    H159618   2.714   0.626  12.226  0.3363 -0.6167  0.3972
12709TIP3    H259619   2.736   0.530  12.111 -0.1324  0.2707 -0.4554
12710TIP3   OH259620   5.551   0.612   5.071 -0.2322  0.3918 -0.5117
12710TIP3    H159621   5.493   0.542   5.103  0.0792  0.4954  0.3105
12710TIP3    H259622   5.602   0.637   5.148 -1.4822  2.6882 -0.3326
12711TIP3   OH259623   5.637   6.138  10.989  0.3448  0.0936  0.3605
12711TIP3    H159624   5.653   6.222  11.032 -0.2597  1.5392 -2.0552
12711TIP3    H259625   5.552   6.149  10.947  0.2580 -1.7629 -0.0160
12712TIP3   OH259626   1.405   4.450   0.240  0.2945 -0.3298  0.0449
12712TIP3    H159627   1.471   4.514   0.267  1.1573 -0.6206 -1.2652
12712TIP3    H259628   1.450   4.395   0.175 -1.1303 -0.7811 -0.6084
12713TIP3   OH259629   5.572   5.871  11.437  0.8749  0.1445 -0.0466
12713TIP3    H159630   5.604   5.929  11.506 -0.5957 -0.7411  1.4594
12713TIP3    H259631   5.574   5.924  11.357 -0.0082  2.1259  1.1963
12714TIP3   OH259632   5.222   2.126  14.693  0.7303 -0.1248  0.1701
12714TIP3    H159633   5.198   2.183  14.620  2.6486 -1.2718 -1.4543
12714TIP3    H259634   5.139   2.098  14.730 -0.2890  2.8187  0.3641
12715TIP3   OH259635   3.910   1.908  14.651 -0.7693  0.6464 -0.2953
12715TIP3    H159636   3.837   1.882  14.707 -0.5774  2.0909  0.6835
12715TIP3    H259637   3.868   1.948  14.574 -1.0576  2.2446  0.6458
12716TIP3   OH259638   1.143   3.447   3.830  1.0412  0.1794  0.3737
12716TIP3    H159639   1.102   3.467   3.915  1.2513 -0.2296  0.5699
12716TIP3    H259640   1.220   3.503   3.827  0.1435  1.4281 -0.2706
12717TIP3   OH259641   0.735   2.054  12.959 -0.8371  0.2367  0.2481
12717TIP3    H159642   0.828   2.063  12.979 -0.5387  2.5400 -1.6232
12717TIP3    H259643   0.690   2.069  13.042  0.4255 -0.6766  1.1224
12718TIP3   OH259644   0.803   0.571   1.288  0.2066 -0.5413  0.1337
12718TIP3    H159645   0.845   0.556   1.204  0.3049  0.2290  0.0351
12718TIP3    H259646   0.854   0.519   1.350  0.0113 -1.2723 -0.3092
12719TIP3   OH259647   5.676   6.614   0.384 -0.2221 -0.1398 -0.0562
12719TIP3    H159648   5.583   6.633   0.373 -0.0648 -0.3426 -1.9027
12719TIP3    H259649   5.721   6.680   0.331  0.5517 -1.8697 -1.6703
12720TIP3   OH259650   4.616   5.220   2.456  0.0561 -0.3126  0.1508
12720TIP3    H159651   4.529   5.256   2.438  1.2628  1.2107 -3.5611
12720TIP3    H259652   4.670   5.296   2.476  0.7718 -1.1718  1.6800
12721TIP3   OH259653   2.529   3.667  15.616 -0.2083 -0.2676  0.0256
12721TIP3    H159654   2.516   3.603  15.546 -1.3141  0.3577 -0.3679
12721TIP3    H259655   2.492   3.626  15.694 -1.5934  0.1346 -0.3778
12722TIP3   OH259656   3.352   5.911  12.955 -0.0980  0.5275  0.9780
12722TIP3    H159657   3.304   5.988  12.984 -0.1105  2.2462 -2.9452
12722TIP3    H259658   3.440   5.944  12.934 -0.3243 -0.2507 -1.5121
12723TIP3   OH259659   3.185   0.924  16.427 -0.2584  0.5291 -0.1039
12723TIP3    H159660   3.153   1.009  16.458 -0.1913 -0.0648  1.6603
12723TIP3    H259661   3.116   0.893  16.368 -0.3029  1.7647 -0.7373
12724TIP3   OH259662   4.933   4.441   2.940 -0.3194  0.1966 -0.1960
12724TIP3    H159663   5.019   4.416   2.905  0.0458  2.1677 -0.8084
12724TIP3    H259664   4.908   4.367   2.996  2.4448  0.1588  1.1920
12725TIP3   OH259665   3.394   6.448  15.978  0.2451 -0.0122  0.1918
12725TIP3    H159666   3.416   6.472  15.888 -1.3182 -0.9780 -0.4932
12725TIP3    H259667   3.409   6.528  16.028  1.1503  0.5502 -0.9176
12726TIP3   OH259668   2.212   6.399   3.424 -0.0465  0.4141  0.1329
12726TIP3    H159669   2.292   6.452   3.421 -0.6143  1.2564 -0.9291
12726TIP3    H259670   2.146   6.458   3.460 -0.7174  0.4950 -1.1809
12727TIP3   OH259671   4.259   6.692  11.964 -0.4169 -0.0068  0.1977
12727TIP3    H159672   4.349   6.693  11.996 -0.0996  2.2044 -0.6259
12727TIP3    H259673   4.229   6.603  11.983  2.8468 -1.8130 -2.0832
12728TIP3   OH259674   2.529   0.209   0.298  0.8833  0.1235 -0.4609
12728TIP3    H159675   2.594   0.273   0.326  0.7347  0.4434 -0.8296
12728TIP3    H259676   2.483   0.252   0.226  0.8654 -0.4485 -0.8004
12729TIP3   OH259677   0.500   5.971   6.012 -0.1425  0.1905 -0.2300
12729TIP3    H159678   0.454   6.024   6.077 -2.1673  1.2898 -2.4132
12729TIP3    H259679   0.556   5.913   6.064 -0.5074  1.9926  2.4003
12730TIP3   OH259680   5.801   1.763  14.577 -0.0227 -0.3228  0.5086
12730TIP3    H159681   5.793   1.774  14.482  1.6656  0.9470  0.4772
12730TIP3    H259682   5.743   1.830  14.614  0.7410  0.4278  0.3593
12731TIP3   OH259683   2.491   2.503   1.498  0.0724 -0.0706 -0.6512
12731TIP3    H159684   2.557   2.524   1.432  0.1425 -1.2626 -0.9867
12731TIP3    H259685   2.488   2.407   1.499 -1.7406 -0.0492 -0.7438
12732TIP3   OH259686   5.441   0.731   0.538 -0.4497 -0.3341 -0.1700
12732TIP3    H159687   5.401   0.646   0.525 -2.0323  0.5854 -1.7340
12732TIP3    H259688   5.410   0.784   0.465  0.7126  1.5159  0.5938
12733TIP3   OH259689   5.647   5.807  13.135  0.2504  0.0182  0.4375
12733TIP3    H159690   5.626   5.782  13.225 -1.7732  0.4537  0.1369
12733TIP3    H259691   5.573   5.773  13.083  0.0910  1.9556 -0.6957
12734TIP3   OH259692   3.929   6.182  13.702 -0.1068 -0.6049 -0.1863
12734TIP3    H159693   3.995   6.210  13.765  1.3784 -0.6189 -1.6746
12734TIP3    H259694   3.854   6.238  13.719  0.4171 -0.3038  1.2752
12735TIP3   OH259695   5.072   2.786   3.731  1.0410  0.4264  0.3972
12735TIP3    H159696   5.163   2.782   3.760  1.1627 -0.3516 -0.0666
12735TIP3    H259697   5.076   2.763   3.638  0.4052  0.6957  0.2984
12736TIP3   OH259698   1.282   6.141   3.265  0.3145  0.0461 -0.3971
12736TIP3    H159699   1.328   6.131   3.182  0.6368 -0.3331 -0.1794
12736TIP3    H259700   1.324   6.216   3.308  0.7606 -0.3161 -0.1866
12737TIP3   OH259701   5.466   3.281  11.254  0.2143 -0.1775 -1.0605
12737TIP3    H159702   5.504   3.341  11.318 -1.7879 -0.5471  0.5954
12737TIP3    H259703   5.444   3.338  11.179  1.6687  0.4489 -1.0411
12738TIP3   OH259704   2.363   3.644   3.110  0.6049 -0.1601 -0.0901
12738TIP3    H159705   2.436   3.611   3.059  0.2309  0.4259 -1.0477
12738TIP3    H259706   2.338   3.725   3.066 -0.4903 -0.2456  0.3337
12739TIP3   OH259707   0.608   0.356  14.492  0.0218  0.2329  0.2989
12739TIP3    H159708   0.645   0.444  14.482 -0.9848  0.6006 -0.3798
12739TIP3    H259709   0.637   0.328  14.579  1.5400  0.6504 -0.0307
12740TIP3   OH259710   5.277   1.367   5.776 -0.5071 -0.1064  0.4596
12740TIP3    H159711   5.227   1.290   5.802 -1.4497  0.3276 -0.0207
12740TIP3    H259712   5.261   1.431   5.846 -2.8725  0.9872 -0.9420
12741TIP3   OH259713   5.092   4.161   3.246 -0.6212 -0.2353  0.7884
12741TIP3    H159714   5.084   4.239   3.300 -0.9302  1.0787 -1.0475
12741TIP3    H259715   5.177   4.124   3.270  0.6513  2.0271  0.0963
12742TIP3   OH259716   3.258   2.671   0.684 -0.0440 -0.5649  0.2272
12742TIP3    H159717   3.235   2.630   0.767 -0.9033 -1.7606 -0.5532
12742TIP3    H259718   3.176   2.710   0.653  0.3981  0.3487  0.1958
12743TIP3   OH259719   2.109   0.679   2.261  0.0952  0.5975  0.4224
12743TIP3    H159720   2.095   0.734   2.338 -0.9763 -0.2842  0.8831
12743TIP3    H259721   2.032   0.621   2.258  1.1697 -0.8635 -0.0441
12744TIP3   OH259722   3.487   3.996   1.531  0.6595 -0.1654  0.7854
12744TIP3    H159723   3.473   3.903   1.550  0.4683 -0.3593 -0.2385
12744TIP3    H259724   3.446   4.042   1.604 -1.1961 -0.8460  0.2450
12745TIP3   OH259725   1.477   1.336  11.272  0.8884 -0.5150  0.1158
12745TIP3    H159726   1.539   1.339  11.200  1.0528  1.1914  0.2733
12745TIP3    H259727   1.526   1.300  11.345  0.4947 -3.0159 -0.7718
12746TIP3   OH259728   0.814   2.550  15.225  0.3057 -0.1143 -0.4975
12746TIP3    H159729   0.729   2.510  15.243  0.0183  0.4330 -0.6394
12746TIP3    H259730   0.877   2.483  15.252 -0.0922  0.5472  2.4861
12747TIP3   OH259731   1.238   0.793  17.192  0.6902 -0.0709  0.4019
12747TIP3    H159732   1.259   0.829  17.106  0.4750  0.0464  0.3973
12747TIP3    H259733   1.264   0.862  17.254 -0.1813  0.3109  0.3663
12748TIP3   OH259734   3.787   4.632  14.918 -0.0677  0.5206  0.3382
12748TIP3    H159735   3.741   4.617  15.001 -0.1541  0.7453  0.3320
12748TIP3    H259736   3.718   4.653  14.855  0.0354  0.7879  0.3117
12749TIP3   OH259737   3.570   4.511  15.492  0.5882  0.1381  0.4000
12749TIP3    H159738   3.478   4.484  15.489  0.6487 -0.0171 -2.1376
12749TIP3    H259739   3.603   4.473  15.573 -1.1942 -1.1428  0.5868
12750TIP3   OH259740   2.620   4.271   5.467  0.1773 -0.3675  0.6614
12750TIP3    H159741   2.644   4.238   5.381 -1.4526  0.0370  0.0151
12750TIP3    H259742   2.554   4.209   5.500  1.7393 -1.2791  2.2363
12751TIP3   OH259743   5.917   3.986   5.868 -0.9295 -0.1319  0.4833
12751TIP3    H159744   5.863   4.063   5.853 -0.0879  0.6758  1.4773
12751TIP3    H259745   6.007   4.017   5.857 -0.4969 -0.5569  2.4487
12752TIP3   OH259746   6.645   4.550  16.034  0.4551 -0.8315  0.0919
12752TIP3    H159747   6.718   4.489  16.043 -0.2920 -1.8449 -0.5670
12752TIP3    H259748   6.592   4.514  15.963 -1.6587 -1.1328  1.7431
12753TIP3   OH259749   6.396   5.462   3.985 -0.2208  0.7771  0.4769
12753TIP3    H159750   6.378   5.551   4.014  0.0047  0.8663  0.3501
12753TIP3    H259751   6.320   5.411   4.012  0.9140  0.3846  3.2971
12754TIP3   OH259752   3.752   6.095  10.638  0.0358  0.5917 -0.4479
12754TIP3    H159753   3.699   6.103  10.559 -1.4683 -1.1125  0.3227
12754TIP3    H259754   3.800   6.178  10.642 -0.4735  1.0823 -2.6612
12755TIP3   OH259755   0.900   4.560   2.503 -0.3717 -0.0340 -0.3948
12755TIP3    H159756   0.843   4.528   2.573 -0.0595  0.0404 -0.1059
12755TIP3    H259757   0.843   4.615   2.450 -0.3768  0.7113  0.3591
12756TIP3   OH259758   3.782   4.966  12.670  0.1494  0.5917 -0.1937
12756TIP3    H159759   3.688   4.981  12.660 -0.0520  0.1624  0.8906
12756TIP3    H259760   3.796   4.878  12.635  0.5031  1.3451 -2.0971
12757TIP3   OH259761   5.716   0.969  13.972 -0.2663 -0.1608 -0.4536
12757TIP3    H159762   5.661   0.891  13.964  1.1704 -1.4013  1.1471
12757TIP3    H259763   5.714   1.008  13.885 -0.2070 -2.5549 -1.5991
12758TIP3   OH259764   4.459   5.328  11.180  0.3403  0.9313 -0.1015
12758TIP3    H159765   4.535   5.270  11.182 -0.6691 -0.4239  0.3428
12758TIP3    H259766   4.423   5.318  11.091 -0.9920 -0.7290  0.5795
12759TIP3   OH259767   4.709   0.945   1.969 -0.3142  0.3436 -0.0412
12759TIP3    H159768   4.644   1.013   1.950  0.2205  0.5484 -1.2666
12759TIP3    H259769   4.682   0.871   1.916  0.4475  0.4400 -0.5857
12760TIP3   OH259770   6.546   0.790  10.565  0.2624  0.3723 -0.0389
12760TIP3    H159771   6.585   0.782  10.478 -1.5842  0.9986 -0.9726
12760TIP3    H259772   6.550   0.701  10.601  2.7536  0.4420  0.0731
12761TIP3   OH259773   4.701   6.059  15.058 -0.2702  0.0718  0.0408
12761TIP3    H159774   4.775   6.117  15.040 -0.8759  0.4195 -1.5483
12761TIP3    H259775   4.648   6.105  15.123  0.8743 -0.1624  1.1590
12762TIP3   OH259776   3.496   2.968   5.150  0.1188 -0.0171  0.4289
12762TIP3    H159777   3.417   3.008   5.113  0.7216 -1.2427 -2.4632
12762TIP3    H259778   3.547   3.043   5.182 -2.1958  0.7899  2.5602
12763TIP3   OH259779   5.206   4.522   3.602  0.5272 -0.1497  0.6541
12763TIP3    H159780   5.293   4.482   3.607  0.9434  0.7978  1.0408
12763TIP3    H259781   5.201   4.555   3.512  0.4745 -0.4031  0.5622
12764TIP3   OH259782   3.439   4.334  14.176 -0.8649 -0.4317 -0.1195
12764TIP3    H159783   3.398   4.392  14.240 -1.8301  0.0297 -1.1259
12764TIP3    H259784   3.443   4.249  14.220  0.3101  0.2967  1.2696
12765TIP3   OH259785   4.035   0.912  12.306 -0.2188 -0.1234 -0.2541
12765TIP3    H159786   4.023   1.006  12.299  0.4697  0.0565  0.8194
12765TIP3    H259787   4.083   0.899  12.387  0.3036 -1.3515 -0.7263
12766TIP3   OH259788   2.574   1.256  11.646 -0.4722 -0.2902 -0.5538
12766TIP3    H159789   2.620   1.295  11.720 -0.4913  0.9121 -1.1545
12766TIP3    H259790   2.561   1.328  11.585 -1.2050 -1.0825 -1.3649
12767TIP3   OH259791   5.166   3.381   3.000  0.4593  0.1784 -0.5235
12767TIP3    H159792   5.254   3.351   2.976  0.8740  0.6545  0.3367
12767TIP3    H259793   5.176   3.476   3.009  1.0059 -0.0864  3.8438
12768TIP3   OH259794   5.200   4.758  13.764  0.3247 -0.4808 -0.9605
12768TIP3    H159795   5.120   4.708  13.781 -0.3435  1.3615  2.1323
12768TIP3    H259796   5.190   4.789  13.674 -2.3864 -0.4275 -0.7370
12769TIP3   OH259797   4.120   0.962   2.750 -0.1425 -0.3234 -0.4757
12769TIP3    H159798   4.040   0.965   2.803 -0.7861 -0.3819 -1.4145
12769TIP3    H259799   4.190   0.943   2.813 -0.5048  2.0499  0.7472
12770TIP3   OH259800   1.503   4.637   3.951 -0.8876  0.0028  0.3800
12770TIP3    H159801   1.504   4.609   3.860  2.5778  0.8689  0.0218
12770TIP3    H259802   1.418   4.681   3.962 -1.7849 -0.9508 -2.0861
12771TIP3   OH259803   6.168   4.472   5.381 -0.0822  0.1273  0.4894
12771TIP3    H159804   6.143   4.469   5.473 -1.1654 -0.2452  0.2023
12771TIP3    H259805   6.113   4.541   5.343  0.3786  0.3029  0.1344
12772TIP3   OH259806   5.090   3.605  11.565  0.1959 -0.2586  0.1414
12772TIP3    H159807   5.073   3.542  11.495  0.4850  1.1105 -1.2154
12772TIP3    H259808   5.043   3.570  11.641  0.4822 -2.1795 -0.4933
12773TIP3   OH259809   0.905   3.003  12.770 -0.6534  0.0188 -0.2578
12773TIP3    H159810   0.830   2.946  12.754 -2.0400  1.7904 -0.3983
12773TIP3    H259811   0.938   2.975  12.856 -1.1274 -1.1217 -0.4241
12774TIP3   OH259812   2.518   1.101  16.351 -0.6447  0.5723  0.4062
12774TIP3    H159813   2.475   1.173  16.397 -0.9610  1.1400 -0.7318
12774TIP3    H259814   2.447   1.041  16.327 -0.5247  0.4313  0.3986
12775TIP3   OH259815   3.206   0.230   2.986  0.3011 -0.2338 -0.2069
12775TIP3    H159816   3.259   0.159   2.949 -0.9688 -0.8738 -0.8711
12775TIP3    H259817   3.210   0.300   2.921 -0.3092 -0.5953 -0.6447
12776TIP3   OH259818   1.940   2.487  12.379 -0.2903  0.2121  0.3029
12776TIP3    H159819   1.977   2.434  12.449 -0.4567  1.1687  1.1315
12776TIP3    H259820   2.003   2.558  12.367  1.0104 -1.1953 -2.2143
12777TIP3   OH259821   0.508   3.803  13.633  0.0959 -0.1812  0.1020
12777TIP3    H159822   0.489   3.843  13.718  2.1536  0.9200  0.0979
12777TIP3    H259823   0.480   3.712  13.642  0.4421 -0.1279  2.0274
12778TIP3   OH259824   0.689   0.157   1.319  0.0530  0.4204 -0.1568
12778TIP3    H159825   0.651   0.233   1.274 -0.7982  0.1262  0.0323
12778TIP3    H259826   0.739   0.194   1.391  0.0751  0.8284 -0.3790
12779TIP3   OH259827   4.970   1.283  12.432 -0.1845 -0.1226 -0.2722
12779TIP3    H159828   5.046   1.342  12.428 -0.7082  0.5831  0.0352
12779TIP3    H259829   5.005   1.202  12.469  0.4243  0.1808 -0.1661
12780TIP3   OH259830   5.715   5.409   5.567 -0.4237  0.0693  0.0664
12780TIP3    H159831   5.661   5.480   5.601 -1.5989 -0.3655 -0.8025
12780TIP3    H259832   5.715   5.422   5.473 -1.1262 -1.3733 -0.1596
12781TIP3   OH259833   6.433   0.844   5.622 -0.2903  0.0588 -0.4652
12781TIP3    H159834   6.350   0.872   5.583 -1.2716  0.1251  1.5436
12781TIP3    H259835   6.458   0.766   5.573 -1.1035  0.5207 -1.6504
12782TIP3   OH259836   2.145   6.010   4.856 -0.1464 -0.1011  0.3792
12782TIP3    H159837   2.128   5.946   4.925 -0.4144 -0.1814  0.2404
12782TIP3    H259838   2.068   6.006   4.800  1.4892 -2.6149 -1.9649
12783TIP3   OH259839   0.731   6.572  10.437  0.0956  0.1901 -0.4737
12783TIP3    H159840   0.704   6.588  10.527 -1.4019 -0.3347 -0.8034
12783TIP3    H259841   0.735   6.659  10.397 -2.1490  0.2536 -0.6686
12784TIP3   OH259842   5.575   6.136   0.249 -0.4605 -0.0167  0.0448
12784TIP3    H159843   5.535   6.166   0.167 -0.1150 -0.9425 -0.4846
12784TIP3    H259844   5.575   6.213   0.305 -0.1723  0.7964 -1.0273
12785TIP3   OH259845   3.708   2.092   4.786  0.1768 -0.6901 -0.1923
12785TIP3    H159846   3.636   2.046   4.743  0.5229 -1.1401 -0.3012
12785TIP3    H259847   3.674   2.180   4.803 -0.7751 -1.2092  0.7117
12786TIP3   OH259848   0.703   2.789  17.057 -0.1768 -0.1634 -0.1611
12786TIP3    H159849   0.736   2.772  16.969 -1.2507  0.5402 -0.7146
12786TIP3    H259850   0.609   2.803  17.046 -0.4549 -0.8229  1.2081
12787TIP3   OH259851   1.430   0.547   1.228 -0.1024 -0.3705  0.4248
12787TIP3    H159852   1.444   0.472   1.169 -1.4684  1.2778 -2.1823
12787TIP3    H259853   1.340   0.535   1.260 -0.3092  0.0870  0.0348
12788TIP3   OH259854   2.935   2.405   5.509  0.0880  0.6085  0.6098
12788TIP3    H159855   2.991   2.417   5.432 -0.2227  0.2150  0.3180
12788TIP3    H259856   2.974   2.462   5.576  0.4798  0.7993  0.2266
12789TIP3   OH259857   4.792   1.887   6.188 -0.7129  0.0135  0.0566
12789TIP3    H159858   4.727   1.843   6.243  0.0793 -0.4929  0.5942
12789TIP3    H259859   4.875   1.875   6.234 -0.3102  1.1107 -0.3574
12790TIP3   OH259860   0.135   6.789   6.202 -0.0143 -0.7860 -0.2500
12790TIP3    H159861   0.137   6.699   6.168  0.2375 -0.1718 -1.9411
12790TIP3    H259862   0.204   6.790   6.269 -0.0812 -1.8576 -0.1389
12791TIP3   OH259863   4.223   3.181  10.422 -0.9774  0.0380 -0.1825
12791TIP3    H159864   4.165   3.249  10.458 -0.3398  0.1266  0.7170
12791TIP3    H259865   4.220   3.110  10.486  0.2770  0.2504  0.1528
12792TIP3   OH259866   6.229   1.486  11.417  0.2271  0.6594  0.4987
12792TIP3    H159867   6.233   1.396  11.384 -1.4563  0.5298  0.5510
12792TIP3    H259868   6.139   1.513  11.399  0.6107  2.2107  0.8292
12793TIP3   OH259869   6.775   6.541   2.117 -0.4047 -0.3769  0.2561
12793TIP3    H159870   6.783   6.457   2.163 -0.2960 -0.5672 -0.1091
12793TIP3    H259871   6.753   6.517   2.027 -0.1543 -0.0217  0.0973
12794TIP3   OH259872   5.296   2.097  12.098  0.0761  0.4564  0.8376
12794TIP3    H159873   5.257   2.115  12.012  0.5199  0.2744  0.5977
12794TIP3    H259874   5.372   2.042  12.080 -0.9436 -1.2334  1.5284
12795TIP3   OH259875   3.141   0.069   5.377  0.0990  1.0705  0.4559
12795TIP3    H159876   3.195  -0.010   5.383  0.3169  1.1174 -0.6745
12795TIP3    H259877   3.204   0.141   5.372 -0.0103  1.0833 -1.4570
12796TIP3   OH259878   6.490   4.543  16.771 -0.4705 -0.1895 -0.2464
12796TIP3    H159879   6.480   4.465  16.717 -1.4607 -0.5741  0.4549
12796TIP3    H259880   6.436   4.609  16.728 -1.8435 -0.7043  0.6282
12797TIP3   OH259881   0.141   4.663  10.893  0.4330  0.3433  0.9929
12797TIP3    H159882   0.114   4.572  10.889 -0.3069  0.5700  0.6055
12797TIP3    H259883   0.232   4.663  10.863  0.4684 -0.2721  1.0861
12798TIP3   OH259884   0.280   5.733   2.608  0.3628 -0.0523  0.0603
12798TIP3    H159885   0.319   5.646   2.601 -0.1940 -0.3843  0.8856
12798TIP3    H259886   0.189   5.716   2.631  0.0045  0.7364 -0.7230
12799TIP3   OH259887   0.426   5.209   1.289 -0.2563  0.1942  0.3434
12799TIP3    H159888   0.401   5.300   1.275 -0.3726  0.0090 -0.7062
12799TIP3    H259889   0.421   5.169   1.203  2.4340 -0.1746  0.2846
12800TIP3   OH259890   3.211   1.578   5.167  0.7768  0.1289 -0.7019
12800TIP3    H159891   3.150   1.520   5.121  0.6850 -0.9351  0.6928
12800TIP3    H259892   3.160   1.658   5.183  1.2106  1.0736 -3.5143
12801TIP3   OH259893   0.253   1.915  15.262  0.3803  0.2626 -0.0450
12801TIP3    H159894   0.262   1.856  15.187  1.7124  1.8215 -1.1746
12801TIP3    H259895   0.342   1.932  15.290 -0.0863 -0.0620  1.7755
12802TIP3   OH259896   4.959   6.749   2.175 -0.0161 -0.4761  0.3712
12802TIP3    H159897   5.002   6.693   2.110 -2.2136 -0.4267 -1.2363
12802TIP3    H259898   4.989   6.837   2.154 -1.3579 -0.3586 -1.1804
12803TIP3   OH259899   6.328   6.152  11.909  0.5876  0.1238  0.5368
12803TIP3    H159900   6.310   6.156  11.815  2.4021 -1.1369  0.0691
12803TIP3    H259901   6.277   6.077  11.941  0.7124 -0.0408  0.3526
12804TIP3   OH259902   5.194   2.577  11.718 -0.4113 -0.0225 -0.5932
12804TIP3    H159903   5.282   2.545  11.698 -0.5665 -1.2623  0.5815
12804TIP3    H259904   5.176   2.642  11.650  1.7240  0.8568 -0.3878
12805TIP3   OH259905   2.955   0.976   4.879  0.4344 -0.3624  0.0337
12805TIP3    H159906   2.926   0.896   4.924 -0.9197  0.6218  1.0271
12805TIP3    H259907   2.875   1.028   4.871  0.7601 -0.1902 -2.9928
12806TIP3   OH259908   2.869   2.493  17.205 -0.1094  0.5471 -0.1160
12806TIP3    H159909   2.867   2.398  17.220 -0.1630  0.1713 -2.2241
12806TIP3    H259910   2.782   2.514  17.172  0.0565  1.2667 -0.1044
12807TIP3   OH259911   0.819   2.870  10.702  0.5313 -0.0852 -0.3830
12807TIP3    H159912   0.858   2.901  10.621 -0.7050  2.3663 -0.1254
12807TIP3    H259913   0.727   2.893  10.695  0.6061  1.3551  2.1690
12808TIP3   OH259914   0.885   6.658  11.110  0.4212  0.0216 -0.4059
12808TIP3    H159915   0.910   6.652  11.018  0.3771  2.6757 -0.6506
12808TIP3    H259916   0.799   6.615  11.114 -0.1472  0.9491 -1.8685
12809TIP3   OH259917   3.109   5.146   2.753  0.4650 -0.4536  0.4662
12809TIP3    H159918   3.092   5.222   2.808  1.6305  2.1908 -2.5189
12809TIP3    H259919   3.023   5.114   2.728 -0.0435 -0.0503  1.6323
12810TIP3   OH259920   2.032   3.958   0.982 -0.2633  0.3311  0.4365
12810TIP3    H159921   2.024   4.022   1.053  2.8167  2.8175 -1.1522
12810TIP3    H259922   2.037   4.012   0.903 -0.5095 -2.1371 -1.3477
12811TIP3   OH259923   3.026   0.467   2.356  0.4105 -0.2859 -0.0592
12811TIP3    H159924   2.963   0.526   2.315 -0.3148  0.4805  2.0173
12811TIP3    H259925   2.973   0.416   2.419  1.5613 -0.8796  0.4519
12812TIP3   OH259926   0.168   5.259   1.429  0.9071  0.0362 -0.3401
12812TIP3    H159927   0.232   5.309   1.379  2.4631 -2.9516 -1.5925
12812TIP3    H259928   0.103   5.232   1.365  0.4245 -0.0802  0.1859
12813TIP3   OH259929   5.973   3.827   3.674 -0.4855  0.1212  0.2674
12813TIP3    H159930   6.036   3.844   3.745 -1.0143  1.0104  0.5285
12813TIP3    H259931   5.934   3.912   3.656  0.4706  0.1508 -1.9224
12814TIP3   OH259932   0.403   6.810   1.628 -0.2616  0.0576  0.2274
12814TIP3    H159933   0.343   6.884   1.618  2.1362  2.0420 -0.7062
12814TIP3    H259934   0.387   6.756   1.550  1.5015  2.5078 -2.0279
12815TIP3   OH259935   1.871   1.740   0.864 -0.2273 -0.3535 -0.0248
12815TIP3    H159936   1.794   1.724   0.919  1.0603 -1.7486  1.4853
12815TIP3    H259937   1.867   1.673   0.796  0.0835 -0.9595  0.5501
12816TIP3   OH259938   5.866   1.162  10.624 -0.2516  0.3677  0.1439
12816TIP3    H159939   5.951   1.141  10.662 -0.9931 -1.5136  0.8802
12816TIP3    H259940   5.886   1.223  10.553  1.7750 -0.4981 -0.0961
12817TIP3   OH259941   1.029   5.414   5.954 -0.1238  0.2256 -0.0893
12817TIP3    H159942   1.050   5.496   5.999 -2.1760  0.3621  0.7479
12817TIP3    H259943   1.031   5.436   5.861  1.5711  0.6162  0.0099
12818TIP3   OH259944   4.719   2.408   5.204  0.4738  0.0075 -0.3036
12818TIP3    H159945   4.653   2.382   5.140  0.6332  1.9019 -1.2992
12818TIP3    H259946   4.674   2.472   5.259  1.2118  0.6564 -0.4420
12819TIP3   OH259947   3.183   4.617   0.871 -0.2815  0.1890  0.1415
12819TIP3    H159948   3.232   4.535   0.870 -0.7332 -0.0805  0.1582
12819TIP3    H259949   3.246   4.681   0.905 -0.0940 -0.2565  0.6470
12820TIP3   OH259950   6.148   0.168  14.597  0.3484  0.3817  0.1330
12820TIP3    H159951   6.149   0.262  14.576 -1.5648  0.0867 -1.6152
12820TIP3    H259952   6.097   0.163  14.678  2.6869  1.0167  1.7351
12821TIP3   OH259953   3.208   2.818   6.063  0.2330  0.4871 -0.3306
12821TIP3    H159954   3.291   2.829   6.111  0.1285  1.7567 -0.4090
12821TIP3    H259955   3.226   2.747   6.000  0.8957 -0.0315  0.4240
12822TIP3   OH259956   5.449   5.728   5.170 -0.4418  0.0208 -0.0121
12822TIP3    H159957   5.506   5.803   5.185 -2.9867  2.0841  0.0371
12822TIP3    H259958   5.464   5.706   5.078  1.3061 -0.3531  0.3165
12823TIP3   OH259959   5.383   4.016   0.126  0.1909 -0.2666  0.3297
12823TIP3    H159960   5.335   4.097   0.141 -1.4828 -1.4782  2.0223
12823TIP3    H259961   5.402   4.016   0.032  0.2603  2.0493  0.2920
12824TIP3   OH259962   3.144   6.606  16.486  0.0917 -0.0332 -0.1863
12824TIP3    H159963   3.147   6.658  16.566  0.7128 -0.7226  0.2552
12824TIP3    H259964   3.230   6.563  16.482  0.4965  0.8221 -1.7865
12825TIP3   OH259965   4.918   4.958  16.498  0.0080 -0.2876 -1.0040
12825TIP3    H159966   4.977   4.991  16.429 -1.2369  0.3044 -1.8257
12825TIP3    H259967   4.831   4.962  16.458 -0.6750 -0.4548  0.4337
12826TIP3   OH259968   0.149   0.798  16.315  0.0177  0.0652 -0.9524
12826TIP3    H159969   0.128   0.869  16.255  0.6163  0.0426 -1.1923
12826TIP3    H259970   0.187   0.841  16.392  0.9042 -0.0317 -1.3330
12827TIP3   OH259971   0.066   4.005  10.948 -0.1939 -0.1558  0.1935
12827TIP3    H159972   0.093   3.915  10.933  1.8408  0.3086  0.7486
12827TIP3    H259973   0.124   4.036  11.017 -1.5403  1.2807  0.7315
12828TIP3   OH259974   0.342   4.568   1.098 -0.3289 -0.6298  0.4427
12828TIP3    H159975   0.351   4.657   1.063  0.7918 -1.0119 -0.2903
12828TIP3    H259976   0.262   4.534   1.058  0.0001 -0.4376 -0.4008
12829TIP3   OH259977   0.243   3.198  12.669 -0.0591 -0.4104 -0.7647
12829TIP3    H159978   0.273   3.268  12.611 -0.8104  0.4225 -0.1810
12829TIP3    H259979   0.160   3.169  12.631 -0.9931  0.7260  0.3068
12830TIP3   OH259980   6.265   3.489   0.824 -0.2469 -0.0796  0.8184
12830TIP3    H159981   6.335   3.458   0.881  0.3969  0.5725  0.4125
12830TIP3    H259982   6.269   3.585   0.831 -0.5837 -0.0106  0.1998
12831TIP3   OH259983   4.573   4.532  17.008  0.0966  0.2814 -0.4136
12831TIP3    H159984   4.631   4.556  17.080 -0.6673  2.2097 -0.3718
12831TIP3    H259985   4.630   4.528  16.931  0.2393  3.3114 -0.5993
12832TIP3   OH259986   5.778   5.198   1.739  0.2558 -0.9936 -0.7897
12832TIP3    H159987   5.824   5.205   1.655  1.3052 -0.7101 -0.2097
12832TIP3    H259988   5.767   5.288   1.768  2.6145 -1.1154  0.7766
12833TIP3   OH259989   6.552   6.593   3.235 -0.0535 -0.0703 -0.1221
12833TIP3    H159990   6.531   6.591   3.329  0.4717 -0.7445 -0.0117
12833TIP3    H259991   6.623   6.528   3.225  1.4829  1.5938 -0.5892
12834TIP3   OH259992   2.433   0.995   0.268 -0.4515  0.2122 -0.0371
12834TIP3    H159993   2.448   0.924   0.331  0.5720  0.3259 -0.1357
12834TIP3    H259994   2.339   1.012   0.273 -0.6798 -0.9972  0.1539
12835TIP3   OH259995   6.508   4.678   4.453  0.3959 -0.3774 -0.5266
12835TIP3    H159996   6.584   4.726   4.486  0.6082 -1.8133  1.2128
12835TIP3    H259997   6.522   4.588   4.482 -1.9385 -0.6929 -0.1964
12836TIP3   OH259998   3.010   4.036  14.116 -0.2119  0.2490  0.2134
12836TIP3    H159999   3.034   3.945  14.099  0.0284  0.2050  0.7861
12836TIP3    H260000   3.055   4.059  14.197  1.2596  1.4727 -0.8908
12837TIP3   OH260001   3.260   6.301   0.826 -0.0050  0.1552 -0.0446
12837TIP3    H160002   3.342   6.326   0.783 -0.0313 -0.4458 -0.4597
12837TIP3    H260003   3.192   6.349   0.779  0.2522  2.3016  1.6175
12838TIP3   OH260004   1.524   4.775  11.404  0.2875  0.4078 -0.2230
12838TIP3    H160005   1.458   4.727  11.454 -0.7279  0.6779 -1.2716
12838TIP3    H260006   1.568   4.829  11.470 -1.2450  1.0029  0.3776
12839TIP3   OH260007   1.313   2.817  11.216 -0.2275 -0.1515 -0.0808
12839TIP3    H160008   1.319   2.790  11.308 -0.7672 -0.9166 -0.2617
12839TIP3    H260009   1.344   2.741  11.167  0.2672  0.3340 -0.5303
12840TIP3   OH260010   0.201   0.023  16.670 -0.4832 -0.2697 -0.3010
12840TIP3    H160011   0.143  -0.028  16.612  0.3314 -0.2253 -1.1852
12840TIP3    H260012   0.152   0.104  16.687 -1.2932 -0.8425  0.1636
12841TIP3   OH260013   4.320   6.266   2.838  0.0483 -0.3425 -0.3931
12841TIP3    H160014   4.258   6.330   2.804 -0.8773  0.1455  1.9713
12841TIP3    H260015   4.328   6.288   2.931  2.0303 -1.8244 -0.1437
12842TIP3   OH260016   5.176   5.791   4.928  0.1215 -0.3603  0.3736
12842TIP3    H160017   5.264   5.826   4.942 -0.8114  1.1670  3.3622
12842TIP3    H260018   5.120   5.869   4.923 -1.3278 -1.3128  1.0266
12843TIP3   OH260019   0.107   2.992  13.289  0.7443  0.6611 -0.9303
12843TIP3    H160020   0.098   3.012  13.196  1.2270  0.0459 -1.1208
12843TIP3    H260021   0.146   3.071  13.327  0.6281  0.8816 -1.2633
12844TIP3   OH260022   1.745   4.109   0.505 -0.4368 -0.4584  0.2008
12844TIP3    H160023   1.838   4.108   0.527 -0.6114 -1.1555  0.9271
12844TIP3    H260024   1.714   4.020   0.522 -0.6664 -1.0368 -2.6460
12845TIP3   OH260025   0.646   2.449   1.018  0.0939 -0.0755  0.1845
12845TIP3    H160026   0.628   2.484   1.106 -0.3734  2.2319 -0.7589
12845TIP3    H260027   0.727   2.492   0.992  1.0489 -1.9009  0.0316
12846TIP3   OH260028   3.892   5.979  11.943  0.6356  0.8112 -0.4514
12846TIP3    H160029   3.931   5.947  12.024  2.5710  1.4263 -1.0939
12846TIP3    H260030   3.933   6.064  11.928 -2.2633  2.3816 -0.2697
12847TIP3   OH260031   1.468   4.223   0.741  0.5134 -0.4833  0.3279
12847TIP3    H160032   1.383   4.219   0.785  0.5527  3.9762  1.3205
12847TIP3    H260033   1.447   4.249   0.651  0.7810  0.0003  0.4017
12848TIP3   OH260034   3.270   3.324   1.375 -0.4254 -0.4960 -0.2954
12848TIP3    H160035   3.192   3.313   1.320  0.8927  0.2101 -2.4671
12848TIP3    H260036   3.293   3.235   1.401 -1.1054 -0.8691 -0.9119
12849TIP3   OH260037   3.382   2.749   2.409  0.2081  0.3223  0.3518
12849TIP3    H160038   3.398   2.717   2.498 -1.6781 -1.0111  0.2678
12849TIP3    H260039   3.409   2.841   2.411 -0.8722  0.6563  2.6428
12850TIP3   OH260040   5.379   1.145  11.709 -0.3932  0.1043 -0.9213
12850TIP3    H160041   5.303   1.091  11.687 -1.0193  1.1776 -1.4525
12850TIP3    H260042   5.453   1.084  11.708 -1.1802 -0.8637 -0.8437
12851TIP3   OH260043   6.483   2.585  11.364 -0.3376  0.0938 -0.5937
12851TIP3    H160044   6.483   2.498  11.324 -0.8327 -0.2656  0.1650
12851TIP3    H260045   6.393   2.616  11.355 -1.0574 -0.9176  2.1355
12852TIP3   OH260046   1.805   1.321  17.121  0.9386  0.1228  0.2448
12852TIP3    H160047   1.857   1.281  17.191  2.3471  1.4068 -0.0106
12852TIP3    H260048   1.783   1.408  17.154 -0.1907 -0.0211 -0.0831
12853TIP3   OH260049   4.286   6.146  11.164  0.2794  0.5797  0.5578
12853TIP3    H160050   4.319   6.231  11.196  0.4928  0.6164  0.2390
12853TIP3    H260051   4.353   6.083  11.191  2.7124  1.1108 -3.4225
12854TIP3   OH260052   6.530   1.725   6.094  0.0225 -0.0473  0.2114
12854TIP3    H160053   6.620   1.751   6.078  0.0503  1.2477  2.1079
12854TIP3    H260054   6.494   1.795   6.149 -1.8280 -1.0282  0.3386
12855TIP3   OH260055   2.706   2.682   4.896  0.1304  0.0192  0.2660
12855TIP3    H160056   2.658   2.601   4.914 -0.8311  0.3753 -0.5622
12855TIP3    H260057   2.791   2.653   4.864 -0.0208 -0.6554  0.4606
12856TIP3   OH260058   4.462   4.145  16.208  0.7922  0.2791  0.2828
12856TIP3    H160059   4.528   4.202  16.247 -1.6725  1.8837  2.4602
12856TIP3    H260060   4.408   4.117  16.282 -1.3893 -0.3342 -1.4314
12857TIP3   OH260061   6.165   4.121  16.304 -0.5314 -0.3185 -0.1688
12857TIP3    H160062   6.250   4.116  16.261 -1.6254 -0.3996 -2.4827
12857TIP3    H260063   6.166   4.205  16.350  0.6681 -0.1703 -0.4468
12858TIP3   OH260064   2.543   2.241  11.804 -0.4737 -0.1155  0.1254
12858TIP3    H160065   2.618   2.228  11.745 -3.0221 -2.1831 -3.0328
12858TIP3    H260066   2.526   2.335  11.800  1.4847  0.3055  0.4219
12859TIP3   OH260067   0.349   2.829  11.586 -0.0979  0.1010 -0.1619
12859TIP3    H160068   0.368   2.735  11.575  0.7682  0.4411 -1.9620
12859TIP3    H260069   0.256   2.832  11.605 -0.2682 -1.1103 -0.6593
12860TIP3   OH260070   6.228   5.770   5.595 -0.4673 -0.5159 -0.0903
12860TIP3    H160071   6.220   5.815   5.679 -0.7671  0.1139 -0.4527
12860TIP3    H260072   6.320   5.743   5.591 -0.5306 -0.8787  0.5966
12861TIP3   OH260073   1.242   5.592   3.551  0.4145 -0.9387  0.7963
12861TIP3    H160074   1.186   5.651   3.501  1.4983  0.2644  0.9329
12861TIP3    H260075   1.209   5.504   3.531  0.0484 -0.4311 -1.0789
12862TIP3   OH260076   6.295   0.462   0.165  0.3672  0.6745 -0.4310
12862TIP3    H160077   6.219   0.460   0.223  1.1006 -1.0314  0.5561
12862TIP3    H260078   6.343   0.540   0.192 -0.0819  0.7346  0.2317
12863TIP3   OH260079   1.004   5.336  11.694  0.2409  0.0895  0.0452
12863TIP3    H160080   1.076   5.346  11.756  0.1321 -0.0546  0.1958
12863TIP3    H260081   0.941   5.279  11.739 -0.4826  1.1235  0.3672
12864TIP3   OH260082   3.359   4.566   0.308  0.4946 -0.0071 -0.1142
12864TIP3    H160083   3.409   4.543   0.230  0.9254  0.0709  0.1371
12864TIP3    H260084   3.268   4.551   0.283  0.4929  1.5555 -1.1651
12865TIP3   OH260085   5.503   4.587   5.172  0.6482 -0.6080  0.1057
12865TIP3    H160086   5.557   4.640   5.231 -1.6415  1.9352  0.1427
12865TIP3    H260087   5.541   4.603   5.085  1.4867 -0.9387  0.4053
12866TIP3   OH260088   0.117   0.858   4.147 -0.1080 -0.6644  0.1543
12866TIP3    H160089   0.152   0.835   4.061  4.0782 -0.3089  1.5461
12866TIP3    H260090   0.155   0.794   4.207 -1.5756  0.0589  1.9542
12867TIP3   OH260091   0.057   5.900   2.815 -0.2902  0.0799  0.0537
12867TIP3    H160092  -0.025   5.949   2.801 -0.6163 -0.2351  0.8202
12867TIP3    H260093   0.126   5.965   2.803 -0.7260  0.8174  1.3799
12868TIP3   OH260094   5.448   4.857  15.763 -0.8897 -0.2022 -0.4309
12868TIP3    H160095   5.440   4.860  15.667  0.3995 -0.0348 -0.5571
12868TIP3    H260096   5.481   4.769  15.781  2.5630  0.9011 -0.5346
12869TIP3   OH260097   4.067   5.061   0.470 -0.5153  0.3295 -0.2538
12869TIP3    H160098   4.137   4.996   0.470 -0.0524  0.8067  0.4141
12869TIP3    H260099   4.047   5.075   0.377 -0.2092 -0.3243 -0.4214
12870TIP3   OH260100   2.229   1.957   6.498 -0.5729  0.2836 -0.2518
12870TIP3    H160101   2.184   1.874   6.482  1.7180 -1.1258  0.0675
12870TIP3    H260102   2.211   1.977   6.590 -1.8439  0.6292 -0.5633
12871TIP3   OH260103   0.188   1.891   4.651 -0.3745 -0.4015  0.0469
12871TIP3    H160104   0.214   1.830   4.720  1.1033  0.7471  0.5620
12871TIP3    H260105   0.105   1.928   4.680  0.1691 -0.0321  1.1692
12872TIP3   OH260106   4.156   1.526   0.842 -0.0953 -0.1370 -0.1966
12872TIP3    H160107   4.234   1.543   0.894  0.5608 -1.5949 -0.6589
12872TIP3    H260108   4.138   1.433   0.855 -1.1705 -0.0338 -0.8777
12873TIP3   OH260109   1.279   2.841  10.849 -0.0718  0.0044  0.4168
12873TIP3    H160110   1.357   2.878  10.889 -0.0810  0.5416 -0.0441
12873TIP3    H260111   1.301   2.750  10.833  0.6805  0.2918 -0.2500
12874TIP3   OH260112   5.381   2.655  17.078  0.4183  0.1618  0.1949
12874TIP3    H160113   5.404   2.719  17.010  1.5317  0.5398  0.9002
12874TIP3    H260114   5.356   2.576  17.030  1.4028  0.3478 -0.6472
12875TIP3   OH260115   5.822   3.057  15.656 -0.1490  0.1578 -0.1685
12875TIP3    H160116   5.886   3.035  15.588 -0.9901 -0.8635 -0.6599
12875TIP3    H260117   5.778   3.136  15.623  0.1924  0.2997 -0.2894
12876TIP3   OH260118   0.532   5.793  13.142  0.0854 -0.6473 -0.1898
12876TIP3    H160119   0.539   5.704  13.176 -1.4332 -0.7767 -0.1484
12876TIP3    H260120   0.612   5.805  13.090 -0.2994 -2.5342 -1.3168
12877TIP3   OH260121   5.304   5.011   5.372  0.1513  0.8860 -0.3065
12877TIP3    H160122   5.359   5.044   5.301  0.2166  1.3444 -0.0415
12877TIP3    H260123   5.296   5.084   5.433 -0.3123  0.6528 -0.0805
12878TIP3   OH260124   4.996   5.476  14.509  0.0882 -0.8555 -0.7945
12878TIP3    H160125   5.025   5.560  14.543 -0.3570 -0.7128 -0.7683
12878TIP3    H260126   4.916   5.456  14.557 -0.3346 -0.8368 -1.4739
12879TIP3   OH260127   6.723   3.363   5.353  0.0671 -0.3194  0.0769
12879TIP3    H160128   6.665   3.288   5.337 -0.1089 -0.0313 -0.6482
12879TIP3    H260129   6.803   3.324   5.389 -0.3339 -0.7763  0.4921
12880TIP3   OH260130   0.554   5.455  15.356  0.2790 -0.1706  0.0114
12880TIP3    H160131   0.644   5.484  15.364 -0.0475  0.4640  2.5174
12880TIP3    H260132   0.535   5.415  15.441 -2.2304  1.0952  0.1425
12881TIP3   OH260133   1.862   2.180  14.243  0.1955  0.4608 -0.1170
12881TIP3    H160134   1.893   2.269  14.261 -0.1130  0.8624 -1.4388
12881TIP3    H260135   1.816   2.187  14.159  0.3327 -0.9908 -0.3446
12882TIP3   OH260136   0.062   1.791  14.704  0.0328 -0.5083  0.5903
12882TIP3    H160137   0.040   1.794  14.797 -0.4554 -0.4610  0.4767
12882TIP3    H260138  -0.016   1.755  14.662 -0.1139  0.3588  0.0964
12883TIP3   OH260139   0.865   3.750   4.077 -0.0840 -0.0656  0.4156
12883TIP3    H160140   0.865   3.708   4.163 -0.7813 -0.4420  0.2359
12883TIP3    H260141   0.810   3.694   4.022  1.2996 -0.5013 -0.6150
12884TIP3   OH260142   2.633   5.011  13.137 -0.0273 -0.4074 -0.2447
12884TIP3    H160143   2.555   5.064  13.120 -1.0426 -1.8073 -0.1300
12884TIP3    H260144   2.683   5.015  13.056  0.4042  1.4758  0.0775
12885TIP3   OH260145   5.475   4.064  15.250  0.3792  0.1536  0.3572
12885TIP3    H160146   5.397   4.013  15.273 -0.3245  0.7465 -0.5972
12885TIP3    H260147   5.493   4.040  15.159  0.6735  0.7896  0.2377
12886TIP3   OH260148   6.600   4.326  12.682  0.5544 -0.1513 -0.1713
12886TIP3    H160149   6.557   4.395  12.631 -1.9639 -1.6534 -0.2360
12886TIP3    H260150   6.690   4.326  12.651 -0.2310  0.8151 -2.6850
12887TIP3   OH260151   2.372   6.810  16.796  0.0041  0.0853  0.3777
12887TIP3    H160152   2.308   6.841  16.861 -3.7186 -0.8871 -2.4568
12887TIP3    H260153   2.369   6.876  16.727  1.3255 -0.5335 -0.2930
12888TIP3   OH260154   6.255   2.713  11.573 -0.0076 -0.5236 -0.8116
12888TIP3    H160155   6.188   2.697  11.506 -1.2165  0.0748  0.2082
12888TIP3    H260156   6.288   2.800  11.553  0.4540 -0.8048 -1.2957
12889TIP3   OH260157   0.786   1.724   3.651  0.2126 -0.3305 -0.4295
12889TIP3    H160158   0.789   1.808   3.698 -2.0779  1.5564 -3.2584
12889TIP3    H260159   0.750   1.662   3.714 -0.4176  1.4510  1.0413
12890TIP3   OH260160   4.171   2.700   2.906  0.7957  0.2571 -0.7400
12890TIP3    H160161   4.202   2.637   2.971  1.3997  0.7565 -0.5381
12890TIP3    H260162   4.086   2.665   2.878 -0.5280  1.1155  1.8841
12891TIP3   OH260163   4.729   4.425   5.028  0.2015 -0.1787 -0.1962
12891TIP3    H160164   4.754   4.363   5.097 -0.2822  0.0042  0.1483
12891TIP3    H260165   4.697   4.501   5.076  0.3689  0.1623 -0.6241
12892TIP3   OH260166   6.021   0.732  16.609 -0.3158  0.5887 -0.0144
12892TIP3    H160167   5.931   0.699  16.614 -0.3974  0.8367  0.1335
12892TIP3    H260168   6.051   0.733  16.699 -0.7240  2.0619  0.1320
12893TIP3   OH260169   5.892   2.894  13.139 -0.4626 -0.7205 -0.0148
12893TIP3    H160170   5.811   2.868  13.183 -1.1228 -0.5177 -1.0754
12893TIP3    H260171   5.874   2.982  13.105  0.6591 -0.1359  0.8407
12894TIP3   OH260172   2.808   0.491   5.066 -0.0995  0.0652  0.0897
12894TIP3    H160173   2.830   0.426   5.133  0.0540  0.1285  0.1006
12894TIP3    H260174   2.871   0.474   4.996 -1.1470 -0.9245 -0.6434
12895TIP3   OH260175   4.435   0.180   3.865  0.2178 -0.5468  0.2443
12895TIP3    H160176   4.430   0.173   3.961 -0.6088 -0.0677  0.2480
12895TIP3    H260177   4.348   0.151   3.835 -0.0130  0.6560 -0.2688
12896TIP3   OH260178   3.814   1.571  17.222 -0.5090  0.0467 -0.7142
12896TIP3    H160179   3.856   1.572  17.308  0.1873 -0.2447 -1.0426
12896TIP3    H260180   3.810   1.663  17.197  0.0536  0.0717 -0.7293
12897TIP3   OH260181   5.302   4.484   1.406  0.1330  0.2328 -0.5238
12897TIP3    H160182   5.328   4.537   1.481  1.3027 -0.0081 -0.7404
12897TIP3    H260183   5.334   4.532   1.330  1.0366 -0.6597 -0.7325
12898TIP3   OH260184   3.798   3.463   0.549 -0.2766 -0.0376  0.6009
12898TIP3    H160185   3.730   3.526   0.526  1.4346  0.8637 -2.7313
12898TIP3    H260186   3.872   3.517   0.576 -0.7609 -1.0029  4.4064
12899TIP3   OH260187   6.728   2.032  12.397 -0.3688  0.0857  0.2283
12899TIP3    H160188   6.767   2.000  12.315 -0.9747  1.6878 -0.7350
12899TIP3    H260189   6.636   2.004  12.392 -0.5506  0.6943  0.0597
12900TIP3   OH260190   6.612   3.686   0.561 -0.6705  0.3830 -0.4512
12900TIP3    H160191   6.620   3.621   0.491 -2.2534 -1.3088  0.8595
12900TIP3    H260192   6.604   3.769   0.515  2.1827 -0.1587 -2.1736
12901TIP3   OH260193   1.570   5.259  11.868  0.2733  0.1951  0.4897
12901TIP3    H160194   1.661   5.241  11.845 -0.2099 -0.5170 -1.0189
12901TIP3    H260195   1.519   5.202  11.810 -1.1244  0.1251  1.7307
12902TIP3   OH260196   4.356   0.582  14.595 -0.0664  0.2616 -0.2131
12902TIP3    H160197   4.394   0.597  14.681  0.9191 -1.2651 -0.3431
12902TIP3    H260198   4.335   0.488  14.594 -0.1274  0.2707 -1.6037
12903TIP3   OH260199   2.100   4.381  15.792 -0.3915 -0.2675  0.0298
12903TIP3    H160200   2.152   4.438  15.849 -1.1511  0.0411  0.4206
12903TIP3    H260201   2.027   4.436  15.763  0.0539 -0.3702 -1.3693
12904TIP3   OH260202   2.849   6.198  11.617 -0.3444  0.1257 -0.0780
12904TIP3    H160203   2.865   6.202  11.523 -0.6082 -1.5093 -0.2262
12904TIP3    H260204   2.758   6.170  11.626  0.8193 -4.3196  0.4841
12905TIP3   OH260205   0.107   1.905  12.251  0.2615 -0.5157  0.0343
12905TIP3    H160206   0.162   1.942  12.181  0.1885 -2.4022 -1.0915
12905TIP3    H260207   0.163   1.841  12.294 -0.1404 -0.3461  0.8230
12906TIP3   OH260208   5.359   5.959   1.599 -0.4378  0.0648 -0.2817
12906TIP3    H160209   5.299   5.884   1.601  1.0245 -1.1828 -1.0504
12906TIP3    H260210   5.437   5.928   1.645 -0.4678  1.7765  0.9971
12907TIP3   OH260211   5.963   3.363  11.670 -0.9655 -0.6438  0.5780
12907TIP3    H160212   5.999   3.322  11.592  1.2098 -0.1974  1.2520
12907TIP3    H260213   5.946   3.454  11.645 -0.2120 -0.4856  0.5961
12908TIP3   OH260214   3.289   6.317   6.356  0.5944  0.4745  0.1152
12908TIP3    H160215   3.307   6.319   6.450  3.5447 -1.2818 -0.2734
12908TIP3    H260216   3.251   6.230   6.341 -0.8769  1.1474 -0.2185
12909TIP3   OH260217   3.775   4.270  15.517 -0.4879 -0.6038  0.3946
12909TIP3    H160218   3.756   4.322  15.595 -2.0348 -0.3775 -0.1099
12909TIP3    H260219   3.865   4.239  15.531  0.8198  2.7576  0.3939
12910TIP3   OH260220   5.381   5.136  11.230 -0.0297  0.2867 -0.3046
12910TIP3    H160221   5.442   5.113  11.300  1.8634  0.1262 -1.9151
12910TIP3    H260222   5.385   5.231  11.224 -1.1751  0.4174  0.5954
12911TIP3   OH260223   6.681   2.017   5.004  0.2178  0.4991 -0.1744
12911TIP3    H160224   6.612   2.060   4.953 -0.4087  0.2618  0.4582
12911TIP3    H260225   6.742   1.984   4.938  0.6855  2.2838 -0.6984
12912TIP3   OH260226   6.572   3.756  15.149 -0.3482  0.3601 -0.3164
12912TIP3    H160227   6.553   3.698  15.223  0.1408  0.3040 -0.2321
12912TIP3    H260228   6.541   3.709  15.073 -1.3617  0.6532 -0.0971
12913TIP3   OH260229   0.779   0.764  16.949  0.4342  0.6495 -0.1131
12913TIP3    H160230   0.811   0.840  16.997 -0.4316  0.7188  0.3639
12913TIP3    H260231   0.782   0.790  16.857 -0.1334  1.3574  0.0655
12914TIP3   OH260232   1.831   1.180  13.971  0.1952  0.4807  0.1403
12914TIP3    H160233   1.775   1.102  13.973  1.1561 -0.2209  0.3398
12914TIP3    H260234   1.857   1.193  14.062 -2.7254  3.1491  0.8089
12915TIP3   OH260235   2.107   4.560   1.649 -0.2334  0.0630 -0.1842
12915TIP3    H160236   2.036   4.623   1.644 -0.7226 -0.2846  1.7385
12915TIP3    H260237   2.128   4.540   1.558  1.3669  4.5188 -1.0146
12916TIP3   OH260238   2.006   5.217  14.244 -0.2870 -0.2472 -0.0335
12916TIP3    H160239   2.059   5.139  14.262  0.6168  0.5948  1.0677
12916TIP3    H260240   1.947   5.224  14.319 -0.4201  0.0851 -0.1661
12917TIP3   OH260241   5.391   4.604   1.167 -0.6099  0.5078  0.0410
12917TIP3    H160242   5.425   4.570   1.084  0.3600 -0.4357  0.8141
12917TIP3    H260243   5.455   4.670   1.194 -0.4214  0.1175  0.5349
12918TIP3   OH260244   0.307   4.643  14.448  0.8157  0.4595 -0.1211
12918TIP3    H160245   0.254   4.681  14.378  1.7273  1.5993 -0.2111
12918TIP3    H260246   0.342   4.718  14.496 -0.2877 -0.2740  1.9704
12919TIP3   OH260247   0.578   5.937  14.490 -0.1945 -0.3644  0.4108
12919TIP3    H160248   0.542   6.010  14.540  3.0725  2.3038 -0.7831
12919TIP3    H260249   0.601   5.974  14.405  2.7689 -2.3764  0.1618
12920TIP3   OH260250   0.682   2.218  16.884 -0.5777  0.0195 -0.7446
12920TIP3    H160251   0.748   2.237  16.818 -0.6804 -1.8381 -1.4084
12920TIP3    H260252   0.720   2.149  16.938 -0.9583  0.7097  0.4576
12921TIP3   OH260253   3.171   2.099  11.507  0.3148 -0.2091 -0.1582
12921TIP3    H160254   3.119   2.059  11.438  0.9639  0.7518 -1.2545
12921TIP3    H260255   3.253   2.125  11.464  0.9808 -0.0843  1.1065
12922TIP3   OH260256   6.304   2.082   5.799 -0.2534  0.0919 -0.2557
12922TIP3    H160257   6.286   2.011   5.738 -3.5239  2.0372 -1.8740
12922TIP3    H260258   6.229   2.083   5.858 -0.3293  2.1427 -0.3000
12923TIP3   OH260259   2.416   4.771  15.525 -0.0732  0.2051  0.4334
12923TIP3    H160260   2.402   4.677  15.514  0.7662  0.0211  0.8278
12923TIP3    H260261   2.330   4.807  15.543 -0.6543 -0.2686 -1.1794
12924TIP3   OH260262   4.813   4.183   0.577  0.0804 -0.3240 -0.7683
12924TIP3    H160263   4.894   4.140   0.602  0.9505  0.6313 -1.8439
12924TIP3    H260264   4.795   4.243   0.650  1.1553  0.5148 -1.1608
12925TIP3   OH260265   5.751   4.264  16.359  0.3741  0.1822  0.4139
12925TIP3    H160266   5.801   4.339  16.391  4.3247 -2.3827  0.8711
12925TIP3    H260267   5.705   4.231  16.437 -0.1482  1.1480  0.5371
12926TIP3   OH260268   2.815   0.315   0.891  0.0260  0.4859  0.1672
12926TIP3    H160269   2.883   0.299   0.956 -1.0918  0.8638  1.4597
12926TIP3    H260270   2.777   0.399   0.915  0.2881  1.1815 -1.6382
12927TIP3   OH260271   1.354   5.982   0.052  0.7169  1.0989 -0.2030
12927TIP3    H160272   1.359   5.950  -0.038  2.3836  0.1853  0.1841
12927TIP3    H260273   1.438   5.958   0.091 -0.0740  1.2407  1.6842
12928TIP3   OH260274   5.387   0.999   1.139 -0.5308  0.5174  0.1116
12928TIP3    H160275   5.416   0.943   1.067  1.8193  1.7994 -0.0309
12928TIP3    H260276   5.319   0.948   1.184  0.3927 -1.7393 -0.9265
12929TIP3   OH260277   3.575   0.145   4.547 -0.2852 -0.2196  0.2443
12929TIP3    H160278   3.494   0.114   4.588 -1.9089  1.7220 -1.2805
12929TIP3    H260279   3.573   0.240   4.558  0.9527  0.0297 -1.2621
12930TIP3   OH260280   4.975   4.501   5.412  0.4465 -0.2485  0.2892
12930TIP3    H160281   5.027   4.510   5.492  0.8472 -0.8177  0.1005
12930TIP3    H260282   5.034   4.525   5.341  0.4217 -0.7739  0.0838
12931TIP3   OH260283   2.000   4.837   6.697  0.0735  0.2188  0.1277
12931TIP3    H160284   2.010   4.776   6.625 -0.3574  0.1267  0.1452
12931TIP3    H260285   2.081   4.829   6.747 -0.4185 -1.1568  0.7492
12932TIP3   OH260286   2.476   3.103  10.622 -0.1347  0.1830  0.2894
12932TIP3    H160287   2.442   3.094  10.711 -3.3456  1.3409 -0.6536
12932TIP3    H260288   2.416   3.050  10.569  1.2715  0.0981 -1.2845
12933TIP3   OH260289   3.808   2.262  16.508  0.1387 -0.1945 -0.1337
12933TIP3    H160290   3.769   2.180  16.540  1.9996 -0.8803  0.5655
12933TIP3    H260291   3.854   2.236  16.428 -1.0869  0.6613 -1.1395
12934TIP3   OH260292   0.611   0.356   3.169  0.2640 -0.1387  0.7191
12934TIP3    H160293   0.619   0.265   3.195  1.3974  0.1090  1.3381
12934TIP3    H260294   0.680   0.369   3.104 -1.3593 -0.2783 -1.1089
12935TIP3   OH260295   5.242   0.513   4.064  0.1427  0.0084  0.0420
12935TIP3    H160296   5.278   0.576   4.126 -0.5770 -0.2547  0.7422
12935TIP3    H260297   5.261   0.427   4.103  0.8922 -0.2177 -0.7776
12936TIP3   OH260298   5.064   2.728   6.033 -0.0619  0.4597  0.3917
12936TIP3    H160299   5.035   2.674   6.107 -0.6248 -0.6614 -0.5956
12936TIP3    H260300   4.987   2.780   6.010 -1.2817 -2.0737 -1.8426
12937TIP3   OH260301   3.811   2.145   0.298 -0.4004  0.1845 -0.7250
12937TIP3    H160302   3.855   2.069   0.336  1.2297  1.7680  0.7112
12937TIP3    H260303   3.873   2.217   0.310 -2.4932  2.0626 -0.6821
12938TIP3   OH260304   0.338   1.992   5.974  0.5769  0.2294  0.4855
12938TIP3    H160305   0.347   1.990   5.879  1.8082 -2.5571  0.5613
12938TIP3    H260306   0.253   1.951   5.991  0.3177  0.8059  0.6043
12939TIP3   OH260307   2.313   3.545   4.840 -0.0842  0.7482  0.3097
12939TIP3    H160308   2.310   3.501   4.925 -1.0833  1.4019  0.6306
12939TIP3    H260309   2.295   3.637   4.859 -1.0674  0.7882 -0.6636
12940TIP3   OH260310   2.252   1.551   4.534  0.2193  0.4144 -0.3963
12940TIP3    H160311   2.211   1.605   4.601  0.4853 -0.3394  0.3891
12940TIP3    H260312   2.295   1.481   4.582  0.6570  0.0140 -1.3392
12941TIP3   OH260313   4.257   5.409   5.255 -0.4411 -0.2239  0.6181
12941TIP3    H160314   4.189   5.467   5.291 -1.6523 -1.4649  0.4111
12941TIP3    H260315   4.275   5.347   5.326  0.0084 -0.3001  0.4401
12942TIP3   OH260316   3.388   1.412   4.682  0.3861 -0.6196  0.0165
12942TIP3    H160317   3.334   1.347   4.637  0.6466 -0.1483 -0.9857
12942TIP3    H260318   3.447   1.447   4.615  0.6007  0.2886  0.6493
12943TIP3   OH260319   1.658   4.842   2.846 -0.0996 -0.2605  0.3764
12943TIP3    H160320   1.670   4.843   2.751 -0.0097 -1.0572  0.3747
12943TIP3    H260321   1.748   4.842   2.881 -0.1334  0.3934  0.4682
12944TIP3   OH260322   5.688   4.820   0.294 -0.2870  0.2657  0.2952
12944TIP3    H160323   5.690   4.810   0.389  2.5304  2.6236  0.5972
12944TIP3    H260324   5.619   4.760   0.266  0.2372 -2.1757  3.5833
12945TIP3   OH260325   2.322   4.159   3.408 -0.1586  0.0399 -0.3771
12945TIP3    H160326   2.379   4.232   3.387  0.0776 -0.0441 -0.0349
12945TIP3    H260327   2.356   4.086   3.355  0.5904 -0.2375  0.4581
12946TIP3   OH260328   2.903   1.509  11.431 -0.4254 -0.7753  0.8357
12946TIP3    H160329   2.985   1.503  11.382  0.0366  2.0927  1.0695
12946TIP3    H260330   2.916   1.452  11.507  0.6789 -1.6535  0.0217
12947TIP3   OH260331   1.990   0.654   3.209  0.6009  0.2554  0.3176
12947TIP3    H160332   1.908   0.651   3.259  1.3935 -2.3506  1.6692
12947TIP3    H260333   2.058   0.667   3.275  1.5077 -1.0279 -0.3171
12948TIP3   OH260334   5.259   6.708   0.157  0.3936  0.0004  0.5405
12948TIP3    H160335   5.196   6.778   0.178 -0.2740 -0.2285 -0.6004
12948TIP3    H260336   5.344   6.752   0.154 -0.0708  0.8699 -0.5819
12949TIP3   OH260337   5.510   5.641   4.876  0.2148  0.1785  0.2857
12949TIP3    H160338   5.510   5.719   4.821  2.4168 -0.3871 -0.6478
12949TIP3    H260339   5.461   5.576   4.825  0.4410  0.2702 -0.0543
12950TIP3   OH260340   4.872   3.066   4.450  0.2241 -0.5391 -0.1436
12950TIP3    H160341   4.890   3.006   4.377  1.3110  1.2306 -1.4071
12950TIP3    H260342   4.785   3.102   4.430 -0.1281 -1.1490  0.2519
12951TIP3   OH260343   2.563   4.090   3.692 -0.6590  0.1700  0.2055
12951TIP3    H160344   2.524   4.173   3.721  0.2560  0.1094  1.7081
12951TIP3    H260345   2.619   4.064   3.765  0.6090 -0.7719 -1.0749
12952TIP3   OH260346   1.648   5.499  10.730 -0.1267  0.1550  0.5012
12952TIP3    H160347   1.617   5.584  10.761  0.5093  0.6373 -0.1660
12952TIP3    H260348   1.730   5.485  10.777 -0.6403 -0.4833  1.2291
12953TIP3   OH260349   5.615   1.402  15.605 -0.4903 -0.4624  0.1406
12953TIP3    H160350   5.610   1.345  15.682  0.9414  0.4364  0.9342
12953TIP3    H260351   5.675   1.356  15.546  0.5502  0.1227  0.7200
12954TIP3   OH260352   6.045   1.680  12.458  0.0287  0.0780  0.0814
12954TIP3    H160353   5.995   1.702  12.537  0.9717 -1.1933  1.0716
12954TIP3    H260354   5.991   1.615  12.413 -1.4889  2.2520 -1.4657
12955TIP3   OH260355   2.941   1.214   4.680  0.1320 -0.1540 -0.2002
12955TIP3    H160356   2.876   1.197   4.612 -0.2239  1.8797 -0.4368
12955TIP3    H260357   2.895   1.199   4.762  0.2399 -1.5525 -0.3772
12956TIP3   OH260358   5.084   6.468   6.115 -0.2564  0.7323  0.3480
12956TIP3    H160359   5.090   6.410   6.039 -0.4356  0.9703  0.1515
12956TIP3    H260360   5.027   6.421   6.176  0.6938  0.0826  0.7567
12957TIP3   OH260361   5.961   6.503   4.596  0.2174 -0.2216  0.3190
12957TIP3    H160362   5.873   6.526   4.625  0.2322 -0.6301  0.7032
12957TIP3    H260363   5.991   6.579   4.547  0.0655  0.3652  1.1066
12958TIP3   OH260364   2.557   1.845  16.816 -0.0622  0.3036  1.1773
12958TIP3    H160365   2.581   1.818  16.728  0.2757 -1.5303  1.7972
12958TIP3    H260366   2.548   1.940  16.810  0.3542  0.2616 -0.7243
12959TIP3   OH260367   5.137   1.032   3.071 -0.1593 -0.2061 -0.3140
12959TIP3    H160368   5.108   1.116   3.034  0.5940 -0.8927 -2.6103
12959TIP3    H260369   5.202   1.056   3.137 -1.1576  1.0622  0.2525
12960TIP3   OH260370   4.857   4.753   3.240 -0.1415 -0.2948 -0.1098
12960TIP3    H160371   4.769   4.733   3.208 -0.5746  0.0699  0.8178
12960TIP3    H260372   4.912   4.755   3.161 -1.1959  0.7034 -0.8425
12961TIP3   OH260373   0.221   0.367  13.334 -0.3700 -0.0908 -0.2514
12961TIP3    H160374   0.141   0.412  13.361 -1.4165 -1.8652 -0.2509
12961TIP3    H260375   0.191   0.282  13.301  1.5617 -1.0057  0.2141
12962TIP3   OH260376   3.137   4.442  11.718  0.4808 -0.4022 -0.9444
12962TIP3    H160377   3.155   4.489  11.799  1.1006 -2.6971  0.3477
12962TIP3    H260378   3.222   4.434  11.675  1.1607 -3.2545  0.6223
12963TIP3   OH260379   4.317   2.323   4.206 -0.1098 -0.6286 -0.0526
12963TIP3    H160380   4.331   2.412   4.240 -0.1756  1.0621 -3.9133
12963TIP3    H260381   4.276   2.276   4.279  1.5184  1.9109  2.7639
12964TIP3   OH260382   2.399   2.870   3.007  0.6945 -0.1633 -0.3816
12964TIP3    H160383   2.311   2.853   3.041  1.1672  0.7813  1.3965
12964TIP3    H260384   2.456   2.866   3.084  1.9155  1.3292 -1.1618
12965TIP3   OH260385   3.788   4.754  17.113  0.6582  0.0830 -0.3308
12965TIP3    H160386   3.735   4.716  17.183  0.1316 -0.5368 -1.0489
12965TIP3    H260387   3.762   4.707  17.034  3.0921 -1.0508 -0.5569
12966TIP3   OH260388   0.959   3.576   2.822 -0.2340 -0.1985  0.1931
12966TIP3    H160389   0.995   3.660   2.794 -0.2273  0.0649  0.9636
12966TIP3    H260390   0.961   3.521   2.744  2.2391 -0.3302  0.2824
12967TIP3   OH260391   6.054   1.189   1.224  0.3378 -0.2041  0.1233
12967TIP3    H160392   6.059   1.240   1.143 -0.6063 -1.4906 -0.7889
12967TIP3    H260393   6.144   1.164   1.242  0.6346  0.5976 -0.1801
12968TIP3   OH260394   4.353   0.056   0.777  0.8902 -0.1517 -0.1803
12968TIP3    H160395   4.270   0.046   0.730 -0.5445 -0.2035  2.2085
12968TIP3    H260396   4.364   0.150   0.786  0.0226 -0.1502  1.1769
12969TIP3   OH260397   5.721   3.952  12.393  0.5545  0.5827 -0.0948
12969TIP3    H160398   5.755   3.901  12.466 -0.8724  0.6540  0.6568
12969TIP3    H260399   5.636   3.985  12.424 -0.3050  0.2305 -1.9462
12970TIP3   OH260400   3.329   0.154   3.260  0.0111  0.6732 -1.0388
12970TIP3    H160401   3.263   0.124   3.198 -1.7780 -0.3280  1.2246
12970TIP3    H260402   3.413   0.131   3.219 -1.1170 -1.2931 -2.3863
12971TIP3   OH260403   3.840   6.564   2.575 -0.2369 -0.4823 -0.7288
12971TIP3    H160404   3.928   6.587   2.545  0.1696 -0.5243  0.3772
12971TIP3    H260405   3.797   6.648   2.587  0.1365 -0.3860  0.0702
12972TIP3   OH260406   0.028   4.325   5.327 -0.6982  0.2174  0.3959
12972TIP3    H160407   0.020   4.308   5.233  0.8750 -1.6771  0.5557
12972TIP3    H260408  -0.049   4.284   5.365  0.0759 -1.4795  0.1834
12973TIP3   OH260409   4.161   3.182   4.349 -0.1305 -0.4936  0.0653
12973TIP3    H160410   4.098   3.245   4.384  1.1118  0.9865 -0.2587
12973TIP3    H260411   4.203   3.144   4.427  0.3519  0.3942  0.2472
12974TIP3   OH260412   6.369   4.309  12.948  0.5987  0.1964  0.3383
12974TIP3    H160413   6.313   4.321  13.025 -1.6249 -1.9561 -0.8097
12974TIP3    H260414   6.385   4.398  12.916 -1.7680  0.9511  1.0522
12975TIP3   OH260415   2.619   3.602   2.364  0.0334 -0.6157  0.1520
12975TIP3    H160416   2.587   3.680   2.410  2.0674  1.2970 -1.4668
12975TIP3    H260417   2.568   3.599   2.283  1.3853  0.3605 -0.7813
12976TIP3   OH260418   2.944   4.067   3.550  0.3224 -0.4243 -0.1642
12976TIP3    H160419   3.001   4.050   3.475  0.6849  0.7353 -0.1700
12976TIP3    H260420   2.885   4.136   3.520 -0.4650 -0.9461  0.1607
12977TIP3   OH260421   1.347   1.273  12.678 -0.7149  0.0677  0.3731
12977TIP3    H160422   1.303   1.217  12.614 -1.4614 -1.0506  1.8157
12977TIP3    H260423   1.300   1.357  12.673  0.1659  0.5099 -1.5240
12978TIP3   OH260424   3.584   1.517   4.293 -0.2608  0.2907  0.2978
12978TIP3    H160425   3.591   1.455   4.366 -0.8474 -1.5117 -1.0964
12978TIP3    H260426   3.672   1.519   4.255 -0.3641 -0.0895  0.0364
12979TIP3   OH260427   1.788   2.927  12.279 -0.1894 -0.1193  0.2346
12979TIP3    H160428   1.732   2.857  12.314 -0.2278  0.2172  0.8563
12979TIP3    H260429   1.818   2.974  12.356  0.3585  0.1607 -0.1457
12980TIP3   OH260430   6.679   2.798  14.862  0.5508 -0.1496 -0.1218
12980TIP3    H160431   6.692   2.708  14.833  0.5077  0.0548 -0.8063
12980TIP3    H260432   6.751   2.815  14.922  1.1289 -0.3327 -0.7491
12981TIP3   OH260433   5.063   2.657   1.977 -0.1592 -0.0577 -0.1344
12981TIP3    H160434   5.157   2.657   1.993 -0.0177 -0.9314 -0.8642
12981TIP3    H260435   5.031   2.577   2.018 -0.5564  0.1459 -0.0383
12982TIP3   OH260436   2.956   3.743  12.990  0.0873  0.1634  0.5083
12982TIP3    H160437   3.021   3.706  12.931 -0.0100  1.7610 -0.6651
12982TIP3    H260438   2.872   3.728  12.946  0.1020  2.3681 -0.4078
12983TIP3   OH260439   1.787   5.340  14.112  0.1295 -0.1653 -0.1247
12983TIP3    H160440   1.814   5.398  14.040  1.7684 -0.9051 -0.1511
12983TIP3    H260441   1.867   5.326  14.162 -1.2141  1.3902  2.6717
12984TIP3   OH260442   3.306   3.993   1.183  0.0399  0.4459  0.4819
12984TIP3    H160443   3.366   3.963   1.115  0.9711  1.2715  0.9213
12984TIP3    H260444   3.224   4.010   1.136  0.8092  1.4781 -0.5266
12985TIP3   OH260445   6.563   4.132   2.491 -0.2140  0.4191  0.6461
12985TIP3    H160446   6.614   4.158   2.414  0.2394 -1.7090  0.1846
12985TIP3    H260447   6.538   4.041   2.475 -1.6220  0.4688  2.2370
12986TIP3   OH260448   3.262   6.611   1.423 -0.0803  0.4131 -0.0825
12986TIP3    H160449   3.319   6.559   1.366 -1.0704  0.6783 -1.3913
12986TIP3    H260450   3.301   6.698   1.422  0.4464  0.1868  0.4430
12987TIP3   OH260451   6.752   4.263   3.891  0.0770 -0.4318  0.4713
12987TIP3    H160452   6.720   4.304   3.971  0.8572  3.2894 -0.9012
12987TIP3    H260453   6.673   4.237   3.844 -0.6644  1.7279  0.4270
12988TIP3   OH260454   1.414   0.470   5.600 -0.4550 -0.1570 -0.2264
12988TIP3    H160455   1.442   0.551   5.557 -1.9680  1.4367  1.5942
12988TIP3    H260456   1.494   0.437   5.642  0.0344  0.8100 -0.3538
12989TIP3   OH260457   4.687   5.173  11.938 -0.0906  0.5642 -0.2261
12989TIP3    H160458   4.667   5.264  11.917 -0.2109  0.0939 -2.4619
12989TIP3    H260459   4.667   5.164  12.031 -1.2186  2.5056 -0.2343
12990TIP3   OH260460   5.126   5.765  12.112 -0.0274  0.0507 -0.2088
12990TIP3    H160461   5.076   5.766  12.194  1.0226 -1.8732  0.5227
12990TIP3    H260462   5.136   5.858  12.090 -2.4897  0.5331  0.4539
12991TIP3   OH260463   1.146   5.372  13.633  0.6134  1.0354 -0.2575
12991TIP3    H160464   1.165   5.466  13.629 -0.7206  1.2769 -1.6487
12991TIP3    H260465   1.055   5.365  13.606  0.7546 -0.6903 -0.3728
12992TIP3   OH260466   3.006   0.261   1.196  0.5716  0.0595  0.5815
12992TIP3    H160467   2.936   0.201   1.172 -1.2810  2.4602 -0.3958
12992TIP3    H260468   3.086   0.209   1.189 -0.9610 -2.4365  0.5001
12993TIP3   OH260469   6.394   4.504   0.327 -0.1472  0.5000 -0.1378
12993TIP3    H160470   6.338   4.545   0.262 -0.4554  0.7962  0.3060
12993TIP3    H260471   6.457   4.453   0.276  0.1569  1.4068 -0.6870
12994TIP3   OH260472   2.856   1.584   4.067  0.4457 -0.0892 -0.4901
12994TIP3    H160473   2.905   1.503   4.079 -0.5774 -0.6560  0.0620
12994TIP3    H260474   2.821   1.604   4.155 -0.1314  0.3992 -0.8186
12995TIP3   OH260475   2.936   5.825  12.696 -0.4055 -0.2234 -0.4711
12995TIP3    H160476   2.914   5.834  12.789  0.3665 -0.7889 -0.2231
12995TIP3    H260477   2.865   5.870  12.650 -0.8227  0.0186  0.3889
12996TIP3   OH260478   6.324   4.293   4.903 -0.2139 -0.0314 -0.1084
12996TIP3    H160479   6.322   4.207   4.862 -4.5101 -0.5583  0.6843
12996TIP3    H260480   6.337   4.355   4.831  0.7538 -1.2170 -0.9785
12997TIP3   OH260481   0.260   3.232  13.647 -0.3767  0.7096 -0.0242
12997TIP3    H160482   0.231   3.238  13.556 -1.1131 -3.4385 -0.2856
12997TIP3    H260483   0.184   3.195  13.694  1.0126 -0.3443  1.5320
12998TIP3   OH260484   6.332   4.417  12.562 -0.0583  0.0905  0.0107
12998TIP3    H160485   6.376   4.413  12.647  0.5579  1.3156 -0.2260
12998TIP3    H260486   6.329   4.327  12.532  0.8815 -0.2003  0.7590
12999TIP3   OH260487   4.600   0.682  12.772  0.5445  0.8101 -0.3583
12999TIP3    H160488   4.524   0.656  12.824  0.4690  0.8977 -0.4257
12999TIP3    H260489   4.638   0.756  12.820  0.4794  0.8860 -0.4228
13000TIP3   OH260490   0.642   3.835   0.747  0.1835 -0.2237  0.0705
13000TIP3    H160491   0.727   3.879   0.742  0.5723 -0.9860 -0.2734
13000TIP3    H260492   0.638   3.782   0.667 -1.0968  0.6415 -0.4719
13001TIP3   OH260493   1.893   5.992   4.717 -0.0878 -0.0073 -0.2239
13001TIP3    H160494   1.888   5.910   4.668 -0.3842  0.0714 -0.3263
13001TIP3    H260495   1.825   6.047   4.678 -1.0383 -0.3108  0.9493
13002TIP3   OH260496   3.792   0.472  15.514 -0.5919 -0.5777  0.0093
13002TIP3    H160497   3.784   0.522  15.432  1.2495  0.5089  0.4529
13002TIP3    H260498   3.885   0.474  15.535 -0.9609 -1.2088  1.9134
13003TIP3   OH260499   0.221   2.255   6.036  0.6557  0.0022  0.2477
13003TIP3    H160500   0.293   2.300   6.078  1.7857 -0.1536 -1.4131
13003TIP3    H260501   0.253   2.166   6.021 -0.2055 -0.3253  0.2488
13004TIP3   OH260502   2.606   2.507  17.095 -0.0361 -0.0536  0.4322
13004TIP3    H160503   2.546   2.532  17.024  0.9111 -0.9164 -0.7086
13004TIP3    H260504   2.552   2.513  17.175 -1.0879  1.0607 -0.3307
13005TIP3   OH260505   1.872   1.729  11.935 -0.0333  0.1643  0.4045
13005TIP3    H160506   1.846   1.665  12.001  0.7880  1.0380  1.6050
13005TIP3    H260507   1.885   1.677  11.855  1.5091 -1.3252  1.5698
13006TIP3   OH260508   3.901   5.010  14.469  0.0920  0.5496  0.2748
13006TIP3    H160509   3.861   4.941  14.417  0.5547  1.8095 -1.8966
13006TIP3    H260510   3.967   5.049  14.410  0.7055  2.0146  1.8428
13007TIP3   OH260511   1.125   1.154   0.672  0.1680  0.0065  0.1124
13007TIP3    H160512   1.153   1.217   0.739 -1.4396 -0.7763  1.5994
13007TIP3    H260513   1.104   1.207   0.596  0.4133  1.1097  0.7979
13008TIP3   OH260514   0.209   2.092  14.224  0.2231  0.0421  0.2688
13008TIP3    H160515   0.176   2.007  14.194 -0.5048  0.4363 -0.0866
13008TIP3    H260516   0.149   2.155  14.185  0.7340  0.7186  0.5674
13009TIP3   OH260517   2.278   4.575   3.962  0.4353 -0.7153 -0.3035
13009TIP3    H160518   2.198   4.529   3.939 -0.0531  0.4348 -0.9890
13009TIP3    H260519   2.286   4.564   4.057 -0.7970 -0.4382 -0.1543
13010TIP3   OH260520   4.619   5.711  12.632  0.1203 -0.2522  0.3023
13010TIP3    H160521   4.657   5.623  12.640 -0.4852 -0.4326  1.3981
13010TIP3    H260522   4.525   5.697  12.636  0.0402  0.5204  1.3905
13011TIP3   OH260523   4.252   4.262   0.976 -0.0964  0.1036 -0.1115
13011TIP3    H160524   4.345   4.244   0.963 -0.0691 -0.3035  0.5840
13011TIP3    H260525   4.211   4.235   0.894  0.0084 -2.7671  0.6660
13012TIP3   OH260526   5.968   1.760  16.950 -0.4163 -0.6249  0.4071
13012TIP3    H160527   5.992   1.671  16.925  1.5798 -0.0190 -0.0487
13012TIP3    H260528   5.972   1.760  17.045  0.4929 -0.8179  0.3807
13013TIP3   OH260529   4.994   6.473   0.136  0.0287 -0.0386 -0.3764
13013TIP3    H160530   4.899   6.466   0.132  0.0301 -0.5133  0.2993
13013TIP3    H260531   5.013   6.560   0.102 -0.6220 -0.0543 -0.8000
13014TIP3   OH260532   0.406   0.521  14.944 -0.6713  0.2368 -0.1513
13014TIP3    H160533   0.378   0.607  14.915 -0.9057  0.5671  0.9995
13014TIP3    H260534   0.500   0.531  14.963  0.3259 -0.7943 -3.7298
13015TIP3   OH260535   2.173   1.531  11.307  0.5786  0.0771  0.4585
13015TIP3    H160536   2.250   1.476  11.293  0.4912 -0.2546  1.2479
13015TIP3    H260537   2.150   1.561  11.219  0.3104 -1.5724 -0.0780
13016TIP3   OH260538   2.646   3.845  10.884 -0.4969  0.4165 -0.1280
13016TIP3    H160539   2.714   3.904  10.917 -0.4768  0.7977 -0.8254
13016TIP3    H260540   2.577   3.904  10.852 -1.1343  0.0351  0.5174
13017TIP3   OH260541   6.620   4.052   3.019 -0.2296  0.1868  0.1588
13017TIP3    H160542   6.679   4.118   2.983 -0.4595  0.9656  1.1763
13017TIP3    H260543   6.564   4.028   2.945  3.1664 -2.8164 -1.7759
13018TIP3   OH260544   0.012   2.284  16.435  0.1077  0.0575  0.4176
13018TIP3    H160545   0.006   2.193  16.406 -1.8899 -0.1745  1.4061
13018TIP3    H260546  -0.075   2.320  16.419  1.0664  2.0590 -0.6845
13019TIP3   OH260547   5.728   3.742  13.033 -0.0465 -0.0831  0.3045
13019TIP3    H160548   5.671   3.819  13.035 -0.2473 -0.2252  0.1353
13019TIP3    H260549   5.776   3.745  13.115 -0.9608 -0.4544  0.8641
13020TIP3   OH260550   0.789   1.445  11.342 -0.5711 -0.2150 -0.4642
13020TIP3    H160551   0.743   1.419  11.262 -2.1894  1.9933 -0.3383
13020TIP3    H260552   0.721   1.445  11.409 -0.3265  2.4918 -0.1213
13021TIP3   OH260553   5.368   0.508   4.417 -0.8705 -0.1391 -0.2597
13021TIP3    H160554   5.457   0.488   4.386 -1.4825  0.5016 -2.6147
13021TIP3    H260555   5.363   0.467   4.503  1.8986  0.2988  0.2037
13022TIP3   OH260556   6.452   0.124  12.204 -0.9179 -0.2367 -0.5630
13022TIP3    H160557   6.492   0.168  12.279 -0.4145 -0.4787 -0.6871
13022TIP3    H260558   6.375   0.080  12.241  0.9391 -2.8803  0.4601
13023TIP3   OH260559   4.857   3.400  16.063  0.4872  0.1319  0.2909
13023TIP3    H160560   4.938   3.366  16.026  0.1266 -1.6390  1.0414
13023TIP3    H260561   4.817   3.325  16.107 -1.9390  0.7455 -0.6841
13024TIP3   OH260562   5.078   3.693   0.191  0.6384  0.3481 -0.3414
13024TIP3    H160563   5.170   3.683   0.166  0.7967 -0.1843  0.4499
13024TIP3    H260564   5.072   3.782   0.227  1.3689 -0.4004  1.7697
13025TIP3   OH260565   5.595   3.138   2.502  0.0500 -0.2713 -0.5796
13025TIP3    H160566   5.660   3.113   2.435 -1.0607  1.0294 -2.2364
13025TIP3    H260567   5.644   3.196   2.561  0.7371 -0.3793 -1.0212
13026TIP3   OH260568   2.003   6.171  16.843  0.1637 -0.8485 -0.2820
13026TIP3    H160569   1.949   6.153  16.766 -0.6286 -1.3599  0.3728
13026TIP3    H260570   2.055   6.247  16.819 -0.6780 -0.4872 -1.0174
13027TIP3   OH260571   1.810   5.196   2.357 -0.2886 -0.6857 -0.1759
13027TIP3    H160572   1.779   5.283   2.382  1.3772 -0.9899  3.5106
13027TIP3    H260573   1.732   5.140   2.365 -0.6736 -0.0577  0.6831
13028TIP3   OH260574   2.936   1.527  16.023 -0.1305 -0.0272 -0.0408
13028TIP3    H160575   3.020   1.554  16.060  0.8512 -0.5566 -1.7669
13028TIP3    H260576   2.907   1.456  16.080  0.9701 -0.3334  0.1609
13029TIP3   OH260577   1.314   6.487  16.412  0.5633 -0.2270 -0.2805
13029TIP3    H160578   1.319   6.565  16.468  0.9583 -0.7615  0.4320
13029TIP3    H260579   1.404   6.469  16.387  0.4238 -0.1886 -0.8370
13030TIP3   OH260580   3.814   0.045   4.412 -0.0210  0.0768  0.0467
13030TIP3    H160581   3.757  -0.019   4.369 -0.2949 -0.3579  1.0148
13030TIP3    H260582   3.754   0.103   4.459  0.2155  1.1812 -0.9815
13031TIP3   OH260583   0.339   0.336  15.638 -0.3694 -0.2343  0.6094
13031TIP3    H160584   0.246   0.359  15.626  0.1564  1.4598 -0.6334
13031TIP3    H260585   0.362   0.373  15.723 -0.5277  0.4899  0.3458
13032TIP3   OH260586   2.138   4.869  15.382 -0.0138  0.5775 -0.7463
13032TIP3    H160587   2.123   4.961  15.403  0.0029  0.5999 -0.8320
13032TIP3    H260588   2.203   4.871  15.311 -0.1921  0.5064 -0.9108
13033TIP3   OH260589   1.066   5.533  17.157 -0.6597  0.2554  0.4858
13033TIP3    H160590   1.161   5.542  17.158 -0.4751 -1.1798 -0.6347
13033TIP3    H260591   1.036   5.591  17.226  1.0762  0.1246  1.4069
13034TIP3   OH260592   2.257   4.090  10.901  0.2062 -0.5019 -0.3901
13034TIP3    H160593   2.292   4.027  10.964  0.1295  0.8144  1.0381
13034TIP3    H260594   2.202   4.148  10.953 -0.9102 -0.1220 -1.9121
13035TIP3   OH260595   0.282   2.591   4.787  0.5801  0.1992  1.0103
13035TIP3    H160596   0.308   2.562   4.699 -0.0449 -0.8806  1.1620
13035TIP3    H260597   0.345   2.548   4.845  0.7975  0.6618  1.1228
13036TIP3   OH260598   2.451   5.699  17.153  0.2531 -0.3129 -0.0638
13036TIP3    H160599   2.446   5.795  17.150 -0.2215 -0.3512 -0.6769
13036TIP3    H260600   2.480   5.674  17.066 -1.4487 -0.8208 -0.5222
13037TIP3   OH260601   5.492   5.865   3.017  0.0413 -0.3767  0.4343
13037TIP3    H160602   5.568   5.889   2.965 -0.4648  0.4072  0.0460
13037TIP3    H260603   5.441   5.945   3.025 -1.9946 -1.3807 -1.3997
13038TIP3   OH260604   1.335   4.359   6.801 -0.5020 -0.1504 -0.4529
13038TIP3    H160605   1.410   4.414   6.824 -0.6486  0.4237 -1.3199
13038TIP3    H260606   1.288   4.409   6.735 -2.3663  0.0829  0.9675
13039TIP3   OH260607   2.326   1.692   3.297 -0.2021 -0.1839  0.0437
13039TIP3    H160608   2.314   1.756   3.227  1.0608  2.3831  1.9809
13039TIP3    H260609   2.396   1.635   3.266 -0.0573  0.5349 -1.0053
13040TIP3   OH260610   0.639   1.120   5.198 -0.1707 -0.1907  0.2881
13040TIP3    H160611   0.622   1.025   5.193 -2.8195  0.1868  0.7886
13040TIP3    H260612   0.591   1.149   5.275  1.8981  1.3839  1.0807
13041TIP3   OH260613   6.586   4.825  16.092 -0.0681  0.1507  0.3404
13041TIP3    H160614   6.595   4.739  16.053 -0.1318  0.1556  0.3144
13041TIP3    H260615   6.492   4.843  16.090  0.0903  1.1263 -1.6268
13042TIP3   OH260616   2.574   2.941   5.224 -0.5704 -0.2739  0.1372
13042TIP3    H160617   2.658   2.973   5.257 -0.0514 -0.1586 -1.2442
13042TIP3    H260618   2.565   2.853   5.262  0.7110 -0.7416 -0.5859
13043TIP3   OH260619   6.523   4.181  11.505  0.2709  0.0345 -0.1002
13043TIP3    H160620   6.506   4.159  11.413  0.2337  0.0289 -0.0925
13043TIP3    H260621   6.461   4.251  11.524 -1.0389 -1.2287  0.4547
13044TIP3   OH260622   3.938   1.287   1.890  0.4197 -0.0326 -0.4340
13044TIP3    H160623   3.961   1.247   1.974  1.3453 -0.5046 -0.9017
13044TIP3    H260624   3.927   1.380   1.910  1.1552 -0.0564  0.1263
13045TIP3   OH260625   1.421   1.392   3.025 -0.0897  0.3436  0.2335
13045TIP3    H160626   1.473   1.323   2.983 -2.2323 -1.4114  0.2597
13045TIP3    H260627   1.437   1.381   3.119 -0.2735 -0.0332  0.2244
13046TIP3   OH260628   0.836   1.237   1.986  0.2294  1.0023  0.1995
13046TIP3    H160629   0.927   1.219   1.964 -0.2107 -1.2302  0.0015
13046TIP3    H260630   0.787   1.164   1.949 -1.5536  1.7126  1.0246
13047TIP3   OH260631   1.663   1.516  13.041  0.0451 -0.3185 -0.7691
13047TIP3    H160632   1.676   1.592  12.984 -0.1357 -1.2533 -2.0997
13047TIP3    H260633   1.602   1.460  12.993  0.1524 -1.3021  0.1959
13048TIP3   OH260634   5.683   5.231   2.457  0.3186  1.2382  0.2769
13048TIP3    H160635   5.595   5.229   2.496  0.7301 -1.1051  1.2041
13048TIP3    H260636   5.677   5.172   2.382  1.0654  1.1604  0.2776
13049TIP3   OH260637   5.514   1.073  16.348 -0.0691 -0.7670 -0.3616
13049TIP3    H160638   5.608   1.094  16.350  0.2642 -2.1366  1.9735
13049TIP3    H260639   5.487   1.074  16.440 -1.5866 -3.4370 -0.6744
13050TIP3   OH260640   3.107   4.482   1.441  0.0603  0.4678  0.9635
13050TIP3    H160641   3.091   4.513   1.352 -1.2631  1.5082  1.5256
13050TIP3    H260642   3.054   4.403   1.449 -1.5381  1.5434  1.4613
13051TIP3   OH260643   1.615   2.116  16.321  0.7791  0.3905  0.3454
13051TIP3    H160644   1.629   2.054  16.393 -0.5026 -0.0593  0.2228
13051TIP3    H260645   1.703   2.136  16.289  1.2686 -0.5391  1.0813
13052TIP3   OH260646   1.191   4.440   0.697  0.3774 -0.1976  0.0527
13052TIP3    H160647   1.182   4.533   0.681  2.0584  0.2297  1.3302
13052TIP3    H260648   1.280   4.429   0.731 -0.0489 -2.1418  0.7199
13053TIP3   OH260649   3.322   4.586  11.861 -0.2063 -0.0211  0.3022
13053TIP3    H160650   3.369   4.627  11.789 -0.7714  0.8381  0.4139
13053TIP3    H260651   3.390   4.567  11.926 -0.0256  1.3321  0.5258
13054TIP3   OH260652   2.088   1.641   5.681  0.6113  0.0995 -0.8129
13054TIP3    H160653   2.064   1.726   5.717  1.5514  0.7112 -1.6029
13054TIP3    H260654   2.152   1.606   5.743  1.0595  0.4671 -1.0612
13055TIP3   OH260655   4.051   5.434   2.738 -0.5281  0.1795 -0.2788
13055TIP3    H160656   4.011   5.520   2.720 -0.3718 -0.0259 -1.8175
13055TIP3    H260657   4.040   5.421   2.832 -3.5291  0.4086 -0.5130
13056TIP3   OH260658   2.037   3.882  16.201 -0.2071  0.0649  0.8857
13056TIP3    H160659   1.955   3.877  16.250 -0.8088  0.2121 -0.0860
13056TIP3    H260660   2.094   3.818  16.244 -1.8903 -2.4616 -0.3750
13057TIP3   OH260661   6.657   4.647   4.877 -0.0917 -0.3639  1.0128
13057TIP3    H160662   6.615   4.711   4.934 -0.1560  0.2288  0.3015
13057TIP3    H260663   6.745   4.635   4.915 -0.6996 -1.2430  2.2175
13058TIP3   OH260664   2.776   2.450  15.087  0.1466 -0.0690  0.0620
13058TIP3    H160665   2.681   2.463  15.087 -0.1798 -2.0449 -0.9428
13058TIP3    H260666   2.792   2.387  15.017  2.3554  1.0192 -0.4932
13059TIP3   OH260667   0.216   2.735  16.220 -0.0814 -0.4318  0.4313
13059TIP3    H160668   0.222   2.830  16.218  1.0909 -0.4880  0.4852
13059TIP3    H260669   0.296   2.705  16.179 -1.8813 -1.4192 -2.6818
13060TIP3   OH260670   1.790   3.833   5.053 -0.0358  0.4654 -0.2360
13060TIP3    H160671   1.802   3.822   5.147  2.0479 -0.6735 -0.5749
13060TIP3    H260672   1.856   3.899   5.028 -0.7656  0.9728 -0.8715
13061TIP3   OH260673   4.094   2.957   1.739  0.7569 -0.2473  0.1844
13061TIP3    H160674   4.030   2.941   1.669 -0.6685  2.2098  0.7955
13061TIP3    H260675   4.119   3.049   1.727  3.7084 -0.9215  0.4271
13062TIP3   OH260676   4.525   2.203  11.229 -0.4002  0.0208 -0.0195
13062TIP3    H160677   4.571   2.228  11.148  1.3207 -0.1429  0.8590
13062TIP3    H260678   4.486   2.118  11.210 -0.8622  0.4337 -0.9824
13063TIP3   OH260679   2.899   6.300  10.433 -0.1051  0.6679  0.0335
13063TIP3    H160680   2.804   6.310  10.440 -0.2111  0.1632 -0.5857
13063TIP3    H260681   2.931   6.313  10.522 -0.7380  1.0028  0.2181
13064TIP3   OH260682   2.312   1.342   5.008  0.0039  0.2057  0.1014
13064TIP3    H160683   2.248   1.383   5.065  0.9434  1.0967  0.5506
13064TIP3    H260684   2.371   1.413   4.983  0.7025 -0.5462 -0.4466
13065TIP3   OH260685   5.134   3.520   6.959  0.5197  0.0087  0.5228
13065TIP3    H160686   5.229   3.520   6.947  0.4584 -1.0239 -0.0313
13065TIP3    H260687   5.101   3.462   6.890 -0.2189 -2.4599  2.7853
13066TIP3   OH260688   1.955   0.690   5.980 -0.1468  0.0513 -0.5075
13066TIP3    H160689   1.888   0.692   5.911  0.9347 -1.0242 -1.6332
13066TIP3    H260690   2.020   0.754   5.953  0.4952 -0.6796 -0.7411
13067TIP3   OH260691   3.864   6.793  14.200  0.2280 -0.3055 -0.0481
13067TIP3    H160692   3.935   6.743  14.161  0.5920  0.0055  0.2170
13067TIP3    H260693   3.785   6.744  14.177  0.4868 -0.4201 -0.7018
13068TIP3   OH260694   4.684   1.925   4.661 -0.2258  0.2535  0.2017
13068TIP3    H160695   4.625   1.943   4.588 -0.2036  0.7983  0.3138
13068TIP3    H260696   4.738   2.003   4.669  0.2062 -0.0589  0.3936
13069TIP3   OH260697   6.409   4.949  11.180 -0.3157 -0.0510 -0.2384
13069TIP3    H160698   6.486   4.900  11.151 -0.5499 -0.3297 -0.3907
13069TIP3    H260699   6.341   4.926  11.117 -0.6264 -0.0887  0.1106
13070TIP3   OH260700   5.382   1.755   1.876  0.2174  0.2354 -0.1198
13070TIP3    H160701   5.432   1.836   1.867 -0.0253  0.4190  0.1503
13070TIP3    H260702   5.299   1.783   1.913 -0.1781 -0.0399 -0.7887
13071TIP3   OH260703   4.015   3.532   1.523 -0.2217 -0.4600  0.1852
13071TIP3    H160704   3.989   3.610   1.573  0.1085 -0.2146 -0.0193
13071TIP3    H260705   4.110   3.540   1.514 -0.1279 -1.1174  0.5407
13072TIP3   OH260706   1.529   2.152  16.018  0.3343 -0.5317 -0.1004
13072TIP3    H160707   1.538   2.153  16.113  0.1543  0.0010 -0.0842
13072TIP3    H260708   1.443   2.192  16.001 -0.0290 -1.4378 -0.4518
13073TIP3   OH260709   0.993   2.097  11.704  0.4652  0.5120  0.1332
13073TIP3    H160710   1.048   2.074  11.630  0.3040 -2.1791  0.7712
13073TIP3    H260711   0.903   2.089  11.672  0.4018  0.0390  0.4218
13074TIP3   OH260712   4.514   5.095  15.968 -0.3970  0.3547  0.1104
13074TIP3    H160713   4.452   5.157  16.007  0.5451  2.0272 -0.9560
13074TIP3    H260714   4.586   5.090  16.031 -1.3991 -1.3973  1.2273
13075TIP3   OH260715   2.370   3.296  15.744  0.0092  0.2922  0.4749
13075TIP3    H160716   2.310   3.229  15.776 -1.6750  0.6997 -1.6182
13075TIP3    H260717   2.318   3.348  15.683  1.7727  2.3931  0.6391
13076TIP3   OH260718   6.765   4.516  10.703  0.0124  0.4161  0.1604
13076TIP3    H160719   6.781   4.422  10.711  2.1324  0.5411 -1.5124
13076TIP3    H260720   6.691   4.523  10.642  0.1458 -0.1635 -0.0752
13077TIP3   OH260721   5.569   5.335  16.878  0.4010  0.3643  0.3941
13077TIP3    H160722   5.600   5.419  16.845 -0.0564  0.1404 -0.6436
13077TIP3    H260723   5.563   5.347  16.973 -1.0839  2.0145  0.1498
13078TIP3   OH260724   2.206   4.605  15.908 -0.1851  0.1571 -0.2953
13078TIP3    H160725   2.177   4.611  15.999  0.7652 -1.4526  0.1659
13078TIP3    H260726   2.302   4.597  15.915 -0.1779 -0.9529 -1.3493
13079TIP3   OH260727   4.574   1.020  11.964 -0.5254 -0.2686 -0.1816
13079TIP3    H160728   4.582   0.927  11.986 -2.1537 -0.5101 -0.5018
13079TIP3    H260729   4.513   1.022  11.890  1.0655  0.9092 -1.5235
13080TIP3   OH260730   4.259   5.190  14.842  0.2911 -0.6696 -0.2526
13080TIP3    H160731   4.319   5.173  14.770 -0.0117 -0.0924 -0.6474
13080TIP3    H260732   4.247   5.285  14.843 -0.7701 -0.7848 -0.3144
13081TIP3   OH260733   4.325   5.113   4.075 -0.5270  0.1099  0.5481
13081TIP3    H160734   4.347   5.040   4.132  1.4059  0.8349  0.7954
13081TIP3    H260735   4.352   5.191   4.124 -1.3825  0.9149 -0.2290
13082TIP3   OH260736   3.998   3.675   0.006 -0.6224 -0.8211  0.1353
13082TIP3    H160737   3.942   3.680   0.083 -0.5662  1.7574  0.0812
13082TIP3    H260738   3.982   3.757  -0.041  1.9617 -0.7146 -0.7275
13083TIP3   OH260739   2.611   4.735  13.754  0.3128  0.0884  0.2085
13083TIP3    H160740   2.686   4.774  13.709 -0.1040  2.0224  1.0783
13083TIP3    H260741   2.627   4.641  13.750  0.2021  0.0665 -4.1032
13084TIP3   OH260742   1.212   0.378   1.051 -0.2205 -0.4370 -0.6061
13084TIP3    H160743   1.228   0.284   1.049 -0.7728 -0.5263 -1.1825
13084TIP3    H260744   1.233   0.407   0.962  1.3282  0.2249 -0.0509
13085TIP3   OH260745   6.421   1.484   4.940  0.2859 -0.8016  0.3536
13085TIP3    H160746   6.409   1.399   4.898  0.4079 -0.5157 -0.2757
13085TIP3    H260747   6.335   1.525   4.936 -0.1496 -1.4915  2.0268
13086TIP3   OH260748   2.390   3.872  11.049  0.4972  0.4054 -0.0705
13086TIP3    H160749   2.424   3.797  11.097  1.0793  1.0603  0.5591
13086TIP3    H260750   2.457   3.940  11.059  0.1647  0.8840 -0.9599
13087TIP3   OH260751   2.711   0.060   1.869 -0.4937  0.1124  0.2036
13087TIP3    H160752   2.661   0.091   1.794  0.4842 -0.8286 -0.8814
13087TIP3    H260753   2.759   0.137   1.899  0.3289  0.1742 -1.1618
13088TIP3   OH260754   1.941   1.444   0.669 -0.3680  0.4311  0.2730
13088TIP3    H160755   1.899   1.501   0.605  0.7106  0.9036 -0.0284
13088TIP3    H260756   1.998   1.387   0.618 -1.6420 -1.1609  0.5358
13089TIP3   OH260757   4.609   5.623  11.668 -0.1463 -0.4890 -0.4728
13089TIP3    H160758   4.544   5.584  11.726 -0.5225  0.0987 -0.4936
13089TIP3    H260759   4.674   5.554  11.655 -0.6059 -0.9767 -0.2045
13090TIP3   OH260760   4.262   2.256   0.095 -0.4367 -0.4121  0.2172
13090TIP3    H160761   4.314   2.288   0.021  0.4268 -3.4657 -0.6025
13090TIP3    H260762   4.322   2.260   0.169 -0.5326  0.3383  0.2677
13091TIP3   OH260763   1.832   5.123  12.884  0.3872 -0.2984 -0.3529
13091TIP3    H160764   1.856   5.169  12.964 -1.1945 -0.2253  0.1192
13091TIP3    H260765   1.803   5.037  12.913  1.3879 -0.8876 -1.0315
13092TIP3   OH260766   1.881   6.161   4.303 -0.1988 -0.0203 -0.0343
13092TIP3    H160767   1.887   6.203   4.218 -1.4848 -0.0253 -0.1562
13092TIP3    H260768   1.834   6.224   4.358  2.6680  1.0200  1.4187
13093TIP3   OH260769   4.757   3.331   5.946  0.4544 -0.4573 -0.1072
13093TIP3    H160770   4.840   3.379   5.943 -0.3300  1.0092  0.3835
13093TIP3    H260771   4.782   3.240   5.963  1.9738 -0.1341 -0.4467
13094TIP3   OH260772   1.183   5.666  14.448  0.1072  0.0756 -0.5447
13094TIP3    H160773   1.121   5.733  14.419  1.6622  0.8258 -2.3120
13094TIP3    H260774   1.152   5.585  14.408  0.1713  0.4268 -1.3225
13095TIP3   OH260775   6.260   2.372   2.194  0.4113  0.0400 -0.7686
13095TIP3    H160776   6.229   2.291   2.154  1.7008 -0.5974 -0.5224
13095TIP3    H260777   6.233   2.441   2.133 -2.0786 -0.3578 -0.2412
13096TIP3   OH260778   6.543   1.853  11.836 -0.7917 -0.3613  0.3039
13096TIP3    H160779   6.535   1.944  11.806 -1.9551  0.1510  2.0153
13096TIP3    H260780   6.636   1.844  11.859 -0.9768  1.0022  1.8015
13097TIP3   OH260781   2.222   4.656   5.212 -0.1165  0.3040 -0.0787
13097TIP3    H160782   2.174   4.579   5.240  1.9424 -0.4907  1.5244
13097TIP3    H260783   2.265   4.630   5.131 -0.3306  0.1665 -0.1484
13098TIP3   OH260784   2.209   0.565  14.504 -0.4680 -0.5634  0.2434
13098TIP3    H160785   2.250   0.491  14.548 -1.0963 -0.5667  0.8451
13098TIP3    H260786   2.118   0.562  14.532 -0.5584  0.2909  0.0782
13099TIP3   OH260787   0.993   0.997   1.626 -0.1843  0.2590 -0.3824
13099TIP3    H160788   0.949   0.985   1.542  0.2029 -0.8390 -0.4431
13099TIP3    H260789   0.983   0.913   1.671  0.2093  0.6079  0.3824
13100TIP3   OH260790   4.966   1.720   6.794 -0.1999 -0.0228  0.2365
13100TIP3    H160791   4.964   1.628   6.818 -0.7563 -0.0666  0.0558
13100TIP3    H260792   5.019   1.762   6.862 -0.0957 -0.4467  0.4201
13101TIP3   OH260793   3.822   0.141  17.124  0.2594  0.2120 -0.2276
13101TIP3    H160794   3.915   0.124  17.105  1.0943  3.1694  0.5682
13101TIP3    H260795   3.794   0.201  17.054 -1.2806 -1.0835 -0.7830
13102TIP3   OH260796   4.543   1.649   5.741 -0.3053 -0.6626 -0.3172
13102TIP3    H160797   4.468   1.640   5.683 -0.9182  0.7392  0.2286
13102TIP3    H260798   4.619   1.640   5.683 -0.8884 -1.0713 -1.0336
13103TIP3   OH260799   6.241   3.157   0.968 -0.1163 -0.2370 -0.3287
13103TIP3    H160800   6.235   3.067   0.997  0.9676 -0.0307  0.5992
13103TIP3    H260801   6.334   3.180   0.977  0.0119  0.3520 -2.4702
13104TIP3   OH260802   1.571   4.325   3.204  0.4251 -0.3701 -0.7296
13104TIP3    H160803   1.552   4.264   3.133 -1.1740 -0.9100  0.1099
13104TIP3    H260804   1.512   4.299   3.275  1.1912  0.8434  0.4098
13105TIP3   OH260805   3.219   6.569   4.898  0.0904 -0.5219 -0.4983
13105TIP3    H160806   3.139   6.589   4.947 -1.0410 -1.5988 -1.8141
13105TIP3    H260807   3.227   6.474   4.902  0.7076 -0.5164 -1.2634
13106TIP3   OH260808   2.341   6.165  14.046 -0.0581 -0.0364  0.3439
13106TIP3    H160809   2.273   6.205  13.991  0.7120  0.2796 -0.4013
13106TIP3    H260810   2.304   6.082  14.074 -1.0664  0.4858  0.5995
13107TIP3   OH260811   1.987   1.640   4.123 -0.1653 -0.0558 -0.0397
13107TIP3    H160812   2.040   1.682   4.191  1.7261 -1.1583 -0.7830
13107TIP3    H260813   2.045   1.631   4.048 -1.7336 -0.3374 -1.2862
13108TIP3   OH260814   6.364   1.539   5.411  0.6099 -0.2953  0.0444
13108TIP3    H160815   6.336   1.608   5.351 -1.5814 -0.6119  0.6289
13108TIP3    H260816   6.358   1.458   5.360  1.1573 -0.2994 -0.0222
13109TIP3   OH260817   2.812   6.421  12.670 -0.5655 -0.7735 -0.0855
13109TIP3    H160818   2.806   6.516  12.678 -0.5490 -0.8400  0.7588
13109TIP3    H260819   2.789   6.403  12.579  0.5310  0.1275 -0.5555
13110TIP3   OH260820   4.814   1.674   0.189 -0.1042  0.4715  0.1927
13110TIP3    H160821   4.833   1.746   0.128  2.0359 -0.0721  0.1190
13110TIP3    H260822   4.818   1.713   0.276  0.7431  0.5234  0.1373
13111TIP3   OH260823   5.204   5.360   3.752 -0.5255  0.4250 -0.6353
13111TIP3    H160824   5.263   5.404   3.690 -0.3993  1.0012 -0.1250
13111TIP3    H260825   5.253   5.361   3.835 -0.5994 -0.5314 -0.5719
13112TIP3   OH260826   4.606   4.088  15.969 -0.2093  0.1099 -0.2305
13112TIP3    H160827   4.638   4.001  15.991  0.1761  0.6444  1.4956
13112TIP3    H260828   4.563   4.119  16.049  0.3340  1.7960 -0.5549
13113TIP3   OH260829   4.955   6.110   0.496  0.0694 -0.0131  0.3623
13113TIP3    H160830   4.951   6.177   0.564 -1.2535 -0.5677  0.8612
13113TIP3    H260831   5.049   6.090   0.487  0.3888  1.1619  0.9228
13114TIP3   OH260832   4.225   2.170  12.117  0.3098 -0.0603  0.4146
13114TIP3    H160833   4.263   2.198  12.201  0.1624 -0.7002  0.7007
13114TIP3    H260834   4.143   2.126  12.142  0.2924 -0.3007 -0.0611
13115TIP3   OH260835   5.908   1.016  12.516  0.0213  0.0238 -0.0766
13115TIP3    H160836   5.925   1.046  12.426  0.4283 -0.4115 -0.1489
13115TIP3    H260837   5.921   0.921  12.512  1.8579  0.1961  0.8306
13116TIP3   OH260838   0.471   4.489   2.711  0.5284 -0.7234 -0.0909
13116TIP3    H160839   0.405   4.502   2.778 -0.8673 -0.3289 -1.4758
13116TIP3    H260840   0.546   4.540   2.741 -1.3262  2.5227 -0.5435
13117TIP3   OH260841   1.054   2.141   5.205 -0.7562 -0.2839 -0.2125
13117TIP3    H160842   1.030   2.233   5.218  0.2009 -0.3383  2.5464
13117TIP3    H260843   0.982   2.092   5.245 -0.4030 -0.6773 -0.0529
13118TIP3   OH260844   4.874   2.126   4.344 -0.2216  0.2022  0.5027
13118TIP3    H160845   4.805   2.184   4.376  0.9915  2.0580 -0.0945
13118TIP3    H260846   4.832   2.076   4.273 -1.4034  0.0201  1.3094
13119TIP3   OH260847   6.238   0.706   4.228  0.1604  0.1433  0.2911
13119TIP3    H160848   6.218   0.714   4.321 -0.8225  3.4951 -0.0719
13119TIP3    H260849   6.302   0.775   4.211  1.5282 -1.3968 -1.2940
13120TIP3   OH260850   6.532   2.869  15.196 -0.0716 -0.5220  0.4480
13120TIP3    H160851   6.513   2.859  15.289  0.0736 -0.6314  0.4673
13120TIP3    H260852   6.472   2.809  15.152 -0.8766  0.3105  0.3960
13121TIP3   OH260853   3.691   4.077   1.882  0.5201 -0.4803 -0.3199
13121TIP3    H160854   3.613   4.128   1.905 -1.7761 -1.7309 -4.4054
13121TIP3    H260855   3.662   3.986   1.883  2.4639 -1.1620 -0.3092
13122TIP3   OH260856   3.409   5.945   2.558  0.0264  0.3220  0.1215
13122TIP3    H160857   3.454   5.924   2.477 -0.4921  2.3199 -0.7481
13122TIP3    H260858   3.356   5.867   2.578 -0.5404  0.1296 -1.9661
13123TIP3   OH260859   2.397   6.675   0.070  0.4261  0.3853  0.0323
13123TIP3    H160860   2.391   6.579   0.063 -0.2364  0.3528  0.8719
13123TIP3    H260861   2.484   6.696   0.036  0.2457 -0.4199 -0.9986
13124TIP3   OH260862   6.778   4.985   2.435 -0.3078 -0.2761  0.2302
13124TIP3    H160863   6.766   5.010   2.343  0.6982 -1.6223 -0.2977
13124TIP3    H260864   6.726   4.906   2.445  0.7404 -0.9568  0.4116
13125TIP3   OH260865   2.965   2.937   5.962  0.3874  0.0793  0.0004
13125TIP3    H160866   2.996   3.023   5.932  1.7883  0.1600  1.5500
13125TIP3    H260867   3.043   2.883   5.965  0.0182 -0.4177  1.7334
13126TIP3   OH260868   3.751   3.236   2.248  0.1057 -0.1949 -0.2672
13126TIP3    H160869   3.657   3.235   2.264  0.2026 -1.2136  0.3344
13126TIP3    H260870   3.781   3.150   2.276  1.4224  0.5751  0.7976
13127TIP3   OH260871   1.316   6.214  13.107 -0.3194 -0.1780  0.6828
13127TIP3    H160872   1.310   6.176  13.020  0.5521  1.3010 -0.0553
13127TIP3    H260873   1.394   6.268  13.105 -0.5555  0.2888  2.2380
13128TIP3   OH260874   6.399   4.322  17.063  0.1567 -0.0209 -0.2539
13128TIP3    H160875   6.476   4.333  17.120 -1.4738 -0.5550  2.1976
13128TIP3    H260876   6.369   4.411  17.046  0.1909  0.1192  0.4052
13129TIP3   OH260877   4.099   5.670   5.661  0.2704 -0.4120  0.2315
13129TIP3    H160878   4.014   5.687   5.702  1.0407  0.3598  1.5989
13129TIP3    H260879   4.078   5.618   5.584 -1.5548  0.7182 -0.1041
13130TIP3   OH260880   6.686   0.831  16.130 -0.0859 -0.0324  0.8031
13130TIP3    H160881   6.746   0.756  16.123  0.7040  0.5217  1.4833
13130TIP3    H260882   6.665   0.836  16.223  0.0754  0.7397  0.8030
13131TIP3   OH260883   0.693   3.005  12.382 -0.0658 -0.2110 -0.2199
13131TIP3    H160884   0.708   3.095  12.411  0.9043 -0.2029 -0.7205
13131TIP3    H260885   0.697   3.009  12.287 -2.7192 -0.3344 -0.4181
13132TIP3   OH260886   4.123   2.758  13.980  0.1741 -0.4817 -0.4304
13132TIP3    H160887   4.054   2.718  13.927 -0.4320 -1.0052  0.7204
13132TIP3    H260888   4.104   2.852  13.977 -1.3334 -0.7095  0.8366
13133TIP3   OH260889   1.955   6.024  13.531 -0.1666  0.2546 -0.2540
13133TIP3    H160890   1.939   6.020  13.625 -1.0140  1.0082 -0.3452
13133TIP3    H260891   1.935   5.936  13.499  1.5809 -0.4395  0.4547
13134TIP3   OH260892   5.611   2.066   1.386 -0.2405 -0.4991  0.3471
13134TIP3    H160893   5.533   2.012   1.372  0.4688 -1.6055  0.5766
13134TIP3    H260894   5.601   2.098   1.476 -0.0757 -1.2540  0.6423
13135TIP3   OH260895   3.268   6.758  15.689  0.0626 -0.3205  0.0749
13135TIP3    H160896   3.211   6.715  15.626 -1.1855  1.7432 -0.2977
13135TIP3    H260897   3.214   6.769  15.767  0.3868  0.4170  0.2059
13136TIP3   OH260898   4.258   0.750   0.924  0.4459 -0.4888 -0.5208
13136TIP3    H160899   4.351   0.739   0.943  0.5905  0.5518 -0.5603
13136TIP3    H260900   4.255   0.780   0.833  0.1488  0.4180 -0.2292
13137TIP3   OH260901   0.863   1.029   3.333 -0.0097  0.0990 -0.9393
13137TIP3    H160902   0.820   1.104   3.290  1.3351  1.2374 -0.4049
13137TIP3    H260903   0.824   1.026   3.420  0.3142  0.5584 -0.7692
13138TIP3   OH260904   5.955   6.273   4.448  0.7022 -0.9355 -0.3020
13138TIP3    H160905   6.023   6.272   4.381  1.3168 -0.1540  0.2927
13138TIP3    H260906   5.975   6.349   4.502 -0.3635 -0.9726  0.1815
13139TIP3   OH260907   0.152   3.139   4.166  0.3652 -0.0836  0.7392
13139TIP3    H160908   0.216   3.204   4.136 -1.9137  1.6616 -0.6633
13139TIP3    H260909   0.113   3.178   4.244  0.8706 -1.0848  1.5206
13140TIP3   OH260910   5.532   3.752  12.833  0.5166 -1.0028  0.2584
13140TIP3    H160911   5.599   3.739  12.900 -0.2441  0.5837  1.4010
13140TIP3    H260912   5.459   3.698  12.862 -0.2421  0.5638  1.4147
13141TIP3   OH260913   2.697   1.958   4.681  0.1781 -0.1425 -0.2660
13141TIP3    H160914   2.637   1.888   4.706  0.4361 -1.7981 -3.6704
13141TIP3    H260915   2.643   2.018   4.629  0.1535  1.9130  1.9345
13142TIP3   OH260916   5.293   3.411  10.718  0.1767  0.3967 -0.0494
13142TIP3    H160917   5.265   3.500  10.696  0.9683  0.4254 -1.0221
13142TIP3    H260918   5.323   3.417  10.809  0.1325  1.1005 -0.0769
13143TIP3   OH260919   2.923   0.671   3.073 -0.7042  0.2567  0.0245
13143TIP3    H160920   2.900   0.723   3.150 -1.6535  0.3782 -0.3164
13143TIP3    H260921   2.870   0.709   3.003 -0.5611 -0.4560 -0.4761
13144TIP3   OH260922   3.900   4.964   3.413  0.0522 -0.1025 -0.3693
13144TIP3    H160923   3.957   4.897   3.375  0.8854  0.4960 -0.1933
13144TIP3    H260924   3.820   4.916   3.437  0.9502 -1.2192  0.5344
13145TIP3   OH260925   2.498   6.197  14.782 -0.0592  0.7737  0.4066
13145TIP3    H160926   2.422   6.146  14.752  0.7964  0.1819 -0.8308
13145TIP3    H260927   2.565   6.182  14.715  1.5683  0.3588  2.0668
13146TIP3   OH260928   2.223   4.130  11.266 -0.5207 -0.1184 -0.6837
13146TIP3    H160929   2.174   4.193  11.212 -1.6726  0.6267  1.1559
13146TIP3    H260930   2.190   4.044  11.239 -2.7023  0.3493  0.2960
13147TIP3   OH260931   1.303   1.381  14.854  0.5030  0.3862  0.1997
13147TIP3    H160932   1.209   1.384  14.868  0.7083  1.3631  1.4975
13147TIP3    H260933   1.315   1.414  14.765 -0.3241  0.8687  0.2576
13148TIP3   OH260934   3.880   0.473   3.563  0.6303 -0.4788  0.2953
13148TIP3    H160935   3.841   0.559   3.553  1.5605 -0.0651  0.0747
13148TIP3    H260936   3.909   0.450   3.475  0.9435 -0.7367  0.4633
13149TIP3   OH260937   6.166   4.311  14.226 -0.5743  0.1829  0.5506
13149TIP3    H160938   6.200   4.329  14.313 -0.1148 -0.5094  0.5142
13149TIP3    H260939   6.145   4.218  14.226  1.2366 -0.2738 -0.6809
13150TIP3   OH260940   3.503   1.066  12.606  0.6093  0.1886 -0.8597
13150TIP3    H160941   3.431   1.062  12.669  0.1836 -0.5560 -1.3848
13150TIP3    H260942   3.530   1.158  12.606  1.1436  0.0851  0.9849
13151TIP3   OH260943   2.164   3.713   4.538  0.3346  0.3285 -0.9145
13151TIP3    H160944   2.206   3.761   4.609  1.7689  0.7097 -1.9799
13151TIP3    H260945   2.124   3.637   4.581  0.1912  1.1326  0.4328
13152TIP3   OH260946   4.356   0.815   0.069  0.1658  0.0401  0.1089
13152TIP3    H160947   4.333   0.812  -0.024 -0.0869 -1.6917  0.1873
13152TIP3    H260948   4.277   0.848   0.112  0.4871  1.4324 -0.3175
13153TIP3   OH260949   0.117   2.823  14.975 -0.0428 -0.1159  0.4118
13153TIP3    H160950   0.137   2.806  15.067 -0.9155  1.1643  0.8703
13153TIP3    H260951   0.127   2.917  14.965 -0.4509 -0.1705 -0.6898
13154TIP3   OH260952   0.981   3.241   4.555 -0.2944  0.2869 -0.3552
13154TIP3    H160953   0.966   3.158   4.510 -0.6847  0.1786 -0.0277
13154TIP3    H260954   0.946   3.228   4.643  0.0894  0.6344 -0.1418
13155TIP3   OH260955   2.420   6.356  11.469 -0.5216  0.4102  0.9349
13155TIP3    H160956   2.364   6.348  11.392 -0.6290  0.2070  1.0335
13155TIP3    H260957   2.473   6.277  11.469  0.9175  1.3240 -0.0604
13156TIP3   OH260958   1.335   4.418   2.981  0.2343 -0.1280 -0.1389
13156TIP3    H160959   1.369   4.329   2.975  0.3976 -0.1042  0.3457
13156TIP3    H260960   1.378   4.465   2.909  1.4634 -0.0330  0.6308
13157TIP3   OH260961   3.911   5.096   1.044  0.5766 -0.4189  0.1255
13157TIP3    H160962   3.952   5.081   0.959 -2.1587 -0.2901 -1.3295
13157TIP3    H260963   3.984   5.101   1.105  2.7088  0.1891 -2.2911
13158TIP3   OH260964   5.686   4.216   0.572 -0.3655  0.0638 -0.0567
13158TIP3    H160965   5.674   4.124   0.596  1.4547  0.2859  2.0045
13158TIP3    H260966   5.757   4.216   0.508 -0.8672 -0.0087 -0.6199
13159TIP3   OH260967   5.292   0.868  11.908  0.3266 -0.0121 -0.5049
13159TIP3    H160968   5.212   0.918  11.895  0.3766  0.2506  0.1684
13159TIP3    H260969   5.343   0.882  11.828  0.6147  1.5331 -0.0819
13160TIP3   OH260970   1.432   0.153   1.579  0.3823  0.2925  0.9539
13160TIP3    H160971   1.406   0.083   1.519 -0.4386 -0.0415  1.6688
13160TIP3    H260972   1.349   0.190   1.610  0.7918  0.7626  1.5237
13161TIP3   OH260973   3.234   0.676   4.129 -0.1938  0.4544 -0.2468
13161TIP3    H160974   3.212   0.752   4.075 -1.1225 -0.4585 -1.2113
13161TIP3    H260975   3.320   0.648   4.096 -0.2544  0.5499 -0.4896
13162TIP3   OH260976   1.258   1.621  11.884 -0.6092 -0.3637  0.1787
13162TIP3    H160977   1.238   1.528  11.871 -1.2929 -0.3017  0.7039
13162TIP3    H260978   1.347   1.622  11.919 -0.0011 -0.7146 -1.3002
13163TIP3   OH260979   4.541   0.597   0.822  0.2632  0.2979 -0.1241
13163TIP3    H160980   4.560   0.554   0.738  1.0732  0.7346 -0.1708
13163TIP3    H260981   4.562   0.689   0.807 -1.6587  0.7885 -0.0841
13164TIP3   OH260982   2.310   1.859  12.833  0.3974  0.5766  0.4721
13164TIP3    H160983   2.354   1.886  12.913  0.5860 -2.9246  1.7307
13164TIP3    H260984   2.376   1.810  12.784 -0.9954 -1.6922  0.7001
13165TIP3   OH260985   6.549   1.143   3.013  0.6749  0.2399  0.5683
13165TIP3    H160986   6.626   1.100   2.976  0.1064 -0.3433  0.0312
13165TIP3    H260987   6.520   1.204   2.944  0.5949  0.3775  0.7225
13166TIP3   OH260988   1.815   3.534   3.328  0.2282 -0.0038  0.2001
13166TIP3    H160989   1.827   3.447   3.290  1.9427  0.4232 -0.3030
13166TIP3    H260990   1.874   3.536   3.404 -2.3403 -0.4588  2.3465
13167TIP3   OH260991   0.108   4.690   5.860 -0.0199  0.3680  0.2186
13167TIP3    H160992   0.094   4.780   5.888  0.1184  0.2048  0.8070
13167TIP3    H260993   0.196   4.667   5.891 -0.1393 -0.0434  0.2641
13168TIP3   OH260994   3.171   2.721  16.141  0.0009  0.2491 -0.8200
13168TIP3    H160995   3.223   2.696  16.065  2.1880  1.8038  0.0678
13168TIP3    H260996   3.153   2.638  16.186  0.7185 -0.4412 -1.7685
13169TIP3   OH260997   4.006   3.073   3.789  0.5330  0.1540  0.1853
13169TIP3    H160998   3.936   3.077   3.854 -0.2008 -2.4976 -0.3061
13169TIP3    H260999   4.087   3.083   3.840 -0.1217  0.9819  1.0897
13170TIP3   OH261000   0.055   2.285   4.762  0.7671  0.4678  0.0872
13170TIP3    H161001   0.080   2.272   4.854  1.0865 -1.4147 -0.2255
13170TIP3    H261002  -0.041   2.280   4.763  0.6499  2.1779  0.5229
13171TIP3   OH261003   1.444   0.801  11.449 -0.1645 -0.2967  0.3095
13171TIP3    H161004   1.514   0.863  11.469 -0.7337  0.2521  0.6485
13171TIP3    H261005   1.409   0.777  11.535 -1.4297  0.6659  0.0991
13172TIP3   OH261006   2.669   0.636  10.795 -0.4579  0.3733 -0.0045
13172TIP3    H161007   2.758   0.600  10.796 -1.0346 -1.1180 -0.1383
13172TIP3    H261008   2.668   0.692  10.717  1.0067  2.2421  1.2120
13173TIP3   OH261009   0.582   1.256  12.522 -0.0840 -0.3865  0.2148
13173TIP3    H161010   0.506   1.223  12.570 -0.7460 -0.1984 -0.6921
13173TIP3    H261011   0.571   1.223  12.433 -0.6710  2.0106 -0.6807
13174TIP3   OH261012   5.151   3.146  11.610 -0.7051 -0.4498 -0.9362
13174TIP3    H161013   5.244   3.166  11.597 -1.1402  1.3381 -1.7349
13174TIP3    H261014   5.147   3.051  11.621  1.1953 -0.5701 -1.0331
13175TIP3   OH261015   6.321   0.359  17.217 -0.1814  0.2335  0.0813
13175TIP3    H161016   6.312   0.408  17.299 -0.1076 -0.1566  0.3243
13175TIP3    H261017   6.383   0.411  17.166  2.2293 -1.0509  1.5043
13176TIP3   OH261018   3.923   4.578  12.898 -0.1246 -0.1219  0.3094
13176TIP3    H161019   3.919   4.636  12.974 -0.2561  0.3433 -0.0515
13176TIP3    H261020   3.991   4.614  12.842  0.0970 -0.5663  0.2844
13177TIP3   OH261021   6.416   2.298  16.046 -0.0921  0.0471  0.2396
13177TIP3    H161022   6.483   2.280  16.111  1.0310  0.9578 -0.6217
13177TIP3    H261023   6.448   2.374  15.998 -1.1997 -0.1832 -0.9470
13178TIP3   OH261024   6.527   0.266  12.429 -0.8571 -0.2193  0.0408
13178TIP3    H161025   6.622   0.271  12.419 -0.9778 -1.4035 -2.5280
13178TIP3    H261026   6.503   0.351  12.467  1.0289  1.0976 -1.4750
13179TIP3   OH261027   1.326   3.092  11.155  0.6565  0.0045 -0.1069
13179TIP3    H161028   1.340   3.089  11.060  0.3991  1.3062 -0.2058
13179TIP3    H261029   1.338   3.002  11.184  1.1888 -0.3312 -1.3128
13180TIP3   OH261030   0.815   1.242   5.916 -0.0820  0.4314 -0.3022
13180TIP3    H161031   0.872   1.264   5.842  0.9019  0.2266  0.3813
13180TIP3    H261032   0.874   1.212   5.984 -0.9876  0.5396  0.5552
13181TIP3   OH261033   3.653   5.822  11.927 -0.4773  0.1084 -0.1050
13181TIP3    H161034   3.573   5.874  11.918 -0.7683 -0.4354 -0.7598
13181TIP3    H261035   3.724   5.885  11.920 -0.8128  0.3486 -1.5311
13182TIP3   OH261036   0.364   2.654   4.210 -0.6364 -0.2319  0.0175
13182TIP3    H161037   0.339   2.650   4.117 -0.8074 -2.3083  0.1191
13182TIP3    H261038   0.394   2.745   4.222 -0.7835  0.1452 -2.0091
13183TIP3   OH261039   3.376   0.920   1.347  0.2905 -0.4134 -0.1904
13183TIP3    H161040   3.328   0.987   1.394  0.6682  0.4596 -1.0260
13183TIP3    H261041   3.414   0.965   1.272 -1.2704 -1.9857 -2.0154
13184TIP3   OH261042   1.145   2.721  12.720 -0.5705  0.1032  0.0163
13184TIP3    H161043   1.235   2.721  12.751 -0.3192 -0.2247 -0.7165
13184TIP3    H261044   1.119   2.629  12.722 -0.4317  0.0350 -1.0979
13185TIP3   OH261045   2.241   5.778   2.341  0.7359  0.0505 -0.2343
13185TIP3    H161046   2.156   5.739   2.322  0.3122 -0.2078  2.0130
13185TIP3    H261047   2.240   5.862   2.296 -0.3281 -0.3473 -0.9832
13186TIP3   OH261048   1.270   4.495  13.558  0.2263  0.7558 -0.0461
13186TIP3    H161049   1.184   4.485  13.516  0.3568  0.4651 -0.2504
13186TIP3    H261050   1.332   4.496  13.485  0.4416  0.4332  0.1308
13187TIP3   OH261051   2.624   4.055   4.878  0.6555 -0.0498  0.7220
13187TIP3    H161052   2.649   4.139   4.917 -1.3927  1.5037 -1.0963
13187TIP3    H261053   2.564   4.016   4.942  1.9095 -0.3510  1.7494
13188TIP3   OH261054   0.942   6.474  11.886  0.6641 -0.3146 -0.9432
13188TIP3    H161055   1.036   6.463  11.877  0.4920 -2.1046 -0.8880
13188TIP3    H261056   0.905   6.423  11.814 -0.2666  1.8048 -2.0717
13189TIP3   OH261057   3.975   1.501   0.438  0.0798  0.1658  0.1013
13189TIP3    H161058   3.963   1.553   0.518  0.6471  0.2241  0.1550
13189TIP3    H261059   4.070   1.504   0.422  0.1044 -0.7515  0.0365
13190TIP3   OH261060   4.460   6.407   5.457 -0.0412 -0.1506  0.2821
13190TIP3    H161061   4.418   6.370   5.379 -1.1179  0.3247  0.6190
13190TIP3    H261062   4.436   6.500   5.455  0.0968 -0.0935  1.0665
13191TIP3   OH261063   2.735   5.097   6.135 -0.1686  0.3315  0.2180
13191TIP3    H161064   2.682   5.028   6.173 -0.7557  0.2318 -0.7555
13191TIP3    H261065   2.673   5.153   6.088  0.3380  1.3288  0.6836
13192TIP3   OH261066   0.598   2.285   2.021 -0.1996 -0.3083  0.3142
13192TIP3    H161067   0.642   2.206   2.049 -1.8014 -1.0747  0.7935
13192TIP3    H261068   0.552   2.260   1.940  0.2091  0.4552 -0.1670
13193TIP3   OH261069   6.786   4.519  17.001  0.0067 -0.0972 -0.0309
13193TIP3    H161070   6.832   4.591  16.959  0.9777 -0.7983 -0.1892
13193TIP3    H261071   6.828   4.440  16.968 -0.6354 -0.7277  0.6096
13194TIP3   OH261072   4.720   1.983   3.700 -0.3914  0.6862  0.0978
13194TIP3    H161073   4.693   2.027   3.781  0.7644  1.6561 -0.0292
13194TIP3    H261074   4.770   1.907   3.730 -3.2509 -1.2951  0.3488
13195TIP3   OH261075   1.844   1.381  16.378  0.0043  0.1291 -0.1166
13195TIP3    H161076   1.793   1.414  16.305  1.3649  0.8549 -0.7818
13195TIP3    H261077   1.786   1.386  16.453 -1.6098 -1.1168 -1.2108
13196TIP3   OH261078   5.505   2.547   5.472 -0.3705  0.1053  0.2814
13196TIP3    H161079   5.457   2.621   5.509  1.6519  1.1675  0.9601
13196TIP3    H261080   5.549   2.507   5.547 -1.0804 -1.5666 -0.1417
13197TIP3   OH261081   6.258   3.910   5.380  0.1203  0.1923 -0.1056
13197TIP3    H161082   6.182   3.859   5.355  1.6082 -1.6142 -1.2031
13197TIP3    H261083   6.222   3.988   5.422 -2.2842 -0.8925  0.0018
13198TIP3   OH261084   0.385   3.217   2.587 -0.1533  0.1069  0.7214
13198TIP3    H161085   0.371   3.253   2.499 -0.3265 -0.1253  0.6539
13198TIP3    H261086   0.308   3.246   2.637 -2.0517 -2.9641 -0.2056
13199TIP3   OH261087   3.579   5.562  15.270 -0.1921  1.0680  0.3681
13199TIP3    H161088   3.673   5.550  15.262 -0.0624  1.3868  1.3009
13199TIP3    H261089   3.552   5.600  15.186  0.4887  0.8759  0.0577
13200TIP3   OH261090   1.245   4.441   3.562 -0.6600  0.0112  0.2607
13200TIP3    H161091   1.178   4.476   3.503  0.6009 -0.8166 -1.7572
13200TIP3    H261092   1.210   4.356   3.591  0.3850 -1.5787 -2.6971
13201TIP3   OH261093   5.851   1.941  15.780  0.1980 -0.0526  0.1802
13201TIP3    H161094   5.812   1.866  15.826  1.2290 -0.9108 -0.2901
13201TIP3    H261095   5.816   1.935  15.691 -2.2169  1.9149  0.8797
13202TIP3   OH261096   6.158   2.174  17.233  0.0480 -0.4669  0.1214
13202TIP3    H161097   6.105   2.129  17.167 -0.5472  0.7038 -0.2364
13202TIP3    H261098   6.096   2.196  17.302 -0.0848  1.3872 -0.5411
13203TIP3   OH261099   4.668   5.160  11.215  0.0360 -0.1539  0.0305
13203TIP3    H161100   4.680   5.076  11.171 -1.5981 -0.5173  0.2058
13203TIP3    H261101   4.669   5.139  11.309  0.4984  0.1682  0.1034
13204TIP3   OH261102   6.158   2.509  14.109  0.0147  0.0777 -0.0342
13204TIP3    H161103   6.229   2.531  14.050  0.5043  0.6940  0.7566
13204TIP3    H261104   6.176   2.560  14.188 -0.6503 -0.6668  0.6220
13205TIP3   OH261105   0.552   4.237  14.614  0.2164  0.0777  0.6421
13205TIP3    H161106   0.627   4.177  14.617  1.8172  1.5799 -3.0576
13205TIP3    H261107   0.490   4.194  14.555 -0.4329  0.2741  1.1777
13206TIP3   OH261108   0.331   5.597   0.397  0.2821  0.1506 -0.1721
13206TIP3    H161109   0.335   5.692   0.391  1.7752  0.0561 -1.2564
13206TIP3    H261110   0.418   5.571   0.426 -0.6905 -0.8075  2.0701
13207TIP3   OH261111   2.811   1.965  13.126  0.1542  0.5116  0.0091
13207TIP3    H161112   2.789   2.035  13.187 -1.4729  0.6544 -0.6970
13207TIP3    H261113   2.774   1.886  13.166  1.4116  0.1345  0.4796
13208TIP3   OH261114   2.579   4.141  14.338  0.0369 -0.4663  0.1256
13208TIP3    H161115   2.583   4.237  14.344  4.3538 -0.4435  0.1031
13208TIP3    H261116   2.571   4.123  14.245  0.2593 -0.0937  0.0315
13209TIP3   OH261117   4.237   0.527  12.387 -0.2216 -0.6627 -0.0827
13209TIP3    H161118   4.285   0.607  12.368 -1.8428  0.7116  1.2920
13209TIP3    H261119   4.304   0.465  12.416  1.0007  0.3212 -0.6951
13210TIP3   OH261120   4.796   5.238   4.490  0.4183  0.4286  0.4826
13210TIP3    H161121   4.839   5.263   4.572  0.0580 -1.1197  1.1725
13210TIP3    H261122   4.855   5.174   4.449 -0.7504 -1.0589  1.0160
13211TIP3   OH261123   5.383   6.191  14.496  0.5215 -0.4563  0.2502
13211TIP3    H161124   5.478   6.194  14.485  0.4235 -0.2562 -0.5785
13211TIP3    H261125   5.355   6.118  14.441  0.3954 -1.8669  2.0757
13212TIP3   OH261126   4.325   4.412  13.552  0.0864 -0.7117  0.4086
13212TIP3    H161127   4.265   4.471  13.507  0.0364  0.5109  1.9783
13212TIP3    H261128   4.385   4.382  13.484 -2.0468 -1.7006 -1.1360
13213TIP3   OH261129   4.292   4.455  16.797  0.8478 -0.1732 -0.1738
13213TIP3    H161130   4.224   4.431  16.734 -0.1102 -0.6211  0.9750
13213TIP3    H261131   4.265   4.413  16.879  2.0080  0.4377  0.5604
13214TIP3   OH261132   6.004   5.283  14.222  0.3937 -0.0145 -0.1020
13214TIP3    H161133   5.914   5.249  14.226 -0.5043  2.0391 -1.1147
13214TIP3    H261134   5.993   5.374  14.194  2.4237  1.8466  4.2270
13215TIP3   OH261135   5.689   2.237   2.115 -0.0793 -0.1903 -0.0684
13215TIP3    H161136   5.780   2.264   2.129 -0.1150 -0.3193  0.4262
13215TIP3    H261137   5.681   2.230   2.020 -0.0606  1.5327 -0.2465
13216TIP3   OH261138   4.995   5.852  16.790 -0.0892  0.1303 -0.1796
13216TIP3    H161139   4.948   5.816  16.864  0.5292 -0.6825 -0.1639
13216TIP3    H261140   5.075   5.890  16.828  1.5824 -2.6522 -0.6268
13217TIP3   OH261141   1.325   4.975   1.424  0.0100 -0.3691  0.4479
13217TIP3    H161142   1.387   5.042   1.394  0.4615 -0.4958  1.0595
13217TIP3    H261143   1.240   5.020   1.425  0.3425  0.2773  1.0769
13218TIP3   OH261144   0.217   4.862   1.256 -0.1823  0.3131 -0.5298
13218TIP3    H161145   0.300   4.903   1.279 -0.4049  0.6083 -0.2506
13218TIP3    H261146   0.152   4.905   1.312 -0.4832 -0.1093 -0.5480
13219TIP3   OH261147   4.612   3.390   3.761 -0.0795 -0.0545 -0.3529
13219TIP3    H161148   4.637   3.348   3.678  2.0158  0.3404  0.0139
13219TIP3    H261149   4.645   3.479   3.753 -0.1856  0.0989  0.7680
13220TIP3   OH261150   3.379   6.795  12.654  0.1268 -0.1987 -0.0352
13220TIP3    H161151   3.300   6.771  12.702  1.2764 -1.0939  1.5220
13220TIP3    H261152   3.363   6.765  12.565 -2.7861  3.0202 -0.8409
13221TIP3   OH261153   5.637   1.973  16.973 -0.4180  0.3040 -0.4373
13221TIP3    H161154   5.564   1.913  16.960  0.2366 -0.4306 -0.8646
13221TIP3    H261155   5.660   1.963  17.065 -1.4313  1.2423 -0.0587
13222TIP3   OH261156   2.197   2.992  14.626  0.1695  0.2317 -0.1697
13222TIP3    H161157   2.211   2.979  14.720 -1.4372  3.3201  0.6382
13222TIP3    H261158   2.107   2.965  14.611 -0.4213  2.0836 -0.2055
13223TIP3   OH261159   5.711   0.542  14.459  0.5271 -0.1506  0.0787
13223TIP3    H161160   5.800   0.573  14.445  0.4453  0.1467  0.2005
13223TIP3    H261161   5.689   0.493  14.379  0.3667  0.8073 -0.4870
13224TIP3   OH261162   3.192   4.906   2.857  0.5390  0.4659  0.7809
13224TIP3    H161163   3.177   4.999   2.837 -2.2203  0.3703  1.9612
13224TIP3    H261164   3.114   4.862   2.824  2.0436 -1.5762 -0.2406
13225TIP3   OH261165   0.567   2.476   2.266 -0.0305 -0.0853 -0.4391
13225TIP3    H161166   0.638   2.522   2.221  0.2927  0.0658  0.2242
13225TIP3    H261167   0.583   2.383   2.246 -0.4385  0.0427 -1.4192
13226TIP3   OH261168   6.174   5.171   4.996 -0.1498 -0.0359 -0.5506
13226TIP3    H161169   6.087   5.153   4.961  0.3150 -3.9477 -0.1187
13226TIP3    H261170   6.186   5.106   5.064  2.3750  1.7514  0.8821
13227TIP3   OH261171   5.624   2.858  16.521 -0.2432  0.0178 -0.3925
13227TIP3    H161172   5.681   2.831  16.448 -0.3508  0.5539 -0.6754
13227TIP3    H261173   5.677   2.842  16.599  0.4704  0.9124 -0.6754
13228TIP3   OH261174   1.420   3.231  16.892  0.5425 -0.1748 -0.4793
13228TIP3    H161175   1.448   3.314  16.854  1.0724  1.6209  3.3726
13228TIP3    H261176   1.324   3.235  16.890  0.5511  0.9611  0.3685
13229TIP3   OH261177   5.060   5.645  15.549 -0.2580 -0.1875  0.2166
13229TIP3    H161178   5.081   5.710  15.617 -0.2641  0.0575 -0.0134
13229TIP3    H261179   4.968   5.622  15.566  0.2633 -1.5035  1.4223
13230TIP3   OH261180   5.360   0.342  14.390 -0.0586 -0.2456 -0.7625
13230TIP3    H161181   5.383   0.303  14.306  0.3371 -2.1213  0.1754
13230TIP3    H261182   5.333   0.269  14.445 -1.1655  1.0402  0.4940
13231TIP3   OH261183   0.870   0.509  10.768 -0.1412  0.0801 -0.1338
13231TIP3    H161184   0.797   0.501  10.707 -0.6298  1.0158  0.2954
13231TIP3    H261185   0.856   0.593  10.811  1.5269  0.5636 -0.4568
13232TIP3   OH261186   3.540   3.004  14.380 -0.1978 -0.2888 -0.0961
13232TIP3    H161187   3.601   2.942  14.421  0.1484 -0.5483 -0.9891
13232TIP3    H261188   3.534   3.076  14.443 -0.2501 -1.0075  0.7459
13233TIP3   OH261189   3.912   2.786  16.670 -0.6091 -0.1289 -0.1127
13233TIP3    H161190   3.999   2.749  16.653 -1.1565 -1.0217 -1.1195
13233TIP3    H261191   3.851   2.725  16.627 -1.6278  1.2918 -0.7666
13234TIP3   OH261192   0.071   4.779  16.900  0.3901  0.4348 -0.5772
13234TIP3    H161193   0.165   4.768  16.916  0.0448  0.9142  2.4843
13234TIP3    H261194   0.042   4.837  16.970 -2.2952 -0.1028 -1.1384
13235TIP3   OH261195   0.717   4.562  12.881  0.3543  0.0512 -0.2265
13235TIP3    H161196   0.741   4.651  12.908 -0.4913  0.0937  0.4555
13235TIP3    H261197   0.700   4.516  12.964  3.0880 -1.4826 -0.3777
13236TIP3   OH261198   1.838   3.010   0.400 -0.1126 -0.4756 -0.1914
13236TIP3    H161199   1.869   3.061   0.325 -2.2963  0.2911 -0.6427
13236TIP3    H261200   1.813   2.925   0.363 -1.1349 -0.1177 -0.3577
13237TIP3   OH261201   3.969   4.877  11.374 -0.5054 -0.3894 -0.2823
13237TIP3    H161202   3.951   4.909  11.286  1.9912  0.1394 -0.6776
13237TIP3    H261203   4.006   4.953  11.420  0.6747 -1.3257  0.3761
13238TIP3   OH261204   5.852   0.522   3.608  0.0343  0.2183  0.4331
13238TIP3    H161205   5.764   0.560   3.601  0.3467  0.7529 -0.6474
13238TIP3    H261206   5.843   0.456   3.677 -1.9588 -1.7220 -1.5214
13239TIP3   OH261207   2.229   3.804  10.297  0.0992  0.1074 -0.0507
13239TIP3    H161208   2.296   3.817  10.230  0.9815  0.8611  0.9414
13239TIP3    H261209   2.254   3.722  10.340  1.9097  1.6490  1.9820
13240TIP3   OH261210   0.862   6.430  12.857 -0.3277 -0.0677  0.3058
13240TIP3    H161211   0.894   6.381  12.933  1.0359  0.7626  0.2872
13240TIP3    H261212   0.911   6.512  12.859  0.2833 -0.3254 -1.8951
13241TIP3   OH261213   5.513   0.876  10.435  0.8646 -0.0310  0.1975
13241TIP3    H161214   5.430   0.833  10.457 -0.7371  2.2671 -0.9463
13241TIP3    H261215   5.547   0.825  10.361  0.3872 -0.8901  0.5545
13242TIP3   OH261216   5.105   4.255   4.302  0.9340  0.0176 -0.2674
13242TIP3    H161217   5.112   4.332   4.358  0.0194 -0.6237  0.7784
13242TIP3    H261218   5.018   4.219   4.321  1.6828 -1.7879 -0.0238
13243TIP3   OH261219   2.364   1.997  16.474  0.6517  0.3591  0.8594
13243TIP3    H161220   2.288   1.962  16.520  0.5759  1.6034  1.7423
13243TIP3    H261221   2.439   1.956  16.518  0.5360  0.5852  1.2813
13244TIP3   OH261222   1.505   3.084  13.289 -0.8470 -0.0970  0.1150
13244TIP3    H161223   1.546   3.101  13.204 -1.9654 -2.8233 -1.0852
13244TIP3    H261224   1.505   3.169  13.333  1.5408  1.0070 -1.7900
13245TIP3   OH261225   5.009   3.733   0.503 -0.4564  0.3999 -0.0557
13245TIP3    H161226   5.078   3.667   0.501 -0.1223  0.5603  2.7562
13245TIP3    H261227   5.055   3.815   0.483 -0.0409  0.3258  0.5551
13246TIP3   OH261228   5.321   1.286  11.086 -0.5688  0.0737  0.2086
13246TIP3    H161229   5.319   1.363  11.029 -0.6476  0.3834  0.6265
13246TIP3    H261230   5.232   1.250  11.080 -0.6871  0.3243  0.4295
13247TIP3   OH261231   2.107   6.086  12.533 -0.2785 -0.0821  0.2757
13247TIP3    H161232   2.147   6.067  12.448  0.2473 -0.1732  0.5370
13247TIP3    H261233   2.076   6.176  12.525 -0.7479 -0.2776 -0.2023
13248TIP3   OH261234   1.616   1.283   0.852  0.2387  0.6405  0.2954
13248TIP3    H161235   1.663   1.202   0.830 -0.1417 -0.0554  1.8710
13248TIP3    H261236   1.561   1.259   0.927  0.9643  2.6460  1.5448
13249TIP3   OH261237   3.830   6.561  16.476 -0.1392  0.1536  0.1979
13249TIP3    H161238   3.754   6.602  16.433 -1.5211 -0.9995  1.4291
13249TIP3    H261239   3.800   6.474  16.499  1.3818 -0.1176  1.2900
13250TIP3   OH261240   6.114   0.411   0.360 -0.0814 -0.0311  0.6273
13250TIP3    H161241   6.116   0.330   0.411  1.4503  1.2318  2.7603
13250TIP3    H261242   6.074   0.475   0.418 -1.7584  0.6762 -1.2243
13251TIP3   OH261243   3.893   5.015   0.659  0.4970 -0.3452 -0.3937
13251TIP3    H161244   3.954   5.021   0.586 -1.0228  1.4622 -1.6002
13251TIP3    H261245   3.946   5.035   0.736  2.0405 -1.8969 -0.9845
13252TIP3   OH261246   1.133   4.725  15.935 -0.3706 -0.7794 -0.0878
13252TIP3    H161247   1.077   4.648  15.935 -0.7615 -0.5198 -1.5425
13252TIP3    H261248   1.222   4.691  15.928 -0.2249 -1.2157  2.6651
13253TIP3   OH261249   3.214   6.513  10.916  0.2297 -0.8537  0.3862
13253TIP3    H161250   3.167   6.504  10.999  2.3395 -1.8486  1.5783
13253TIP3    H261251   3.294   6.560  10.939  0.3589 -0.1623 -1.3327
13254TIP3   OH261252   6.795   4.056   1.426 -0.5297  0.2644 -0.7520
13254TIP3    H161253   6.820   3.971   1.390  1.4071 -1.3723  3.6721
13254TIP3    H261254   6.878   4.095   1.453 -1.6496  0.5277  2.9609
13255TIP3   OH261255   5.203   5.895   2.470 -1.0188 -0.1291 -0.0916
13255TIP3    H161256   5.113   5.903   2.440 -1.5930  0.7667  1.7424
13255TIP3    H261257   5.201   5.923   2.562  1.0048 -0.7208  0.1912
13256TIP3   OH261258   3.164   0.692  15.895  0.3013 -0.0455  0.1955
13256TIP3    H161259   3.189   0.785  15.886  2.1524 -0.3462  1.6175
13256TIP3    H261260   3.168   0.675  15.989 -3.2166 -0.8105  0.3342
13257TIP3   OH261261   3.370   5.845   4.561  0.2153 -0.4443  0.1935
13257TIP3    H161262   3.425   5.874   4.634 -0.9491  0.4029  0.7568
13257TIP3    H261263   3.409   5.886   4.484  0.5751 -0.1350  0.5340
13258TIP3   OH261264   4.948   0.036   1.697  0.5707  0.3156  0.2316
13258TIP3    H161265   5.035   0.012   1.667 -0.2979  0.1581 -2.4160
13258TIP3    H261266   4.889  -0.003   1.633 -1.4052  1.2917  1.3624
13259TIP3   OH261267   3.504   3.807  14.986 -0.6663  0.0417 -0.2073
13259TIP3    H161268   3.494   3.797  15.081 -0.1766  2.5452  0.1607
13259TIP3    H261269   3.426   3.764  14.949 -2.7800  2.1097  1.5362
13260TIP3   OH261270   4.658   3.872  12.590 -0.4130  0.9595 -0.4562
13260TIP3    H161271   4.691   3.786  12.615  0.8937  1.7333  0.5640
13260TIP3    H261272   4.631   3.861  12.498 -1.4680 -0.8474 -0.0008
13261TIP3   OH261273   5.969   3.180  13.928 -0.2624 -0.2304 -0.3002
13261TIP3    H161274   5.951   3.090  13.901 -1.8916  0.1756 -0.7258
13261TIP3    H261275   6.062   3.193  13.910  0.1478 -1.9882  0.3176
13262TIP3   OH261276   1.353   2.976  11.910 -0.5277  0.1554 -0.0282
13262TIP3    H161277   1.369   3.048  11.849  0.5318  0.6832  0.8272
13262TIP3    H261278   1.423   2.913  11.892  1.0948  1.2743  1.9964
13263TIP3   OH261279   1.377   2.861   0.002 -0.4197 -0.1206  0.3718
13263TIP3    H161280   1.430   2.868   0.082  0.3686  1.3531 -0.2351
13263TIP3    H261281   1.287   2.876   0.031 -0.6900 -3.1972  1.5093
13264TIP3   OH261282   4.922   5.637   2.570  0.0816 -0.2449 -0.7804
13264TIP3    H161283   4.964   5.626   2.484 -0.7905 -0.1901 -1.2169
13264TIP3    H261284   4.902   5.730   2.576 -1.1528 -0.4714 -1.1358
13265TIP3   OH261285   3.912   6.448  15.008 -0.2491  0.0553 -0.2242
13265TIP3    H161286   3.876   6.493  15.084  1.6352  0.2240  0.6313
13265TIP3    H261287   3.949   6.367  15.043  0.8648  0.2493 -0.8917
13266TIP3   OH261288   3.941   5.480  15.662  0.0961 -0.0971 -0.1622
13266TIP3    H161289   3.919   5.510  15.574  0.0206 -0.0122 -0.1139
13266TIP3    H261290   3.887   5.402  15.676  1.5242 -1.2872 -0.9560
13267TIP3   OH261291   3.234   0.094   4.039 -0.2228  0.3022 -0.1087
13267TIP3    H161292   3.276   0.155   3.978  1.5652  0.7554  1.4833
13267TIP3    H261293   3.262   0.123   4.126 -1.5364 -1.1685  0.8747
13268TIP3   OH261294   4.391   0.682   3.277 -0.1982 -0.3498  0.2673
13268TIP3    H161295   4.480   0.653   3.299 -0.8054 -2.1654  0.4911
13268TIP3    H261296   4.365   0.737   3.351  0.4962 -0.3286  0.5047
13269TIP3   OH261297   1.701   0.525   2.899 -0.3106 -0.6899  0.3957
13269TIP3    H161298   1.712   0.520   2.804 -0.1207 -3.7531  0.4918
13269TIP3    H261299   1.788   0.544   2.933 -0.2872 -0.0710  0.0002
13270TIP3   OH261300   0.794   5.904   1.082 -0.3479  0.2689  0.5222
13270TIP3    H161301   0.844   5.983   1.061 -0.9034  0.3000 -0.8241
13270TIP3    H261302   0.830   5.874   1.165 -0.1793  1.9799  1.1022
13271TIP3   OH261303   0.503   1.058  16.814 -0.6403  0.3466 -0.2235
13271TIP3    H161304   0.524   0.967  16.834 -0.2249  0.6973  0.9933
13271TIP3    H261305   0.414   1.054  16.778 -0.4981 -0.5638 -0.5166
13272TIP3   OH261306   3.884   6.670  14.550 -0.6521  0.5757  0.2523
13272TIP3    H161307   3.957   6.724  14.519 -1.9722  1.8414 -0.8556
13272TIP3    H261308   3.924   6.605  14.608  1.4909  0.3802 -1.3481
13273TIP3   OH261309   2.861   2.486   3.941  0.6244  0.3001  0.2123
13273TIP3    H161310   2.864   2.524   3.853 -0.5307 -0.5736 -0.2353
13273TIP3    H261311   2.905   2.401   3.933  1.5475  0.7128  0.7665
13274TIP3   OH261312   6.004   1.608   1.219 -0.0642  0.0201 -0.0799
13274TIP3    H161313   5.971   1.528   1.178  1.3752 -0.5432 -0.1747
13274TIP3    H261314   5.974   1.678   1.162 -0.5765 -0.5191 -0.4887
13275TIP3   OH261315   0.407   5.544   2.825 -0.6955 -1.1328  0.1664
13275TIP3    H161316   0.369   5.462   2.855 -1.7467  0.0953  2.4965
13275TIP3    H261317   0.341   5.610   2.846  0.7048  0.4897 -0.2803
13276TIP3   OH261318   2.560   3.080   3.797  0.2894  0.3603  0.2009
13276TIP3    H161319   2.615   3.145   3.755  0.4228 -0.5452 -1.0956
13276TIP3    H261320   2.553   3.108   3.888 -0.2282  2.5431 -0.4596
13277TIP3   OH261321   1.055   6.333   5.205 -0.6086  0.1670  0.0686
13277TIP3    H161322   1.093   6.403   5.153  0.0972  2.1040  2.9731
13277TIP3    H261323   0.960   6.343   5.192 -0.5904  2.3912  1.1891
13278TIP3   OH261324   3.577   0.866   2.222 -0.9002  0.2396 -0.3173
13278TIP3    H161325   3.620   0.905   2.146  1.4372 -2.7874 -0.7525
13278TIP3    H261326   3.492   0.838   2.190 -1.3656  2.0321 -0.7874
13279TIP3   OH261327   4.046   2.625  13.060 -0.3389 -0.3010  0.7685
13279TIP3    H161328   3.972   2.583  13.016 -1.7970  1.3990  1.4965
13279TIP3    H261329   4.112   2.636  12.992 -0.6267 -2.0599  0.1532
13280TIP3   OH261330   3.481   2.544  15.598  0.3488 -0.1074 -0.2407
13280TIP3    H161331   3.470   2.638  15.610 -0.9265 -0.2378 -0.2938
13280TIP3    H261332   3.411   2.519  15.538  0.4343 -1.1560  0.0767
13281TIP3   OH261333   5.449   5.074  13.417 -1.1705  0.0528 -0.1282
13281TIP3    H161334   5.425   5.153  13.368  1.6349 -0.2304 -2.2013
13281TIP3    H261335   5.431   5.003  13.356  1.5948 -0.3829 -0.5713
13282TIP3   OH261336   0.796   3.026  12.114 -0.4140  0.0202  0.3949
13282TIP3    H161337   0.861   3.093  12.091 -0.2826 -0.4649 -0.7376
13282TIP3    H261338   0.825   2.947  12.067 -1.7753 -0.2264 -0.1046
13283TIP3   OH261339   6.411   3.564  13.988  0.4907  0.6745  0.8242
13283TIP3    H161340   6.371   3.647  13.962  0.0804  0.4031  0.5873
13283TIP3    H261341   6.451   3.531  13.908 -2.0037 -0.8679  0.1167
13284TIP3   OH261342   5.344   0.919  15.576  0.6176  0.4037  0.0260
13284TIP3    H161343   5.319   0.994  15.630 -2.4429 -0.6023  0.1822
13284TIP3    H261344   5.261   0.881  15.548  2.0543 -2.5788 -0.5699
13285TIP3   OH261345   2.496   3.176   0.601 -0.1250  0.4977 -0.4457
13285TIP3    H161346   2.472   3.128   0.521 -0.9416 -0.4214  0.3314
13285TIP3    H261347   2.516   3.265   0.570  0.7589 -0.1375 -1.8302
13286TIP3   OH261348   3.447   3.484  14.148  0.3560 -0.3716 -0.5444
13286TIP3    H161349   3.488   3.565  14.118  0.1356 -0.3232 -0.7237
13286TIP3    H261350   3.353   3.500  14.138  0.2886 -0.4308 -0.0076
13287TIP3   OH261351   1.103   1.720  10.788  0.0092  0.3171  0.4446
13287TIP3    H161352   1.015   1.725  10.826 -0.6470 -2.5197 -0.3936
13287TIP3    H261353   1.108   1.631  10.752  2.3895  1.1661 -1.6279
13288TIP3   OH261354   6.356   5.647  11.790 -0.4769  0.6718 -0.3734
13288TIP3    H161355   6.321   5.565  11.823  0.5058  0.5401  0.3965
13288TIP3    H261356   6.449   5.643  11.811 -0.0429  1.1310 -2.0773
13289TIP3   OH261357   2.744   2.099  11.356  0.1439  0.0770 -0.2101
13289TIP3    H161358   2.700   2.023  11.395  1.0920  0.1940  1.1658
13289TIP3    H261359   2.834   2.070  11.342  0.6062  1.0134  0.6315
13290TIP3   OH261360   6.154   4.916  16.130  0.5324  0.3685 -0.3607
13290TIP3    H161361   6.100   4.942  16.056  0.4000  0.3731 -0.2623
13290TIP3    H261362   6.226   4.866  16.091  0.9586  1.1426 -0.5764
13291TIP3   OH261363   6.302   1.508  12.399 -0.2679 -0.2551  0.0771
13291TIP3    H161364   6.318   1.601  12.384 -1.5185 -0.3903 -2.5501
13291TIP3    H261365   6.319   1.496  12.493  2.2217  2.0965  0.0619
13292TIP3   OH261366   5.761   4.935   3.226  0.3309  0.0739 -0.5295
13292TIP3    H161367   5.825   4.928   3.155 -0.3771  0.9940 -1.2981
13292TIP3    H261368   5.676   4.933   3.182 -0.1428 -0.0132  0.3648
13293TIP3   OH261369   5.894   1.163  12.939 -0.0162  0.4807 -0.5141
13293TIP3    H161370   5.954   1.133  12.871 -0.7338 -1.0012 -0.5475
13293TIP3    H261371   5.951   1.194  13.009  0.7569  0.6170 -1.1887
13294TIP3   OH261372   1.558   4.422   0.956 -0.6206 -0.2154  0.1117
13294TIP3    H161373   1.541   4.328   0.948  1.8934 -1.0638  3.0283
13294TIP3    H261374   1.636   4.437   0.903 -0.0779 -0.1448  0.9175
13295TIP3   OH261375   6.728   3.926  12.037  0.3472  0.5386  0.6142
13295TIP3    H161376   6.660   3.867  12.070  0.6388  0.0880  0.4290
13295TIP3    H261377   6.699   3.948  11.948  1.0723 -0.6854  0.0521
13296TIP3   OH261378   2.109   0.396   6.045 -0.2077  0.8130  0.3286
13296TIP3    H161379   2.145   0.357   5.965  2.0610  1.8009  0.8083
13296TIP3    H261380   2.183   0.438   6.087 -1.4904  0.9164  2.6387
13297TIP3   OH261381   0.529   2.326   2.990 -0.0477 -0.1055  0.2690
13297TIP3    H161382   0.597   2.259   2.982  0.1625 -0.2084  2.2554
13297TIP3    H261383   0.566   2.403   2.948  0.8807 -0.4679  0.3848
13298TIP3   OH261384   5.887   4.090  14.984 -0.0287 -0.3468  0.0271
13298TIP3    H161385   5.928   4.143  14.916  0.3412  1.2748  1.4598
13298TIP3    H261386   5.951   4.022  15.003  0.3010 -0.1889 -0.4939
13299TIP3   OH261387   0.243   0.943  12.393 -0.0547 -0.0727  0.1559
13299TIP3    H161388   0.219   0.941  12.485 -0.7958  0.9568  0.0134
13299TIP3    H261389   0.166   0.908  12.347  1.2323 -2.9644  0.0338
13300TIP3   OH261390   4.658   2.540  12.764 -0.0209  0.0644  0.3334
13300TIP3    H161391   4.659   2.454  12.722 -0.7778  0.3426 -0.2555
13300TIP3    H261392   4.730   2.588  12.722 -1.1182  0.5332 -1.0669
13301TIP3   OH261393   5.289   3.626  15.369  0.0950 -0.2749  0.0483
13301TIP3    H161394   5.356   3.666  15.424  2.8916 -1.2592 -2.3788
13301TIP3    H261395   5.247   3.700  15.326  3.0217  0.3768 -1.9822
13302TIP3   OH261396   0.603   0.448   5.866  0.9653 -0.0413 -0.1089
13302TIP3    H161397   0.693   0.432   5.839  0.9631 -0.6155  0.2197
13302TIP3    H261398   0.582   0.376   5.926  0.1895 -0.0814 -0.4173
13303TIP3   OH261399   5.122   0.415  12.145 -0.3079 -0.3244  0.1111
13303TIP3    H161400   5.030   0.440  12.153  0.1270  1.0993  1.0111
13303TIP3    H261401   5.126   0.364  12.064 -1.4333  1.8734 -1.4166
13304TIP3   OH261402   1.264   5.190  14.016 -0.4029  0.4665  0.1827
13304TIP3    H161403   1.353   5.213  14.045 -1.2010  0.3145  3.0894
13304TIP3    H261404   1.228   5.273  13.985 -0.0805  1.1496  1.5263
13305TIP3   OH261405   6.423   1.371   3.138 -0.1327 -0.2519 -0.0478
13305TIP3    H161406   6.453   1.444   3.084 -0.1549 -0.3779 -0.2309
13305TIP3    H261407   6.475   1.296   3.109  0.4969 -0.1204  0.7361
13306TIP3   OH261408   1.381   0.366  13.899  0.0434  0.3715  0.5147
13306TIP3    H161409   1.348   0.293  13.952  1.6750  0.1160  1.2670
13306TIP3    H261410   1.322   0.439  13.918 -0.6760 -0.3212  1.0062
13307TIP3   OH261411   4.403   3.915   2.028  0.0208 -0.1726 -0.1806
13307TIP3    H161412   4.364   3.843   1.978 -0.6510 -0.1761  0.3227
13307TIP3    H261413   4.474   3.947   1.973 -0.3455 -0.5380 -0.8850
13308TIP3   OH261414   3.587   1.242  15.735  0.3420 -0.0084 -0.5697
13308TIP3    H161415   3.678   1.235  15.765  0.2685  1.0790 -0.0514
13308TIP3    H261416   3.538   1.184  15.794  0.4353  0.8689  0.3980
13309TIP3   OH261417   3.164   6.652  14.949 -0.4117  0.2732 -0.0253
13309TIP3    H161418   3.198   6.740  14.962  2.6078 -0.6010 -1.0326
13309TIP3    H261419   3.127   6.653  14.861  1.1334  0.1886 -0.7096
13310TIP3   OH261420   6.674   0.731   3.644 -0.5187 -0.0528 -0.2917
13310TIP3    H161421   6.621   0.751   3.721 -0.1155 -1.2778  0.3321
13310TIP3    H261422   6.684   0.635   3.645  2.2376  0.1455  0.0222
13311TIP3   OH261423   4.439   4.043   6.337 -0.0924  0.2140  0.7242
13311TIP3    H161424   4.409   3.962   6.296 -1.3468  1.1337 -0.2271
13311TIP3    H261425   4.504   4.014   6.401 -1.9665 -1.7438  1.8816
13312TIP3   OH261426   0.232   3.948  17.048  0.2912 -0.1311  0.0033
13312TIP3    H161427   0.244   4.036  17.012  1.5402  0.2939  1.3389
13312TIP3    H261428   0.301   3.896  17.005  2.3911  0.5865  2.2808
13313TIP3   OH261429   4.583   3.762   4.770  0.1777 -0.0386  0.2559
13313TIP3    H161430   4.639   3.778   4.694 -2.2380  3.3471 -1.0941
13313TIP3    H261431   4.497   3.741   4.732 -0.8800  0.8570  2.0397
13314TIP3   OH261432   6.065   4.387  14.931 -0.5184  0.1568 -0.4727
13314TIP3    H161433   6.069   4.336  15.012  1.0325  1.3447  0.2362
13314TIP3    H261434   6.059   4.321  14.862 -0.7834 -0.9109  0.5402
13315TIP3   OH261435   4.021   3.329   2.848 -0.0434  0.2328 -0.0408
13315TIP3    H161436   4.116   3.327   2.836  0.0223  0.6892  0.3924
13315TIP3    H261437   3.987   3.367   2.766  0.0926 -0.5463 -0.4671
13316TIP3   OH261438   5.669   5.883   1.622  0.7062  0.2963 -0.3088
13316TIP3    H161439   5.630   5.875   1.709  1.3647 -0.8756 -0.0988
13316TIP3    H261440   5.674   5.978   1.606 -0.0968  0.5055  0.6060
13317TIP3   OH261441   5.399   1.467  13.350 -0.0907 -0.2776 -0.3833
13317TIP3    H161442   5.436   1.461  13.438  0.5521  1.0290 -0.5350
13317TIP3    H261443   5.444   1.399  13.300 -0.3399 -0.9171  0.2511
13318TIP3   OH261444   1.716   4.917   4.343  0.0090  0.6188  0.4430
13318TIP3    H161445   1.641   4.965   4.310  0.8912  1.3299 -0.5733
13318TIP3    H261446   1.731   4.953   4.431 -1.0041  0.2487  0.7846
13319TIP3   OH261447   3.033   5.863  16.672  0.0436  0.6373  0.0743
13319TIP3    H161448   3.048   5.817  16.755  3.3031 -0.0841 -0.7658
13319TIP3    H261449   3.062   5.801  16.605 -2.4890  1.2035 -1.6862
13320TIP3   OH261450   6.359   5.517   2.690 -0.2874 -0.1809 -0.0722
13320TIP3    H161451   6.300   5.479   2.755 -0.0087 -2.0356 -0.8417
13320TIP3    H261452   6.315   5.503   2.606 -0.2624  1.4373 -0.3918
13321TIP3   OH261453   6.378   0.339   3.282 -0.3491  0.2721 -0.0215
13321TIP3    H161454   6.371   0.398   3.207  0.1397 -1.5038 -1.5440
13321TIP3    H261455   6.288   0.333   3.316 -0.5544  1.2003 -0.3706
13322TIP3   OH261456   2.776   5.203   5.390 -0.1957 -0.3139  0.0921
13322TIP3    H161457   2.695   5.239   5.352  0.7082  0.5324 -1.0812
13322TIP3    H261458   2.844   5.227   5.328  0.7412 -2.4439  0.2346
13323TIP3   OH261459   1.030   6.752   4.201 -0.4269  0.3657 -0.8130
13323TIP3    H161460   1.062   6.720   4.286  0.5122 -1.2164 -1.7083
13323TIP3    H261461   0.939   6.725   4.199 -0.8547  1.6093  0.2199
13324TIP3   OH261462   6.810   5.812  14.850 -0.6050 -0.9668  0.3127
13324TIP3    H161463   6.770   5.791  14.935 -0.7942 -1.5033  0.0902
13324TIP3    H261464   6.852   5.897  14.864  0.0700 -1.4267  1.1779
13325TIP3   OH261465   0.198   2.212   3.659  0.3576  0.2373  0.0130
13325TIP3    H161466   0.175   2.127   3.624 -0.1529  0.1843  0.4511
13325TIP3    H261467   0.287   2.202   3.693 -0.4882 -0.7919  2.0961
13326TIP3   OH261468   3.707   2.817   1.529  0.8610  0.3368 -0.0028
13326TIP3    H161469   3.753   2.746   1.483  4.5476  2.0167  0.7063
13326TIP3    H261470   3.703   2.787   1.620  2.0070  0.8127  0.2143
13327TIP3   OH261471   1.431   4.700  16.010  0.7296  0.4339  0.5266
13327TIP3    H161472   1.458   4.611  16.030  0.4538  0.3990  0.7434
13327TIP3    H261473   1.463   4.753  16.083 -0.2113  0.3171  1.0383
13328TIP3   OH261474   2.090   0.694   4.526  0.6683 -0.1447  0.6255
13328TIP3    H161475   2.076   0.601   4.508  0.6641  0.1273 -0.9259
13328TIP3    H261476   2.007   0.723   4.563  0.4960 -0.6518  0.6513
13329TIP3   OH261477   3.086   3.506   3.768  0.1224  0.8574  0.1817
13329TIP3    H161478   3.179   3.487   3.758  0.3644  1.4250  1.1520
13329TIP3    H261479   3.053   3.436   3.824  0.3159  1.4637  1.0897
13330TIP3   OH261480   3.007   4.568  14.258 -0.6811  0.6777 -0.7128
13330TIP3    H161481   3.012   4.599  14.167  0.2182 -0.7134 -1.1689
13330TIP3    H261482   2.925   4.520  14.262 -1.3077  1.7338 -0.4355
13331TIP3   OH261483   3.861   4.329   1.698  0.1121  0.4528  0.3008
13331TIP3    H161484   3.909   4.411   1.687 -0.7111  1.4544  3.3039
13331TIP3    H261485   3.880   4.301   1.787  0.5764 -2.8590 -0.6735
13332TIP3   OH261486   1.984   2.930  13.724 -0.8334 -0.3795 -0.1916
13332TIP3    H161487   1.977   3.025  13.717  0.3620 -0.1856  0.8901
13332TIP3    H261488   2.054   2.915  13.788 -0.0836 -1.9928 -1.3024
13333TIP3   OH261489   2.731   5.537   1.392 -0.6672 -0.1736  0.3383
13333TIP3    H161490   2.643   5.566   1.416 -0.4079  1.1805 -0.2688
13333TIP3    H261491   2.722   5.501   1.304 -0.8243 -1.2225  0.7602
13334TIP3   OH261492   5.343   3.777   6.128 -0.3483  0.3175 -0.4982
13334TIP3    H161493   5.408   3.757   6.195  0.4220  1.6939 -0.7901
13334TIP3    H261494   5.272   3.821   6.175 -0.1499  0.6094 -0.4693
13335TIP3   OH261495   3.419   0.408  10.800  0.4730  0.4264 -0.3603
13335TIP3    H161496   3.505   0.365  10.800  0.2190 -0.1430 -1.9171
13335TIP3    H261497   3.361   0.345  10.842  0.7426  0.6673  0.3833
13336TIP3   OH261498   3.422   1.088   3.556 -0.3390 -0.1791  0.2177
13336TIP3    H161499   3.505   1.070   3.599 -1.3909 -0.5948  2.2455
13336TIP3    H261500   3.409   1.014   3.497  0.6180 -0.2054  0.0267
13337TIP3   OH261501   2.118   0.871   2.472  0.1201  0.5203 -0.3491
13337TIP3    H161502   2.159   0.895   2.555  0.4581 -1.7902  0.2355
13337TIP3    H261503   2.027   0.901   2.481  0.6653  2.1528 -0.0326
13338TIP3   OH261504   2.769   5.961  12.041  0.7258  0.3039  0.2506
13338TIP3    H161505   2.755   5.914  11.959 -0.5753  0.7728  0.1841
13338TIP3    H261506   2.838   6.024  12.021 -1.0310  1.8801 -1.1429
13339TIP3   OH261507   4.349   2.822   0.182  0.3264  0.9749 -0.3095
13339TIP3    H161508   4.333   2.751   0.120  0.6319  1.1878 -0.6326
13339TIP3    H261509   4.267   2.871   0.184  0.4923  1.2835 -0.9543
13340TIP3   OH261510   0.717   1.916   2.456  0.0187  0.5973  0.4469
13340TIP3    H161511   0.650   1.904   2.523 -1.4513  2.5527 -0.5635
13340TIP3    H261512   0.684   1.866   2.381 -0.5395  1.8180 -0.1567
13341TIP3   OH261513   2.620   4.865   3.372 -0.7358  0.5676  0.1058
13341TIP3    H161514   2.643   4.880   3.463 -0.5942  2.0651 -0.1451
13341TIP3    H261515   2.561   4.790   3.374 -0.5608  0.4402  1.3929
13342TIP3   OH261516   0.306   3.773   2.819  0.0779 -0.2523 -0.2780
13342TIP3    H161517   0.368   3.845   2.825 -0.1386 -0.1186  0.4558
13342TIP3    H261518   0.277   3.758   2.910 -2.1691  0.7627 -0.7450
13343TIP3   OH261519   6.168   6.044  13.733 -0.2841 -0.3352 -0.1402
13343TIP3    H161520   6.109   6.009  13.800 -2.5133 -1.7163 -2.6078
13343TIP3    H261521   6.252   6.055  13.778 -1.9079 -0.0624  3.1109
13344TIP3   OH261522   5.505   1.319  15.044 -0.6818  0.8369 -0.1547
13344TIP3    H161523   5.443   1.357  14.981 -0.1289  2.2365  0.0945
13344TIP3    H261524   5.546   1.395  15.085 -0.2275 -0.0545  1.1090
13345TIP3   OH261525   5.150   4.250   1.602 -0.0160 -0.3043  0.0785
13345TIP3    H161526   5.121   4.294   1.682  0.0357  1.5135 -0.8390
13345TIP3    H261527   5.185   4.321   1.548  0.8576 -1.6330 -1.1563
13346TIP3   OH261528   1.255   3.223   1.943 -0.0815  0.2821  0.2093
13346TIP3    H161529   1.319   3.195   1.877 -0.4654  2.0092 -0.9803
13346TIP3    H261530   1.301   3.289   1.995 -1.1778  2.5519 -1.5129
13347TIP3   OH261531   6.807   2.929   4.105  0.0935  0.2329 -0.4148
13347TIP3    H161532   6.782   2.967   4.020 -0.0450  1.3166  0.0910
13347TIP3    H261533   6.865   2.995   4.144 -0.9952  0.4271  0.9525
13348TIP3   OH261534   1.871   2.956   1.472 -0.2099 -0.2281  0.0303
13348TIP3    H161535   1.864   3.001   1.556 -0.0195 -0.3866  0.1330
13348TIP3    H261536   1.799   2.893   1.473 -0.2146 -0.2225  0.0707
13349TIP3   OH261537   2.111   4.116   0.784 -0.2576  0.1383 -0.1423
13349TIP3    H161538   2.131   4.175   0.857 -0.5962  1.4255 -1.0528
13349TIP3    H261539   2.195   4.072   0.765 -0.4619 -1.2234  1.8331
13350TIP3   OH261540   5.638   3.729  14.443  0.5079 -0.1907 -0.2039
13350TIP3    H161541   5.723   3.694  14.470  1.3862  1.1895 -1.0789
13350TIP3    H261542   5.609   3.670  14.373 -1.0033 -2.7972  2.4087
13351TIP3   OH261543   1.322   6.753  12.982  0.0736  0.0730  0.4735
13351TIP3    H161544   1.240   6.720  13.019 -0.4940  1.6143  0.6633
13351TIP3    H261545   1.294   6.806  12.907  1.0874 -1.5356 -1.1042
13352TIP3   OH261546   0.105   6.453  16.588 -0.0354 -0.7183  0.0114
13352TIP3    H161547   0.012   6.429  16.596  0.1505 -1.9586 -1.1408
13352TIP3    H261548   0.126   6.433  16.497  1.2905 -0.1608  0.1837
13353TIP3   OH261549   1.921   3.249   5.867  0.2987 -0.1386 -0.1615
13353TIP3    H161550   1.918   3.157   5.893  1.5526 -0.2905 -0.4775
13353TIP3    H261551   1.962   3.294   5.941  1.1962 -0.1134 -0.6574
13354TIP3   OH261552   1.778   5.502  17.296  0.8977 -0.4182  0.8609
13354TIP3    H161553   1.868   5.495  17.266  0.3679  0.0584 -1.0030
13354TIP3    H261554   1.730   5.437  17.244  0.1409 -0.5857  1.7314
13355TIP3   OH261555   1.585   3.054  11.023  0.3255 -0.0671 -0.5660
13355TIP3    H161556   1.639   2.975  11.030  3.7609  2.2176  1.0115
13355TIP3    H261557   1.560   3.057  10.931 -0.5558 -3.2802 -0.5644
13356TIP3   OH261558   1.748   3.991  15.885 -0.3962  0.3057  0.3217
13356TIP3    H161559   1.710   3.984  15.797  0.6775 -1.9733 -0.0368
13356TIP3    H261560   1.673   3.981  15.944 -0.8341 -0.5086 -0.3518
13357TIP3   OH261561   2.085   4.543   1.048 -0.5847  0.4149 -0.3764
13357TIP3    H161562   2.148   4.615   1.057 -0.6181  0.3926  0.0377
13357TIP3    H261563   2.008   4.584   1.008 -0.7165  0.6752  0.1404
13358TIP3   OH261564   4.080   0.285  14.569 -0.1590  0.8167 -0.0039
13358TIP3    H161565   4.143   0.212  14.561  0.5809  1.6116 -1.7859
13358TIP3    H261566   4.051   0.280  14.660 -0.0698 -1.6515 -0.0229
13359TIP3   OH261567   4.629   2.805  12.459 -0.1555  0.0109 -0.2404
13359TIP3    H161568   4.720   2.821  12.485 -0.2870 -1.1086  0.9927
13359TIP3    H261569   4.594   2.749  12.528 -1.5301 -0.2865 -1.1475
13360TIP3   OH261570   1.468   1.063  16.106 -0.4439  0.1690 -0.3523
13360TIP3    H161571   1.542   1.091  16.054  0.4433  0.3574  0.9595
13360TIP3    H261572   1.395   1.057  16.044  0.8423 -0.8682 -1.8340
13361TIP3   OH261573   4.121   0.681  16.701  0.5399  0.1497 -0.2205
13361TIP3    H161574   4.161   0.752  16.752  0.5535  0.1015 -0.1649
13361TIP3    H261575   4.187   0.658  16.636  1.0094 -0.6159  0.5064
13362TIP3   OH261576   2.111   0.758  15.075  0.1526 -0.0129 -0.5716
13362TIP3    H161577   2.083   0.844  15.045 -0.3987  0.3103  0.8020
13362TIP3    H261578   2.044   0.698  15.043 -0.1223  0.2428 -0.4734
13363TIP3   OH261579   2.435   2.063  15.151  0.0015 -0.0028  0.3911
13363TIP3    H161580   2.476   2.010  15.219 -0.2700  0.3043  0.7974
13363TIP3    H261581   2.437   2.152  15.186  0.7530  0.3226 -0.4134
13364TIP3   OH261582   6.169   2.387  11.733 -0.7606 -0.0670 -0.4333
13364TIP3    H161583   6.169   2.430  11.819 -0.5692 -0.3426 -0.2928
13364TIP3    H261584   6.236   2.434  11.683 -1.4661  0.6480 -0.7183
13365TIP3   OH261585   2.879   4.852  14.632 -0.7776  0.4413 -0.1076
13365TIP3    H161586   2.883   4.759  14.654 -0.7591  0.0435 -1.6238
13365TIP3    H261587   2.966   4.885  14.654 -1.3719  0.5931  2.2664
13366TIP3   OH261588   0.867   1.736   4.169 -0.6916 -0.8699  0.0889
13366TIP3    H161589   0.914   1.748   4.087 -0.5698 -0.2421  0.2423
13366TIP3    H261590   0.925   1.772   4.236 -1.2216 -0.4371  0.3277
13367TIP3   OH261591   5.041   5.044  16.046 -0.0264  0.0146 -0.1042
13367TIP3    H161592   5.131   5.027  16.075  0.3114  2.0885  0.2411
13367TIP3    H261593   4.995   5.068  16.127  0.2235  3.1076 -0.7398
13368TIP3   OH261594   5.678   0.073   0.310  0.3530  0.1438 -0.2955
13368TIP3    H161595   5.743   0.014   0.273 -0.6864 -0.2266 -1.6101
13368TIP3    H261596   5.715   0.100   0.394  2.9403  1.1892 -1.6497
13369TIP3   OH261597   1.169   3.929  14.729 -0.4221 -0.9108 -0.4888
13369TIP3    H161598   1.175   3.989  14.655 -2.0069 -0.4140 -0.2549
13369TIP3    H261599   1.198   3.980  14.804  0.1560 -1.0862 -0.5832
13370TIP3   OH261600   3.526   5.957   4.315 -0.7387 -0.2106  0.0540
13370TIP3    H161601   3.544   6.049   4.331 -1.7603  0.2294 -1.1744
13370TIP3    H261602   3.479   5.956   4.231 -0.5140 -1.8638 -0.0828
13371TIP3   OH261603   2.456   5.084   5.569  0.4437 -0.4502 -0.3730
13371TIP3    H161604   2.523   5.018   5.550  1.8454  1.6387 -3.4132
13371TIP3    H261605   2.501   5.150   5.621 -0.0532 -0.3894 -0.0214
13372TIP3   OH261606   4.087   2.923   4.131 -0.6508  0.1571  0.2496
13372TIP3    H161607   4.024   2.994   4.146 -0.2710  0.3958  0.7577
13372TIP3    H261608   4.038   2.857   4.082 -0.8417  1.0241 -0.7433
13373TIP3   OH261609   5.636   1.219   4.262 -0.0850 -0.3936 -0.5157
13373TIP3    H161610   5.725   1.250   4.247 -0.3284  0.4616 -0.2129
13373TIP3    H261611   5.607   1.265   4.341 -0.8631 -0.5208 -0.7178
13374TIP3   OH261612   2.971   0.596   5.438 -0.2721  0.3147 -0.2553
13374TIP3    H161613   3.042   0.644   5.394 -0.5320 -0.2107 -1.3003
13374TIP3    H261614   2.997   0.592   5.530  1.0163  0.2290 -0.6040
13375TIP3   OH261615   4.984   5.764  14.371  0.0354  0.2103  0.3888
13375TIP3    H161616   5.046   5.718  14.314 -0.4281  0.5263 -0.4006
13375TIP3    H261617   5.033   5.783  14.450  1.1015  0.8856 -0.4094
13376TIP3   OH261618   6.621   4.364   2.943 -0.1650 -0.2713  0.1305
13376TIP3    H161619   6.608   4.337   3.034 -1.3888  1.7931  0.6349
13376TIP3    H261620   6.616   4.459   2.946  0.5888 -0.1313 -2.0054
13377TIP3   OH261621   0.437   2.150   3.383  0.0844 -0.5859  0.6076
13377TIP3    H161622   0.421   2.112   3.297  0.5775  0.3151  0.0996
13377TIP3    H261623   0.373   2.221   3.390  0.1391 -0.5670  0.9219
13378TIP3   OH261624   3.328   1.840  15.940 -0.1950 -0.0338  0.3266
13378TIP3    H161625   3.385   1.806  16.009 -1.6618  1.4892  2.4427
13378TIP3    H261626   3.340   1.935  15.942 -0.7355  0.1016 -1.1169
13379TIP3   OH261627   4.013   3.943  11.490  0.2933  0.2175 -0.0010
13379TIP3    H161628   4.095   3.906  11.457  0.8758  2.1692 -0.8652
13379TIP3    H261629   4.040   3.998  11.564 -0.1195  1.3363 -0.6501
13380TIP3   OH261630   1.721   6.501   6.910  0.0342 -0.0413 -0.0074
13380TIP3    H161631   1.666   6.433   6.871  0.9998 -0.8791  0.0236
13380TIP3    H261632   1.665   6.578   6.916 -0.8394 -0.5966 -0.8296
13381TIP3   OH261633   2.685   5.584  13.026  0.1539  0.0494 -0.2026
13381TIP3    H161634   2.719   5.604  12.939 -0.6703 -0.6328 -0.7013
13381TIP3    H261635   2.689   5.489  13.032 -0.4381  0.0452  0.2301
13382TIP3   OH261636   6.782   4.412  12.947  0.0640  0.1638 -0.3145
13382TIP3    H161637   6.877   4.421  12.940  0.0422  0.6966 -0.0149
13382TIP3    H261638   6.753   4.384  12.860  0.5545 -0.5803 -0.2433
13383TIP3   OH261639   2.861   0.430   6.260 -0.3102  0.0340  0.2688
13383TIP3    H161640   2.812   0.467   6.333 -3.4932  0.3992 -1.8633
13383TIP3    H261641   2.815   0.461   6.181  2.6960 -0.6131 -1.9509
13384TIP3   OH261642   0.731   4.282  15.704 -0.3022 -0.0544 -0.2803
13384TIP3    H161643   0.764   4.355  15.652  1.9249  0.2050  1.3448
13384TIP3    H261644   0.637   4.281  15.688 -0.0623  1.7006 -2.1273
13385TIP3   OH261645   5.552   3.475  10.905  0.6946  0.2620  0.4339
13385TIP3    H161646   5.535   3.564  10.875  0.0761 -0.8682 -2.9826
13385TIP3    H261647   5.467   3.442  10.932  0.3309 -0.1801 -1.1458
13386TIP3   OH261648   3.090   1.466   0.410  0.0866  0.0095  0.2163
13386TIP3    H161649   3.148   1.541   0.397 -0.1297 -0.0751 -1.4519
13386TIP3    H261650   3.142   1.404   0.462  1.0330  0.4387 -0.2016
13387TIP3   OH261651   1.187   4.382  12.758  0.3774 -0.0432 -0.0675
13387TIP3    H161652   1.266   4.421  12.796 -0.2075  1.1497 -0.0497
13387TIP3    H261653   1.116   4.440  12.784 -0.3262 -0.3486 -1.2307
13388TIP3   OH261654   1.852   0.375   2.119  0.2118  0.4672 -0.4602
13388TIP3    H161655   1.945   0.372   2.138 -0.0059  1.7475  0.9954
13388TIP3    H261656   1.825   0.464   2.142 -1.2032  0.4149 -1.7182
13389TIP3   OH261657   1.690   4.705   2.425  0.6235 -0.3304 -0.0143
13389TIP3    H161658   1.762   4.678   2.368 -0.3025 -0.6044 -1.0876
13389TIP3    H261659   1.611   4.689   2.373 -0.2265 -0.2043  1.2044
13390TIP3   OH261660   0.210   3.808  14.422  0.0460 -0.2617  0.5529
13390TIP3    H161661   0.221   3.843  14.333 -0.1050  0.1290  0.6863
13390TIP3    H261662   0.134   3.854  14.456 -2.0201 -2.8189 -0.3099
13391TIP3   OH261663   2.324   5.014   1.014  0.2790  0.1503 -0.5452
13391TIP3    H161664   2.349   5.106   0.999  2.5221 -0.4195 -0.7318
13391TIP3    H261665   2.367   4.966   0.944  2.0573 -1.3887  1.4605
13392TIP3   OH261666   1.230   4.756   4.648 -0.0425 -0.0041 -0.4076
13392TIP3    H161667   1.272   4.810   4.715  0.3692 -0.1783 -0.5230
13392TIP3    H261668   1.137   4.781   4.652 -0.1377 -0.4762  0.6718
13393TIP3   OH261669   3.362   5.807   3.072  0.0642 -0.2165  0.4788
13393TIP3    H161670   3.365   5.789   2.978  0.2511 -1.2872  0.6720
13393TIP3    H261671   3.283   5.761   3.102 -1.0471  1.6387  0.5694
13394TIP3   OH261672   0.427   1.508   4.085  0.2438 -0.4586  0.0366
13394TIP3    H161673   0.492   1.575   4.067  0.2684 -1.0448 -2.2855
13394TIP3    H261674   0.344   1.556   4.087  0.4269 -0.1350  0.0235
13395TIP3   OH261675   0.388   0.551   3.715 -0.2834 -0.1489  0.0908
13395TIP3    H161676   0.422   0.607   3.646  1.6970 -3.6235 -2.0284
13395TIP3    H261677   0.307   0.514   3.679  0.1652 -1.1250  0.0469
13396TIP3   OH261678   3.327   5.966  16.010  0.1849 -0.1931 -0.1839
13396TIP3    H161679   3.320   5.973  16.105 -2.6042  1.9416 -0.4243
13396TIP3    H261680   3.283   5.883  15.989 -3.1510  1.2846  0.2492
13397TIP3   OH261681   6.766   1.632   1.242  0.7614  0.2645  0.7365
13397TIP3    H161682   6.803   1.693   1.307  0.3725  0.8475  0.4214
13397TIP3    H261683   6.793   1.546   1.273 -0.7406  0.3821  2.5776
13398TIP3   OH261684   3.935   5.305   0.542  0.2191  0.4158  0.3966
13398TIP3    H161685   3.857   5.257   0.570  0.4452  0.3611  0.9384
13398TIP3    H261686   4.002   5.238   0.529  0.7619  0.6374  1.9075
13399TIP3   OH261687   4.489   6.445  13.242 -0.1246 -0.1603 -0.6236
13399TIP3    H161688   4.535   6.524  13.213 -0.8545  1.0905  1.3966
13399TIP3    H261689   4.397   6.469  13.239 -0.3403 -0.8111  0.3381
13400TIP3   OH261690   3.113   1.945  15.703 -0.3879 -0.0227  0.5110
13400TIP3    H161691   3.178   1.892  15.750 -0.9675  1.3907  3.1020
13400TIP3    H261692   3.033   1.892  15.705  0.0843 -0.8492 -0.8156
13401TIP3   OH261693   6.460   3.152   1.180 -0.4334 -0.6504  0.3637
13401TIP3    H161694   6.521   3.151   1.254  0.0162 -1.0342 -0.0002
13401TIP3    H261695   6.431   3.061   1.171  0.6268 -0.9057 -0.8088
13402TIP3   OH261696   0.627   3.545  10.410 -0.2561 -0.3048 -0.0410
13402TIP3    H161697   0.669   3.618  10.455 -0.1246  1.2770 -2.5392
13402TIP3    H261698   0.538   3.543  10.447 -0.4341  1.4902 -0.2588
13403TIP3   OH261699   3.220   3.767  15.587 -0.2476 -0.3560  0.1711
13403TIP3    H161700   3.194   3.735  15.500 -0.7241 -0.2189  0.2618
13403TIP3    H261701   3.138   3.794  15.628  0.1376  0.9314  0.1234
13404TIP3   OH261702   1.921   2.444  13.969 -0.2732 -1.1282 -0.3735
13404TIP3    H161703   1.931   2.529  13.926  0.7306  0.2901  2.4128
13404TIP3    H261704   2.010   2.411  13.978 -0.5814 -2.0422 -0.5869
13405TIP3   OH261705   0.784   1.595   4.426  0.1298  0.1089 -0.6667
13405TIP3    H161706   0.834   1.513   4.424  1.5697  0.9283 -0.3118
13405TIP3    H261707   0.788   1.628   4.336 -0.5985 -0.2786 -0.8488
13406TIP3   OH261708   3.071   4.476  15.650  0.0853  0.3504  0.6481
13406TIP3    H161709   3.150   4.442  15.609 -0.0403  0.5120  0.2635
13406TIP3    H261710   3.101   4.517  15.731  0.9011  3.3294 -1.0153
13407TIP3   OH261711   4.942   1.639  16.517 -0.5060  0.1306  0.6737
13407TIP3    H161712   4.894   1.609  16.440  0.8266  2.1743 -1.0742
13407TIP3    H261713   4.964   1.730  16.498  0.3068  0.5705  3.2903
13408TIP3   OH261714   5.995   1.819   5.757  0.1530 -0.0920  0.6486
13408TIP3    H161715   5.939   1.741   5.761 -0.4412  0.3224  0.5760
13408TIP3    H261716   5.942   1.889   5.796  0.5101  0.3743  0.3107
13409TIP3   OH261717   0.057   2.485   6.023 -0.4320  0.1085  0.0070
13409TIP3    H161718   0.049   2.517   6.112  1.0996  0.5603  0.0041
13409TIP3    H261719   0.112   2.407   6.030 -0.0966  0.2896 -0.5709
13410TIP3   OH261720   1.326   1.287  14.003  0.6924 -0.2892  0.4119
13410TIP3    H161721   1.399   1.264  13.946  0.8390  3.6807 -1.3367
13410TIP3    H261722   1.363   1.347  14.067 -0.5158 -0.4778  1.3366
13411TIP3   OH261723   2.897   3.804  11.469 -0.6831 -0.4013 -0.0370
13411TIP3    H161724   2.930   3.756  11.393  0.9141  1.5066 -0.6443
13411TIP3    H261725   2.826   3.859  11.435 -1.2556 -0.9327  0.2721
13412TIP3   OH261726   2.528   3.495   0.094 -0.1681  0.0233  0.7368
13412TIP3    H161727   2.439   3.461   0.085  0.5628 -1.8967  0.3783
13412TIP3    H261728   2.585   3.420   0.076  1.5477  1.4021  0.1131
13413TIP3   OH261729   0.815   1.302  12.244  0.0113 -0.3674  0.0966
13413TIP3    H161730   0.726   1.268  12.255  0.1971 -0.2035  2.5718
13413TIP3    H261731   0.862   1.232  12.198 -0.9952 -1.1386  0.2128
13414TIP3   OH261732   1.062   1.933   0.788  0.5962 -0.6872  0.3775
13414TIP3    H161733   1.106   1.934   0.872  1.6111  0.4957 -0.1386
13414TIP3    H261734   1.072   2.022   0.754 -3.1637  0.0272  0.7039
13415TIP3   OH261735   1.945   1.262  11.961  0.3952 -0.3308  0.0245
13415TIP3    H161736   1.901   1.207  12.026 -0.4587  1.6016  1.1771
13415TIP3    H261737   1.961   1.203  11.887 -1.3449 -1.8877  0.7858
13416TIP3   OH261738   2.985   1.439  16.650  0.7780  0.1318 -0.2693
13416TIP3    H161739   3.066   1.445  16.699  0.6095 -0.2247  0.0514
13416TIP3    H261740   2.940   1.522  16.668 -0.0017 -0.6199  1.4534
13417TIP3   OH261741   6.477   1.316  13.343  0.2282  0.3052 -0.1772
13417TIP3    H161742   6.466   1.258  13.268  1.1422  0.4316 -0.4167
13417TIP3    H261743   6.529   1.266  13.406  0.2996  0.5575 -0.0333
13418TIP3   OH261744   6.682   5.816  17.181  0.0780 -0.5121  0.2175
13418TIP3    H161745   6.728   5.771  17.110  0.1813 -0.4355  0.2366
13418TIP3    H261746   6.642   5.892  17.139 -1.7158 -1.6373 -0.2194
13419TIP3   OH261747   5.047   1.145  11.116 -0.7495  0.2666 -0.2844
13419TIP3    H161748   4.969   1.194  11.143 -0.1402  1.0920  0.0244
13419TIP3    H261749   5.088   1.118  11.199 -2.2156 -2.7252 -0.3920
13420TIP3   OH261750   4.833   0.289   0.573  0.0510 -0.0256 -0.0541
13420TIP3    H161751   4.746   0.251   0.581  0.3257 -0.5945  0.2903
13420TIP3    H261752   4.837   0.322   0.483 -0.1285 -0.9831 -0.4198
13421TIP3   OH261753   3.159   5.369   1.045  0.7417 -0.4618  0.4030
13421TIP3    H161754   3.096   5.439   1.061  0.8719 -0.0405 -0.8270
13421TIP3    H261755   3.200   5.353   1.130 -0.4631 -0.2003  1.0551
13422TIP3   OH261756   1.809   2.021  11.983  0.0067 -0.0943 -0.8051
13422TIP3    H161757   1.849   1.941  11.948  0.9186  0.8421 -1.9649
13422TIP3    H261758   1.725   2.027  11.938 -0.0592 -0.3765 -0.7272
13423TIP3   OH261759   0.601   4.259   2.645 -0.2080  0.0603  0.2676
13423TIP3    H161760   0.563   4.328   2.699 -2.8637 -1.9395  1.1883
13423TIP3    H261761   0.549   4.261   2.564 -1.0196 -1.3976  0.7038
13424TIP3   OH261762   0.431   0.026   1.053 -0.0442 -0.5987  0.2109
13424TIP3    H161763   0.410  -0.029   0.977 -1.1333 -0.9399  0.7477
13424TIP3    H261764   0.500  -0.023   1.099  0.2123 -0.6682 -0.2386
13425TIP3   OH261765   6.610   5.859  15.096  0.6709 -0.1770 -0.5068
13425TIP3    H161766   6.586   5.834  15.185  0.8094 -0.0982 -0.4454
13425TIP3    H261767   6.636   5.951  15.103  1.8724 -0.5030 -0.3852
13426TIP3   OH261768   5.460   4.766  16.585  0.8028  0.0728  0.3142
13426TIP3    H161769   5.409   4.780  16.505 -0.3564 -2.3719  0.5277
13426TIP3    H261770   5.428   4.832  16.645 -0.8613 -0.2356 -0.1669
13427TIP3   OH261771   3.223   0.416   2.800 -0.3571  0.0509 -0.0944
13427TIP3    H161772   3.307   0.460   2.813  0.8524 -1.9588 -0.5926
13427TIP3    H261773   3.171   0.479   2.751  0.2041  2.0213  1.6878
13428TIP3   OH261774   2.640   2.944   3.542 -0.2111 -0.9520  0.0043
13428TIP3    H161775   2.548   2.919   3.534 -1.0057  1.6051  0.2551
13428TIP3    H261776   2.668   2.907   3.626 -1.0931 -1.4689  0.0815
13429TIP3   OH261777   1.534   3.329  16.559  0.4017  0.3692 -0.4714
13429TIP3    H161778   1.549   3.381  16.480  0.5980 -0.7134 -1.1680
13429TIP3    H261779   1.562   3.386  16.631  1.0318  1.0574 -1.2382
13430TIP3   OH261780   3.206   5.487   4.340 -0.0687 -0.0044 -0.0312
13430TIP3    H161781   3.283   5.483   4.283  1.1052  1.4871  1.3422
13430TIP3    H261782   3.132   5.493   4.280  0.9626 -0.5638 -1.3945
13431TIP3   OH261783   2.070   5.181   0.634  0.0785  0.1416  0.1893
13431TIP3    H161784   1.983   5.217   0.649 -0.7742 -1.6958 -0.0193
13431TIP3    H261785   2.054   5.099   0.587  1.8491 -0.6916  0.9417
13432TIP3   OH261786   4.672   0.997  15.632  0.3534 -0.2856 -0.2207
13432TIP3    H161787   4.722   1.047  15.568  0.5382 -0.4619 -0.2167
13432TIP3    H261788   4.667   1.054  15.709  0.9282 -0.4443 -0.0651
13433TIP3   OH261789   3.210   0.642   3.300  0.2421  0.3643  0.4283
13433TIP3    H161790   3.234   0.586   3.226  0.7493 -1.0691  1.6409
13433TIP3    H261791   3.137   0.597   3.342  0.6345  0.6330  1.4135
13434TIP3   OH261792   1.613   1.931  13.174 -0.5012 -0.4034 -0.2919
13434TIP3    H161793   1.680   1.865  13.195 -1.0985 -1.0639 -0.4484
13434TIP3    H261794   1.654   1.985  13.106  1.0726  1.1426  1.7295
13435TIP3   OH261795   0.880   0.675  11.232  0.1187  0.4415  0.0765
13435TIP3    H161796   0.802   0.630  11.200 -0.4254  0.5950  1.1418
13435TIP3    H261797   0.949   0.650  11.171  0.1852 -2.9566  1.3124
13436TIP3   OH261798   1.219   6.749   5.528  0.2429  0.8605 -0.4827
13436TIP3    H161799   1.258   6.732   5.443  0.0693 -0.2194 -0.3601
13436TIP3    H261800   1.266   6.826   5.561  2.3722 -0.4384 -0.2837
13437TIP3   OH261801   5.938   1.637  13.038  0.1132  0.6211  0.0657
13437TIP3    H161802   5.895   1.645  12.953  0.8168 -0.2573 -0.3940
13437TIP3    H261803   6.029   1.615  13.016  0.4625  1.0542  1.0348
13438TIP3   OH261804   0.015   2.278  12.991 -0.2932  0.2258  0.2685
13438TIP3    H161805   0.100   2.259  13.031 -0.2360  0.6275  0.3471
13438TIP3    H261806   0.035   2.299  12.900 -0.1333  1.7037  0.6180
13439TIP3   OH261807   5.918   3.454  16.840 -0.1324  0.2035 -0.7896
13439TIP3    H161808   5.885   3.543  16.854  1.3443  0.6661  0.0361
13439TIP3    H261809   5.978   3.440  16.913 -1.0720 -1.8673 -0.3635
13440TIP3   OH261810   2.293   5.140  15.365  0.1120  0.2506  0.5105
13440TIP3    H161811   2.298   5.146  15.270 -0.2758 -1.0084  0.4039
13440TIP3    H261812   2.281   5.231  15.394  0.2742  0.6490 -0.6246
13441TIP3   OH261813   5.516   6.698  14.301 -0.3168  0.4072  0.0857
13441TIP3    H161814   5.537   6.708  14.209 -0.9753 -0.3970 -0.1563
13441TIP3    H261815   5.458   6.622  14.305  1.8417 -1.2711  1.4705
13442TIP3   OH261816   6.325   2.611   0.131 -0.5088  0.1557  0.0745
13442TIP3    H161817   6.358   2.664   0.203 -0.0096 -1.8325  1.3896
13442TIP3    H261818   6.248   2.566   0.167 -0.9381 -0.0167 -0.9950
13443TIP3   OH261819   3.887   1.259   5.470 -0.0415  0.5783 -0.1508
13443TIP3    H161820   3.865   1.236   5.560 -2.5637 -0.5422 -0.9750
13443TIP3    H261821   3.965   1.206   5.451 -1.1052 -1.3276  0.5229
13444TIP3   OH261822   1.441   2.838   0.603 -0.1808 -0.3074 -0.0473
13444TIP3    H161823   1.409   2.768   0.660  0.1382 -0.2565  0.1986
13444TIP3    H261824   1.534   2.819   0.593 -0.1439 -0.0578 -0.1837
13445TIP3   OH261825   6.799   2.922   2.001 -0.1602  0.0467  0.1500
13445TIP3    H161826   6.765   3.008   1.974 -1.6257 -0.4863  0.1734
13445TIP3    H261827   6.883   2.914   1.957  0.2255  1.6870  0.5102
13446TIP3   OH261828   6.308   0.965  11.052 -0.1716 -0.6352  0.1767
13446TIP3    H161829   6.395   0.946  11.088 -0.2568 -1.7786 -0.1955
13446TIP3    H261830   6.247   0.920  11.110 -0.5048 -0.1489  0.2151
13447TIP3   OH261831   1.530   5.467   1.085 -0.7884 -0.9997 -0.0178
13447TIP3    H161832   1.453   5.470   1.143 -2.4970 -1.3458 -2.1585
13447TIP3    H261833   1.556   5.374   1.085 -0.5722 -0.9443  0.4164
13448TIP3   OH261834   1.264   2.510  13.950  0.3385 -0.0127 -0.5932
13448TIP3    H161835   1.247   2.442  13.886 -0.0376 -0.1565 -0.3436
13448TIP3    H261836   1.209   2.584  13.924 -2.2107 -1.1086  1.2555
13449TIP3   OH261837   5.993   4.467  12.708 -0.1587  0.1976 -0.5563
13449TIP3    H161838   6.027   4.405  12.773 -0.6618 -0.2090 -0.6735
13449TIP3    H261839   6.008   4.424  12.624 -2.2945 -0.6922 -0.5448
13450TIP3   OH261840   2.825   1.019   5.267  0.8046  0.4035 -0.1536
13450TIP3    H161841   2.798   1.072   5.342 -1.8175  2.2061 -2.1931
13450TIP3    H261842   2.883   1.076   5.217  2.6692 -0.8453  0.4604
13451TIP3   OH261843   1.844   2.248   2.164 -0.2105 -0.0568  0.3702
13451TIP3    H161844   1.794   2.277   2.241  0.3994  0.5730  0.5381
13451TIP3    H261845   1.787   2.184   2.122 -0.3373 -0.8151  1.6425
13452TIP3   OH261846   0.373   4.424  13.729 -0.2476 -0.4280 -0.3474
13452TIP3    H161847   0.446   4.388  13.779  1.8109  2.0913 -1.3649
13452TIP3    H261848   0.370   4.371  13.649  0.8776 -0.1840 -0.5611
13453TIP3   OH261849   0.298   1.697  13.598 -0.0135 -0.6786  0.2743
13453TIP3    H161850   0.379   1.674  13.644 -0.0700 -0.0555  0.6991
13453TIP3    H261851   0.230   1.689  13.665  0.0726  1.5668  0.7252
13454TIP3   OH261852   2.074   2.541   3.172  0.0026 -0.4863 -0.1706
13454TIP3    H161853   2.133   2.611   3.201 -0.9745  0.3349 -0.1176
13454TIP3    H261854   2.122   2.460   3.192  1.0919  0.1508 -0.1049
13455TIP3   OH261855   0.960   0.807  13.566  0.0172 -1.0355 -0.4428
13455TIP3    H161856   0.876   0.798  13.522  0.1246  0.0354 -0.9152
13455TIP3    H261857   0.988   0.897  13.546  0.8002 -1.0386  0.5291
13456TIP3   OH261858   1.289   3.344   2.707  0.0619 -0.3531  0.6756
13456TIP3    H161859   1.250   3.400   2.639  1.2901 -0.6669 -0.3309
13456TIP3    H261860   1.292   3.257   2.668  0.2005 -0.6687  1.3766
13457TIP3   OH261861   0.197   6.229   1.345 -0.4828  0.5270  0.5445
13457TIP3    H161862   0.241   6.306   1.309 -1.4297  0.5708 -0.6078
13457TIP3    H261863   0.106   6.258   1.358 -0.7966 -0.3176  0.3085
13458TIP3   OH261864   5.292   4.582   5.535 -0.5226 -0.0762 -0.7163
13458TIP3    H161865   5.379   4.622   5.540 -0.1123 -0.6145 -2.7018
13458TIP3    H261866   5.309   4.490   5.517 -1.5062 -0.8306  1.7284
13459TIP3   OH261867   2.743   6.657  12.730  0.0880  0.0051 -0.0128
13459TIP3    H161868   2.683   6.702  12.672  1.7186  0.6397 -1.2836
13459TIP3    H261869   2.702   6.663  12.816 -1.2400  1.1674 -0.6876
13460TIP3   OH261870   3.378   2.484   6.159 -0.0522 -0.3059  0.1306
13460TIP3    H161871   3.403   2.457   6.247 -0.5588 -2.0074 -0.2027
13460TIP3    H261872   3.371   2.402   6.110 -0.3900  0.5601 -1.3317
13461TIP3   OH261873   3.922   4.028  10.485 -0.2026  0.0843  0.3223
13461TIP3    H161874   3.887   4.079  10.412  0.7646  0.2548 -0.0506
13461TIP3    H261875   3.944   4.093  10.552  0.3736  0.1042  0.1260
13462TIP3   OH261876   0.659   4.816   3.409  0.4310  0.2311 -1.0870
13462TIP3    H161877   0.699   4.763   3.478 -4.4518 -1.0786  1.1671
13462TIP3    H261878   0.680   4.906   3.434  0.3427 -0.2922  1.1031
13463TIP3   OH261879   0.294   0.263   5.691  0.3184 -0.0352  0.5918
13463TIP3    H161880   0.212   0.310   5.707 -0.0815 -0.7354  0.6413
13463TIP3    H261881   0.266   0.175   5.667  0.9745  0.1984 -1.2255
13464TIP3   OH261882   0.657   2.017   1.349  0.2713  0.3879 -0.2983
13464TIP3    H161883   0.649   2.109   1.325 -1.3704 -0.1927 -2.3403
13464TIP3    H261884   0.711   1.979   1.279  1.7803 -0.0644  1.0583
13465TIP3   OH261885   1.970   6.566  12.141  0.0612 -0.3941  0.7084
13465TIP3    H161886   2.053   6.601  12.172 -0.4957  1.9679 -0.2660
13465TIP3    H261887   1.903   6.606  12.197 -0.5290 -1.3734  0.7450
13466TIP3   OH261888   2.921   1.828   5.574  0.5278 -0.0415  0.4371
13466TIP3    H161889   2.988   1.896   5.580  0.3672  0.2223 -0.5744
13466TIP3    H261890   2.869   1.839   5.653  0.0409  1.5250 -0.0604
13467TIP3   OH261891   0.904   5.123   1.196 -0.0777  0.1652  0.3529
13467TIP3    H161892   0.848   5.056   1.236 -1.8592 -1.2854 -3.9791
13467TIP3    H261893   0.844   5.196   1.179  0.4477  0.4820 -0.1455
13468TIP3   OH261894   1.661   3.812   2.911 -0.2870 -0.3667 -0.2472
13468TIP3    H161895   1.633   3.746   2.973  0.0227 -0.0530  0.2339
13468TIP3    H261896   1.604   3.800   2.835  1.5995 -3.1422 -1.4186
13469TIP3   OH261897   5.565   5.486   3.444 -0.2962  0.9098  0.4818
13469TIP3    H161898   5.491   5.494   3.504  0.0533  1.6984  0.8161
13469TIP3    H261899   5.528   5.503   3.357 -0.3694  2.0626  0.7297
13470TIP3   OH261900   6.242   4.976  14.449 -0.2479  0.4100 -0.2162
13470TIP3    H161901   6.155   5.013  14.433 -0.6203  0.3728  1.6023
13470TIP3    H261902   6.289   5.045  14.497  0.2937 -0.0682 -0.0451
13471TIP3   OH261903   2.055   0.328  12.331  0.0893 -0.2207 -0.2611
13471TIP3    H161904   2.070   0.239  12.299 -0.3913 -0.3005 -0.2729
13471TIP3    H261905   2.112   0.383  12.277 -0.2324 -0.4269 -0.8174
13472TIP3   OH261906   3.468   2.070   6.613 -0.7348 -0.2319 -0.3793
13472TIP3    H161907   3.449   2.111   6.528 -2.3451  1.3532  0.6867
13472TIP3    H261908   3.561   2.046   6.608  0.0577  2.6955 -1.4427
13473TIP3   OH261909   2.189   4.288  15.239 -0.5892  0.4198 -0.1837
13473TIP3    H161910   2.221   4.256  15.323 -0.6369 -0.4900 -0.5098
13473TIP3    H261911   2.255   4.351  15.210 -0.8457  1.1642  0.7882
13474TIP3   OH261912   1.641   6.685  12.101  0.6978  0.0238 -0.4135
13474TIP3    H161913   1.702   6.660  12.170 -0.9074 -0.5240  0.8853
13474TIP3    H261914   1.557   6.696  12.146 -0.2840  0.2273 -2.1923
13475TIP3   OH261915   1.953   5.128  11.203 -0.5349 -0.5326  0.0988
13475TIP3    H161916   1.929   5.057  11.262  0.1995  0.8362  2.1723
13475TIP3    H261917   2.048   5.135  11.212 -0.7879  2.1524  1.8106
13476TIP3   OH261918   4.551   6.446   4.323  0.2347  0.0685  0.3056
13476TIP3    H161919   4.541   6.475   4.414  1.1810  1.4197  0.0058
13476TIP3    H261920   4.574   6.526   4.275  2.0203 -1.0249 -0.7361
13477TIP3   OH261921   0.653   1.831  14.831  0.4032 -0.4378  0.0094
13477TIP3    H161922   0.644   1.743  14.795 -1.6174 -0.8568  1.3520
13477TIP3    H261923   0.719   1.823  14.899  0.2591 -0.9261  0.0960
13478TIP3   OH261924   1.868   2.103  15.511  0.3103 -0.1093  0.3908
13478TIP3    H161925   1.854   2.161  15.586  0.4948 -1.6218  1.6348
13478TIP3    H261926   1.960   2.113  15.488  0.1469  0.6943  0.0497
13479TIP3   OH261927   2.050   5.424  11.247  0.5936 -0.1339  0.4887
13479TIP3    H161928   1.989   5.373  11.193  2.3184 -0.2378 -1.5032
13479TIP3    H261929   1.994   5.479  11.302 -1.2936 -0.2444 -1.2081
13480TIP3   OH261930   5.937   2.319   3.054  0.2379  0.2777 -0.0032
13480TIP3    H161931   5.969   2.390   2.998  0.3562 -0.0073 -0.3075
13480TIP3    H261932   6.013   2.296   3.108  0.0806  0.6500  0.3776
13481TIP3   OH261933   2.215   0.752   3.743  0.3229 -0.3102  0.3572
13481TIP3    H161934   2.234   0.731   3.835 -0.6137 -0.8343  0.4461
13481TIP3    H261935   2.136   0.805   3.747  1.2232  1.1233 -0.0522
13482TIP3   OH261936   2.409   1.891  11.253  0.2593  0.4448  0.3313
13482TIP3    H161937   2.314   1.890  11.235  0.2045  2.0929  0.3213
13482TIP3    H261938   2.449   1.907  11.167  0.4500  1.1085  0.5389
13483TIP3   OH261939   1.506   0.398   4.169 -0.8898 -0.7811  0.9662
13483TIP3    H161940   1.584   0.453   4.158 -2.0547  0.8335  0.3224
13483TIP3    H261941   1.497   0.353   4.085 -0.9859 -0.5093  0.8300
13484TIP3   OH261942   4.914   0.588   2.410  0.1739  0.3832  0.4822
13484TIP3    H161943   4.902   0.495   2.392 -0.6458  0.0349  2.5134
13484TIP3    H261944   4.911   0.630   2.324 -2.7290 -1.1344 -0.2869
13485TIP3   OH261945   1.097   1.538   5.721 -0.4151 -0.5255 -0.3173
13485TIP3    H161946   1.084   1.584   5.804  0.3355 -0.8144 -0.0338
13485TIP3    H261947   1.075   1.603   5.654  0.7377  0.2962  0.0684
13486TIP3   OH261948   4.291   0.659  16.111  0.0402 -0.5644  0.2680
13486TIP3    H161949   4.361   0.721  16.134  1.9140 -2.0755 -0.9556
13486TIP3    H261950   4.334   0.573  16.114 -1.7108 -1.5331 -0.8203
13487TIP3   OH261951   5.656   4.998   1.220  0.5121  0.1977  0.2492
13487TIP3    H161952   5.641   4.905   1.236 -1.2548  0.2870 -0.6594
13487TIP3    H261953   5.713   5.000   1.143 -0.9108 -0.1722 -0.8656
13488TIP3   OH261954   4.019   0.746  14.423  0.4380 -0.0221 -0.4337
13488TIP3    H161955   4.003   0.742  14.517 -1.4611 -0.3305 -0.7188
13488TIP3    H261956   3.944   0.796  14.388  0.9769 -0.1169 -1.8011
13489TIP3   OH261957   3.264   2.467  12.983  0.4476 -0.3939 -0.0978
13489TIP3    H161958   3.265   2.482  13.077 -4.1896  0.4101  0.0624
13489TIP3    H261959   3.272   2.555  12.945  1.4995 -0.6299 -0.4457
13490TIP3   OH261960   2.594   5.640   1.128 -0.2312 -0.6086 -0.1008
13490TIP3    H161961   2.543   5.578   1.075 -0.7208 -1.3918  1.2322
13490TIP3    H261962   2.544   5.721   1.124 -1.4023 -1.2538  0.8527
13491TIP3   OH261963   6.263   5.575  12.555  0.1520  0.1567  0.4434
13491TIP3    H161964   6.293   5.661  12.586 -1.5307  1.4713 -1.3091
13491TIP3    H261965   6.215   5.538  12.629 -0.8587  1.6771  0.6065
13492TIP3   OH261966   6.287   6.187  14.081 -0.1497 -0.1570  0.2015
13492TIP3    H161967   6.320   6.098  14.068 -0.5417 -0.5677  1.7639
13492TIP3    H261968   6.300   6.204  14.174 -2.1884  0.5315  0.4235
13493TIP3   OH261969   1.760   5.721  15.338  0.4862 -0.7630 -0.5357
13493TIP3    H161970   1.820   5.752  15.405  0.2677 -0.5307 -0.4475
13493TIP3    H261971   1.676   5.710  15.383  0.2090 -0.1071 -0.8782
13494TIP3   OH261972   0.178   0.122  14.231  0.2629 -0.2006  0.0193
13494TIP3    H161973   0.239   0.158  14.296  0.4215  2.3180 -1.3858
13494TIP3    H261974   0.232   0.108  14.153 -0.4879 -0.2779 -0.4958
13495TIP3   OH261975   4.424   5.062  12.792 -0.5713 -0.8620  0.3266
13495TIP3    H161976   4.415   5.146  12.747  1.3392 -1.5302 -1.4295
13495TIP3    H261977   4.442   5.085  12.883 -2.9317  0.5449  0.5071
13496TIP3   OH261978   0.395   1.615   5.294  0.1089 -0.1022  0.4037
13496TIP3    H161979   0.471   1.627   5.352 -0.9009 -0.1118  1.7695
13496TIP3    H261980   0.407   1.527   5.258  0.5191 -0.2856  0.9719
13497TIP3   OH261981   3.194   2.210   5.358 -0.1043  0.7188 -0.4352
13497TIP3    H161982   3.225   2.255   5.279  0.3358 -0.1539 -0.7758
13497TIP3    H261983   3.186   2.279   5.424  0.5474  1.2940 -0.9488
13498TIP3   OH261984   2.323   4.002  15.839 -0.4904 -0.6598 -0.4206
13498TIP3    H161985   2.379   4.000  15.762  0.3294  1.1111  0.0741
13498TIP3    H261986   2.326   3.913  15.873  2.9536 -0.4474  0.1906
13499TIP3   OH261987   4.434   2.603  12.552 -0.7614 -0.2776 -0.0164
13499TIP3    H161988   4.431   2.516  12.594 -0.0850 -0.1940  0.2237
13499TIP3    H261989   4.424   2.585  12.459  3.3547 -1.0824 -0.5155
13500TIP3   OH261990   5.168   1.486  12.539  0.4145 -0.2117 -0.1553
13500TIP3    H161991   5.231   1.422  12.571  1.2369  1.0225  0.7708
13500TIP3    H261992   5.210   1.523  12.461  0.6462  0.2937  0.2057
13501TIP3   OH261993   2.312   4.463  12.183  0.5072  0.0870 -0.3743
13501TIP3    H161994   2.267   4.455  12.268  0.0332 -2.2239 -0.7642
13501TIP3    H261995   2.301   4.555  12.159 -0.2814  0.5618  1.5657
13502TIP3   OH261996   3.416   4.175   2.760 -0.2768 -0.5635 -0.3959
13502TIP3    H161997   3.355   4.113   2.721 -0.7528  0.4437 -1.2996
13502TIP3    H261998   3.465   4.210   2.685 -1.1784  1.3784 -0.1361
13503TIP3   OH261999   1.206   3.512   2.400  0.1506 -0.2219 -0.1072
13503TIP3    H162000   1.159   3.544   2.477 -1.5612  0.5709 -1.4183
13503TIP3    H262001   1.179   3.571   2.330  2.0402 -0.6271 -1.2397
13504TIP3   OH262002   6.646   6.255   4.080 -0.1799 -0.3071  0.2905
13504TIP3    H162003   6.731   6.211   4.078 -0.0222 -0.0745  1.3957
13504TIP3    H262004   6.637   6.293   3.993  0.2404 -1.4543 -0.2794
13505TIP3   OH262005   5.471   2.742   3.128 -0.4680  0.3373 -0.3695
13505TIP3    H162006   5.406   2.687   3.084 -0.6182  1.4599 -1.6268
13505TIP3    H262007   5.438   2.831   3.118  2.0462  1.1660 -2.6094
13506TIP3   OH262008   6.234   2.359  17.059 -0.2139  0.1813  0.0801
13506TIP3    H162009   6.200   2.295  17.121 -1.0440  1.6355  1.1959
13506TIP3    H262010   6.320   2.326  17.035 -0.5177 -1.2053  0.8213
13507TIP3   OH262011   1.436   5.988  11.980  0.3087  0.2606  0.5276
13507TIP3    H162012   1.405   5.897  11.984  1.1719 -0.0457  0.3623
13507TIP3    H262013   1.527   5.984  12.008  0.3427  1.0945  0.5705
13508TIP3   OH262014   1.887   6.221   1.567  0.6291  0.4635 -0.6592
13508TIP3    H162015   1.819   6.252   1.626  0.5030 -2.0411  0.6395
13508TIP3    H262016   1.957   6.191   1.624  1.0933 -0.7403 -1.8157
13509TIP3   OH262017   3.600   6.339  14.368  0.0153 -0.0856  0.1552
13509TIP3    H162018   3.618   6.267  14.428 -2.3938 -2.4657 -1.7358
13509TIP3    H262019   3.620   6.304  14.281 -0.6709  1.7421 -0.8040
13510TIP3   OH262020   2.056   3.462   5.114 -0.3834  0.2261  0.3395
13510TIP3    H162021   2.118   3.389   5.101 -0.7015  0.0266 -0.1014
13510TIP3    H262022   2.102   3.523   5.171  0.4220  0.3137 -0.3847
13511TIP3   OH262023   5.085   1.872   0.004  0.1752  0.2110  0.4188
13511TIP3    H162024   5.012   1.834   0.053  0.0503 -0.9206 -0.5990
13511TIP3    H262025   5.052   1.882  -0.085  1.0394  0.3497  0.0979
13512TIP3   OH262026   1.717   0.273  13.085 -0.2192  0.1488 -0.0963
13512TIP3    H162027   1.729   0.190  13.038  1.0480  0.7482 -0.9027
13512TIP3    H262028   1.655   0.322  13.031  0.6619  0.5394 -0.7872
13513TIP3   OH262029   0.716   0.768  13.484 -0.4302  0.8392 -0.4110
13513TIP3    H162030   0.631   0.792  13.521 -1.0652  0.8286 -1.7761
13513TIP3    H262031   0.723   0.674  13.499 -1.3299  0.5719 -1.4950
13514TIP3   OH262032   5.025   6.341   3.970  0.2388 -0.4002  0.7204
13514TIP3    H162033   5.117   6.342   3.994 -0.1997  0.7894  2.5132
13514TIP3    H262034   4.997   6.251   3.983  1.4327 -1.1211 -1.2303
13515TIP3   OH262035   4.635   1.270   2.182  0.1081 -0.2080  0.1638
13515TIP3    H162036   4.620   1.241   2.092  1.1612 -1.3301  0.3255
13515TIP3    H262037   4.700   1.209   2.216  0.0956  0.5120  1.5327
13516TIP3   OH262038   4.999   5.719   2.300  0.2527  0.0246 -0.1647
13516TIP3    H162039   4.937   5.683   2.236  0.9030 -1.5895  0.0627
13516TIP3    H262040   5.043   5.789   2.253 -0.5676  0.0853 -0.8770
13517TIP3   OH262041   2.700   4.537   1.006  0.1862  0.3235 -0.2266
13517TIP3    H162042   2.698   4.547   0.911 -0.8366  1.7497 -0.0926
13517TIP3    H262043   2.793   4.539   1.029  0.3805  1.9044 -1.0441
13518TIP3   OH262044   0.079   6.141   4.074 -0.5771 -0.1655 -0.2809
13518TIP3    H162045   0.092   6.085   4.151 -0.2311  0.2356 -0.0424
13518TIP3    H262046   0.126   6.096   4.004 -0.8850 -0.5271 -0.2588
13519TIP3   OH262047   5.556   4.156   4.656 -0.3016 -0.0415  0.1732
13519TIP3    H162048   5.491   4.195   4.598 -1.8996 -3.1912 -0.3987
13519TIP3    H262049   5.508   4.133   4.735  0.9012  0.4683  1.0823
13520TIP3   OH262050   4.915   3.561   1.879 -0.1485 -0.0788  0.1705
13520TIP3    H162051   4.843   3.522   1.928 -0.9060  1.4015  0.2966
13520TIP3    H262052   4.880   3.571   1.790  1.8617 -4.5994 -1.4158
13521TIP3   OH262053   1.903   5.734  12.175  0.6205 -0.2845 -0.2999
13521TIP3    H162054   1.814   5.701  12.187 -0.7929  3.1442 -0.4172
13521TIP3    H262055   1.943   5.727  12.262 -0.3397 -0.3059  0.1483
13522TIP3   OH262056   3.640   4.177   1.231  0.1464 -0.2387  0.2632
13522TIP3    H162057   3.715   4.224   1.194 -1.2607  1.3554 -0.7191
13522TIP3    H262058   3.665   4.159   1.321  1.3733  1.0315  0.2022
13523TIP3   OH262059   0.591   4.068  14.163  0.2001 -0.2889 -0.0160
13523TIP3    H162060   0.655   4.016  14.115  2.3381  1.6633  0.5631
13523TIP3    H262061   0.622   4.158  14.154 -2.8346  0.8569 -0.2200
13524TIP3   OH262062   3.799   4.525  13.507 -0.1631 -0.3992  0.5140
13524TIP3    H162063   3.819   4.618  13.506 -0.5530 -0.3064  0.8781
13524TIP3    H262064   3.877   4.484  13.545 -0.5084 -0.0714  1.6313
13525TIP3   OH262065   1.990   1.875   3.800 -0.2542 -0.5283 -0.3351
13525TIP3    H162066   2.034   1.790   3.801 -0.2927 -0.5560 -0.7366
13525TIP3    H262067   1.937   1.876   3.880  1.1516 -0.1308  0.6333
13526TIP3   OH262068   5.284   6.733  16.162 -0.1734  0.2548 -0.0321
13526TIP3    H162069   5.253   6.682  16.088  1.8345 -0.4435 -0.4699
13526TIP3    H262070   5.318   6.668  16.223 -1.4580  0.8419  1.3653
13527TIP3   OH262071   2.549   1.834  13.647  0.0418  0.0392 -0.6993
13527TIP3    H162072   2.627   1.785  13.621  0.9917  1.0667  0.1314
13527TIP3    H262073   2.558   1.918  13.603 -0.3405  0.3493 -0.1977
13528TIP3   OH262074   6.158   4.875  15.824 -0.1151  0.1163  0.3881
13528TIP3    H162075   6.203   4.901  15.744 -1.1845  0.7192 -0.0278
13528TIP3    H262076   6.067   4.864  15.799  0.0970 -3.4672  0.6729
13529TIP3   OH262077   0.784   5.498  10.918 -0.3702  0.2750 -0.2227
13529TIP3    H162078   0.743   5.532  10.998 -0.1863  0.2305 -0.1086
13529TIP3    H262079   0.756   5.559  10.849 -0.3238  0.4585 -0.0786
13530TIP3   OH262080   4.348   4.648  11.575 -0.2063 -0.2810  0.0813
13530TIP3    H162081   4.336   4.647  11.480 -2.1043 -1.2639  0.2806
13530TIP3    H262082   4.277   4.703  11.607  0.8051  0.5822  0.9385
13531TIP3   OH262083   1.029   5.569  14.244 -0.1660 -0.3635  0.1937
13531TIP3    H162084   1.083   5.630  14.193 -0.3373 -0.1660  0.2450
13531TIP3    H262085   0.994   5.622  14.315  0.7550 -0.8397  1.0269
13532TIP3   OH262086   3.788   0.383   5.347 -0.1734 -0.0974 -0.1304
13532TIP3    H162087   3.851   0.430   5.402  0.9414 -0.2222 -1.2507
13532TIP3    H262088   3.780   0.297   5.389 -0.9672  0.5076  1.0069
13533TIP3   OH262089   4.255   4.387  16.324 -0.0303  0.6873 -0.3493
13533TIP3    H162090   4.302   4.305  16.335  1.1811  1.4778  0.6191
13533TIP3    H262091   4.301   4.432  16.254 -1.1678  0.2487 -1.4214
13534TIP3   OH262092   1.929   5.917   5.060  0.2896  0.4993  0.0301
13534TIP3    H162093   1.848   5.963   5.041 -1.0259 -1.2258  1.1469
13534TIP3    H262094   1.917   5.830   5.022  1.1690 -0.1293  1.1314
13535TIP3   OH262095   2.553   6.577  13.654 -0.0458 -0.3995 -0.2152
13535TIP3    H162096   2.464   6.592  13.623 -0.8371  0.1764  2.0918
13535TIP3    H262097   2.595   6.663  13.648 -0.5094 -0.0563  1.1005
13536TIP3   OH262098   6.465   5.129   1.095 -0.0762 -0.3066  0.5046
13536TIP3    H162099   6.551   5.087   1.094 -0.8197 -1.8836 -0.3063
13536TIP3    H262100   6.465   5.186   1.019  1.2054  1.8560  2.0039
13537TIP3   OH262101   0.444   6.005  14.816  0.0099  0.0727 -0.4314
13537TIP3    H162102   0.518   5.944  14.820 -0.7027 -0.7796  1.3151
13537TIP3    H262103   0.459   6.066  14.888 -1.6693 -1.0302  0.9542
13538TIP3   OH262104   5.764   2.775  16.282  0.1594 -0.3603 -0.5059
13538TIP3    H162105   5.756   2.814  16.195 -0.8487 -0.3673 -0.4347
13538TIP3    H262106   5.819   2.698  16.269 -0.7545 -0.9086 -1.3350
13539TIP3   OH262107   4.051   4.547   2.116  0.4686  0.0424 -0.0131
13539TIP3    H162108   4.137   4.506   2.125  1.2405  1.3314 -1.0820
13539TIP3    H262109   4.004   4.523   2.196  1.2575 -1.9617 -0.1054
13540TIP3   OH262110   5.262   0.387   4.641  0.1428  0.2113 -0.0351
13540TIP3    H162111   5.298   0.415   4.726  1.5330 -0.4491 -0.3775
13540TIP3    H262112   5.178   0.433   4.634  1.2276  2.3930  0.5020
13541TIP3   OH262113   6.384   0.143  11.899 -0.2063 -0.4148  0.3935
13541TIP3    H162114   6.421   0.134  11.987 -0.5387  1.6532  0.8001
13541TIP3    H262115   6.299   0.183  11.912 -1.0215 -1.6614 -0.7916
13542TIP3   OH262116   5.540   3.745  10.990 -0.7075  0.3805  0.1915
13542TIP3    H162117   5.612   3.802  10.963  0.8165 -1.1589  0.7213
13542TIP3    H262118   5.519   3.774  11.079  0.9495 -0.6017  0.9704
13543TIP3   OH262119   6.195   0.392   3.058  0.0659 -0.1593 -0.3101
13543TIP3    H162120   6.182   0.478   3.097  3.7210  1.1705 -1.5461
13543TIP3    H262121   6.171   0.403   2.966  0.6632 -0.3741 -0.5026
13544TIP3   OH262122   6.378   2.591  13.914 -0.3894 -0.6151 -0.3708
13544TIP3    H162123   6.413   2.547  13.837 -1.6875 -0.4848 -1.0636
13544TIP3    H262124   6.326   2.664  13.879 -0.2646 -0.0106  0.6589
13545TIP3   OH262125   5.365   0.070   5.477  0.0821  0.1781 -0.0630
13545TIP3    H162126   5.345   0.059   5.570  0.3848  1.7142  0.2011
13545TIP3    H262127   5.434   0.137   5.475 -1.4161  1.7489 -1.4961
13546TIP3   OH262128   1.047   6.414   1.343  0.2893  0.1751  0.0078
13546TIP3    H162129   1.103   6.338   1.328  2.9647  2.3684 -2.1385
13546TIP3    H262130   1.066   6.440   1.433  0.8695 -0.4815  0.0839
13547TIP3   OH262131   4.651   0.647   3.394  0.0235  0.2206 -0.0725
13547TIP3    H162132   4.716   0.711   3.424  1.6467 -1.0883 -0.6905
13547TIP3    H262133   4.640   0.588   3.468  2.0331 -1.4480 -1.0144
13548TIP3   OH262134   4.356   5.243  14.321  0.8611  0.3062 -0.1349
13548TIP3    H162135   4.287   5.286  14.271 -0.8265  0.0087  1.7881
13548TIP3    H262136   4.309   5.193  14.388  2.9329 -0.6463  0.6894
13549TIP3   OH262137   0.787   0.517  11.542 -0.8598 -0.7424  0.2540
13549TIP3    H162138   0.845   0.593  11.541 -1.0173 -0.6030  1.1036
13549TIP3    H262139   0.844   0.443  11.524 -0.3572 -0.6335  1.3402
13550TIP3   OH262140   4.491   4.943  14.388 -0.3090  0.0511  0.4425
13550TIP3    H162141   4.479   4.932  14.483 -1.2695 -3.8728  0.0668
13550TIP3    H262142   4.408   4.913  14.351  0.3679  0.6819 -1.6731
13551TIP3   OH262143   2.484   5.532  13.926  0.6070  0.0923  0.1295
13551TIP3    H162144   2.421   5.593  13.964  0.7016  0.0001  0.4361
13551TIP3    H262145   2.451   5.515  13.838  0.1096 -0.0924  0.3505
13552TIP3   OH262146   2.963   1.790   3.458  0.4108  0.3170  0.1476
13552TIP3    H162147   2.881   1.761   3.419  1.2352  1.1044 -2.3768
13552TIP3    H262148   2.937   1.851   3.527 -1.1953  2.5896 -2.2711
13553TIP3   OH262149   2.682   3.600  14.242 -0.2959 -0.4176  0.0526
13553TIP3    H162150   2.631   3.627  14.317 -0.8505 -1.4122  0.0473
13553TIP3    H262151   2.768   3.640  14.255  0.1893 -1.9764  2.1338
13554TIP3   OH262152   6.707   3.494  11.102  0.0245  0.1920  0.2307
13554TIP3    H162153   6.743   3.464  11.019  1.5659  1.9745  0.1779
13554TIP3    H262154   6.621   3.530  11.080  0.6599  1.1850 -0.7307
13555TIP3   OH262155   3.020   4.628  17.193  0.6068  0.4248  0.5582
13555TIP3    H162156   2.966   4.705  17.210  0.0870  0.1503  0.2130
13555TIP3    H262157   2.957   4.561  17.165  1.1727  0.1994 -0.2125
13556TIP3   OH262158   4.806   4.169   4.341  0.4318 -0.6508  0.2738
13556TIP3    H162159   4.830   4.078   4.355 -1.3668 -1.1858  0.0031
13556TIP3    H262160   4.782   4.174   4.248 -0.5167 -0.1563  0.5347
13557TIP3   OH262161   2.986   5.946   1.831  0.7755 -0.3176 -0.0593
13557TIP3    H162162   3.004   5.971   1.921  1.8992  0.9623 -0.6123
13557TIP3    H262163   3.026   5.860   1.821 -2.3082 -2.1315  1.5970
13558TIP3   OH262164   1.781   0.173  13.646 -0.6087  0.3790  0.8625
13558TIP3    H162165   1.701   0.221  13.626  0.5950  2.4817  0.8096
13558TIP3    H262166   1.773   0.150  13.739 -0.8365  1.5319  1.1436
13559TIP3   OH262167   3.829   5.664   5.775  0.0638 -0.6548 -0.0028
13559TIP3    H162168   3.822   5.616   5.857 -0.7298  1.8520  1.5135
13559TIP3    H262169   3.745   5.707   5.766  0.8648  0.7652 -1.0318
13560TIP3   OH262170   0.008   3.786   3.970  0.4694 -0.1596 -0.3838
13560TIP3    H162171  -0.027   3.701   3.996 -1.4253  0.0414 -2.0381
13560TIP3    H262172  -0.024   3.799   3.881  0.7387  2.2822 -0.1886
13561TIP3   OH262173   0.019   6.397  16.937 -0.5326  0.1919 -0.6122
13561TIP3    H162174   0.017   6.463  17.006  1.1408 -1.1084  0.7569
13561TIP3    H262175   0.104   6.410  16.894  0.5933 -2.0370  0.7620
13562TIP3   OH262176   2.496   2.979  15.814 -0.1750  0.5488 -0.1067
13562TIP3    H162177   2.533   3.060  15.849 -1.6177  0.9367  0.5721
13562TIP3    H262178   2.491   2.995  15.719 -0.3449  1.2154  0.0071
13563TIP3   OH262179   3.219   4.246   0.753  0.4923  0.1231  0.0733
13563TIP3    H162180   3.289   4.310   0.763  2.6986 -1.9746 -0.8457
13563TIP3    H262181   3.144   4.285   0.797  2.2635  2.4264  1.2666
13564TIP3   OH262182   1.953   6.362   0.026  0.4834 -0.1550  0.4534
13564TIP3    H162183   2.024   6.367  -0.038  1.3799 -0.5802  1.3970
13564TIP3    H262184   1.918   6.451   0.030 -0.7344 -0.4591 -1.8704
13565TIP3   OH262185   1.866   4.474  16.647 -0.1563 -0.5107  0.2895
13565TIP3    H162186   1.950   4.437  16.620 -0.3298 -0.4992 -0.2743
13565TIP3    H262187   1.811   4.398  16.663 -0.8824 -0.5301 -2.0275
13566TIP3   OH262188   3.829   1.020  14.540  0.0501 -0.6554  0.4063
13566TIP3    H162189   3.739   0.990  14.530  0.3536 -1.2639 -0.6691
13566TIP3    H262190   3.862   0.970  14.615 -0.5386 -0.3420  0.8756
13567TIP3   OH262191   1.418   0.351  12.238  1.0000 -0.2721  0.0451
13567TIP3    H162192   1.495   0.389  12.197 -1.5248  1.7326 -3.3588
13567TIP3    H262193   1.403   0.269  12.190  0.9147 -0.5954  0.6081
13568TIP3   OH262194   4.463   5.590   2.445  0.1887  0.1661 -0.1675
13568TIP3    H162195   4.390   5.552   2.494  0.8599 -1.2252 -0.1884
13568TIP3    H262196   4.539   5.578   2.503  1.2342 -2.5860 -1.9032
13569TIP3   OH262197   3.036   3.039   0.012 -0.1229  0.1773 -0.0764
13569TIP3    H162198   3.090   3.107  -0.028 -0.4289  0.6894  0.3696
13569TIP3    H262199   3.099   2.983   0.058  0.0576  0.6532  0.2686
13570TIP3   OH262200   4.497   3.885   3.341 -0.3713  0.3669  0.2103
13570TIP3    H162201   4.452   3.877   3.425 -2.8436  1.6993 -0.8987
13570TIP3    H262202   4.503   3.979   3.325  0.8020  0.1517 -0.7440
13571TIP3   OH262203   4.757   0.760   2.520  0.4965 -0.0271  0.2068
13571TIP3    H162204   4.796   0.686   2.472 -1.3540 -1.9590  1.4701
13571TIP3    H262205   4.787   0.748   2.610  0.4587  0.9957  0.3631
13572TIP3   OH262206   5.410   1.337  14.320 -0.4300 -0.4864 -0.0735
13572TIP3    H162207   5.500   1.307  14.314  0.0950  1.1137 -0.6342
13572TIP3    H262208   5.413   1.412  14.379 -1.9353 -2.2867  2.4917
13573TIP3   OH262209   5.071   3.461  12.269 -0.2268  0.2824 -0.0352
13573TIP3    H162210   4.985   3.481  12.307  0.5893  1.0438  1.5010
13573TIP3    H262211   5.055   3.383  12.216 -1.4041 -1.1359  2.1957
13574TIP3   OH262212   2.044   1.423  12.214  0.8708  0.0173  0.1554
13574TIP3    H162213   2.008   1.511  12.199  0.9691 -0.0164 -0.2865
13574TIP3    H262214   2.059   1.388  12.126  0.2053 -0.6999  0.3128
13575TIP3   OH262215   6.758   4.734  12.671  0.1242  0.5283  0.5891
13575TIP3    H162216   6.707   4.778  12.604  1.6688  1.6469  0.0805
13575TIP3    H262217   6.698   4.725  12.745 -1.3193  0.1273 -0.5832
13576TIP3   OH262218   4.730   1.552   3.337 -0.1866 -0.0169 -0.4628
13576TIP3    H162219   4.636   1.566   3.350  0.0825  0.1833  1.5743
13576TIP3    H262220   4.734   1.478   3.276 -1.6931 -1.1637  0.7408
13577TIP3   OH262221   6.140   5.159   4.531  0.4133  0.3800  0.2683
13577TIP3    H162222   6.186   5.135   4.611  1.7243 -1.1370 -0.8725
13577TIP3    H262223   6.194   5.228   4.492  1.0841 -0.5255 -0.4478
13578TIP3   OH262224   2.315   4.749  13.519 -0.4718  0.4976 -0.2572
13578TIP3    H162225   2.308   4.830  13.469 -1.0210  0.2185 -0.6425
13578TIP3    H262226   2.236   4.699  13.496  0.1470 -0.4039 -0.4954
13579TIP3   OH262227   1.887   0.021   2.258  0.0646  0.2470 -0.4148
13579TIP3    H162228   1.974   0.058   2.277  0.5488 -1.3832  0.7352
13579TIP3    H262229   1.893  -0.009   2.167  0.7900 -0.0655 -0.2720
13580TIP3   OH262230   1.042   6.150   3.164  0.0407  0.4553  0.0295
13580TIP3    H162231   1.020   6.239   3.189  2.4755  1.4195 -0.9190
13580TIP3    H262232   1.134   6.140   3.191 -0.0555 -1.6217 -0.2634
13581TIP3   OH262233   1.699   3.371   5.509 -0.9387 -0.0757  0.1001
13581TIP3    H162234   1.695   3.280   5.538  0.3760 -0.2606 -0.2012
13581TIP3    H262235   1.608   3.398   5.499 -1.4561 -0.3449  3.2839
13582TIP3   OH262236   6.044   3.888  12.202 -0.0294 -0.4757 -0.1386
13582TIP3    H162237   6.065   3.979  12.221  0.1276 -0.7656  1.1814
13582TIP3    H262238   5.988   3.892  12.124 -1.0609  0.8493  0.6353
13583TIP3   OH262239   2.602   3.570   2.970  0.2956 -0.0542  0.2106
13583TIP3    H162240   2.589   3.612   2.885 -0.3023  0.8895  0.7529
13583TIP3    H262241   2.697   3.567   2.981  0.4892 -2.0360 -1.3657
13584TIP3   OH262242   2.172   2.968   2.155 -0.2485 -0.4300 -0.3058
13584TIP3    H162243   2.119   3.046   2.142  0.6897  0.2065 -0.4097
13584TIP3    H262244   2.191   2.936   2.067  0.3621 -0.0851 -0.3015
13585TIP3   OH262245   1.513   1.514   0.028  0.0321 -0.0698  0.3989
13585TIP3    H162246   1.582   1.483   0.087  0.5499 -0.3167 -0.3260
13585TIP3    H262247   1.556   1.577  -0.029 -0.6424  0.7554  0.7739
13586TIP3   OH262248   2.031   3.731  15.945 -0.3115  0.1728 -0.0079
13586TIP3    H162249   2.022   3.788  16.021 -0.0249  0.0725  0.1037
13586TIP3    H262250   1.978   3.772  15.877 -2.2540 -0.8223  0.8396
13587TIP3   OH262251   4.602   1.133   0.616  0.3579  0.4934 -0.0190
13587TIP3    H162252   4.553   1.186   0.679  1.0321 -0.8277  1.6941
13587TIP3    H262253   4.690   1.169   0.617 -0.0940  1.7728 -1.8141
13588TIP3   OH262254   4.708   3.129  15.845  0.1744  0.6343 -0.7275
13588TIP3    H162255   4.673   3.075  15.774  1.3831 -0.4324 -0.5352
13588TIP3    H262256   4.754   3.067  15.902 -0.8041  1.4480  1.0348
13589TIP3   OH262257   3.343   4.599  14.934  0.5327 -0.0412 -0.0789
13589TIP3    H162258   3.266   4.631  14.886 -0.7897 -0.4345  1.6793
13589TIP3    H262259   3.377   4.677  14.978  0.9448  0.0534 -0.5445
13590TIP3   OH262260   6.450   3.788   5.762  0.4573 -0.2974 -0.4338
13590TIP3    H162261   6.440   3.701   5.724  0.8407  0.8392 -3.3710
13590TIP3    H262262   6.378   3.839   5.725  0.3520  0.7213  1.0792
13591TIP3   OH262263   1.759   5.913   5.341 -0.8612 -0.1657  0.0458
13591TIP3    H162264   1.695   5.975   5.377 -0.7887  0.9090 -1.5914
13591TIP3    H262265   1.709   5.833   5.328 -0.9443 -0.5293  2.2464
13592TIP3   OH262266   4.446   2.849   0.746  0.3732  0.7601 -0.7593
13592TIP3    H162267   4.410   2.793   0.814 -0.0489 -0.5552 -2.0107
13592TIP3    H262268   4.428   2.939   0.775  0.9195  0.2740  1.2096
13593TIP3   OH262269   3.467   6.660  12.103  0.3148  0.0093 -0.4645
13593TIP3    H162270   3.467   6.614  12.187 -0.7997 -0.7428 -0.8609
13593TIP3    H262271   3.511   6.599  12.043 -0.2620 -0.1095 -0.7666
13594TIP3   OH262272   6.323   1.834  10.683 -0.5695 -0.1796 -0.3020
13594TIP3    H162273   6.309   1.927  10.666 -0.0060  0.4075  2.0169
13594TIP3    H262274   6.411   1.830  10.720  0.1152 -1.9124 -1.9962
13595TIP3   OH262275   3.356   3.198  17.048 -0.0665 -0.1924  0.1939
13595TIP3    H162276   3.287   3.192  16.982  0.1689 -1.6553  0.0508
13595TIP3    H262277   3.332   3.133  17.114  0.5695  0.1005  0.7332
13596TIP3   OH262278   0.707   0.971   1.682  0.1498  0.1630  0.0659
13596TIP3    H162279   0.750   0.958   1.767  1.2350  0.5352 -0.4089
13596TIP3    H262280   0.757   0.916   1.621  0.6231  1.3857 -0.6934
13597TIP3   OH262281   4.037   6.325  11.328 -0.0122  0.6716 -0.2821
13597TIP3    H162282   4.063   6.349  11.416 -0.0453  1.4149 -0.4735
13597TIP3    H262283   4.072   6.393  11.272 -2.7280  2.0328 -0.5102
13598TIP3   OH262284   0.729   3.086  10.464  0.2281  0.2282 -0.4623
13598TIP3    H162285   0.732   3.141  10.385  0.7358  0.2806 -0.4060
13598TIP3    H262286   0.696   3.001  10.432  4.1094 -1.0822 -1.5350
13599TIP3   OH262287   0.581   0.921  15.887 -0.2241  0.2170  0.1176
13599TIP3    H162288   0.579   1.004  15.840 -1.5021 -0.4336 -1.0694
13599TIP3    H262289   0.673   0.894  15.885 -0.2877 -0.0511 -2.5810
13600TIP3   OH262290   5.496   1.331   2.236  0.5257 -0.0916 -0.1522
13600TIP3    H162291   5.475   1.265   2.170 -0.7977 -0.2033  0.3594
13600TIP3    H262292   5.479   1.415   2.194  1.5954 -0.0669 -0.5873
13601TIP3   OH262293   6.445   3.935   6.064  0.7747 -0.0430  0.1853
13601TIP3    H162294   6.489   3.915   6.147 -0.7606  0.1317  1.0739
13601TIP3    H262295   6.374   3.995   6.088  0.4225  0.1739 -1.2943
13602TIP3   OH262296   2.233   3.768  16.387  0.6202 -0.3148  0.2093
13602TIP3    H162297   2.272   3.855  16.393  1.5635 -0.6960 -0.2457
13602TIP3    H262298   2.268   3.721  16.462 -0.2552 -0.1750  0.7218
13603TIP3   OH262299   4.656   2.467   2.277  0.0403  0.3922 -0.0956
13603TIP3    H162300   4.722   2.449   2.344  2.1933  3.4626 -1.1845
13603TIP3    H262301   4.705   2.504   2.204 -2.6807  0.8076 -1.8661
13604TIP3   OH262302   1.078   0.356  13.914  0.0057 -1.0174 -0.1462
13604TIP3    H162303   0.989   0.389  13.909  0.4066  0.0094 -1.0249
13604TIP3    H262304   1.113   0.391  13.996  0.1508  0.0862 -0.6570
13605TIP3   OH262305   6.351   5.842   2.608 -0.1667 -0.2493 -0.1130
13605TIP3    H162306   6.261   5.870   2.595 -0.1182 -0.5282 -1.1742
13605TIP3    H262307   6.380   5.813   2.521  2.3290  3.8691 -0.9074
13606TIP3   OH262308   6.691   0.191   3.547  0.6308  0.2334  0.2321
13606TIP3    H162309   6.783   0.173   3.566  0.8630  0.4259 -0.6720
13606TIP3    H262310   6.690   0.215   3.455 -0.2065  1.0837  0.4515
13607TIP3   OH262311   0.711   2.280   1.282 -1.2069 -0.5965 -0.2318
13607TIP3    H162312   0.685   2.371   1.267  1.2942  0.3840  0.8834
13607TIP3    H262313   0.794   2.286   1.328 -0.2450 -3.4772 -1.3723
13608TIP3   OH262314   0.517   5.839   4.942  0.4999 -0.9472 -0.0291
13608TIP3    H162315   0.452   5.846   5.012  0.4312 -3.9780  0.3514
13608TIP3    H262316   0.477   5.885   4.868 -2.4794 -3.1658 -0.0178
13609TIP3   OH262317   4.792   1.712   2.278 -0.1875  0.8891 -0.0960
13609TIP3    H162318   4.716   1.659   2.253  1.4344 -1.5267 -0.2387
13609TIP3    H262319   4.797   1.703   2.373  0.2424  0.5832 -0.1482
13610TIP3   OH262320   1.622   2.818   1.503  0.6571  0.6466 -0.5887
13610TIP3    H162321   1.605   2.805   1.597  1.5338  0.5321 -0.4312
13610TIP3    H262322   1.557   2.881   1.475 -0.0088  0.2213 -0.0375
13611TIP3   OH262323   6.355   2.373   5.195 -0.0758 -0.1773 -0.0957
13611TIP3    H162324   6.351   2.281   5.223 -1.9570  0.4954  2.2205
13611TIP3    H262325   6.263   2.399   5.187  0.4054  1.7933  0.3732
13612TIP3   OH262326   4.496   3.944   4.415  0.2485  0.0975  0.0009
13612TIP3    H162327   4.477   3.974   4.326 -1.9270 -1.8413 -0.2930
13612TIP3    H262328   4.468   4.016   4.471  0.4090  0.8296 -0.8310
13613TIP3   OH262329   0.502   6.185   4.993  1.0538 -0.2998 -0.0251
13613TIP3    H162330   0.431   6.218   4.938  1.4036 -1.1950 -1.0370
13613TIP3    H262331   0.579   6.183   4.935  1.3743 -1.5056  0.4146
13614TIP3   OH262332   1.612   6.299   0.666  0.2819 -0.4349 -0.1561
13614TIP3    H162333   1.677   6.356   0.706 -0.2516 -0.1941  0.3875
13614TIP3    H262334   1.640   6.210   0.688 -0.9404 -0.2892  2.3316
13615TIP3   OH262335   2.584   1.210  17.283  0.2371  0.0038  0.0189
13615TIP3    H162336   2.674   1.178  17.284 -0.3480 -1.7800 -0.3083
13615TIP3    H262337   2.569   1.238  17.193  0.5822  0.6900  0.1717
13616TIP3   OH262338   2.229   5.661  11.367 -0.1148 -0.8786 -0.4181
13616TIP3    H162339   2.236   5.719  11.291 -2.9788 -1.3290 -1.1599
13616TIP3    H262340   2.206   5.720  11.439  0.8977 -0.6539 -0.2697
13617TIP3   OH262341   1.083   6.437  17.158  0.0291  0.0720 -0.0804
13617TIP3    H162342   1.120   6.428  17.246 -0.5407 -0.7883  0.0777
13617TIP3    H262343   0.990   6.455  17.172 -0.1539 -0.5160 -0.5088
13618TIP3   OH262344   5.195   2.516  12.588 -0.6156 -0.7220 -0.4769
13618TIP3    H162345   5.222   2.584  12.527 -1.4436  1.2255  1.1878
13618TIP3    H262346   5.104   2.497  12.564 -1.8015  1.8380  1.4927
13619TIP3   OH262347   1.288   3.529  16.888  0.7394  0.2790  0.6127
13619TIP3    H162348   1.293   3.530  16.984  2.2574  0.2096  0.5596
13619TIP3    H262349   1.379   3.540  16.860  0.6063 -1.8825 -0.8105
13620TIP3   OH262350   5.178   5.828  11.577  0.3432 -0.3028  0.3250
13620TIP3    H162351   5.089   5.793  11.571  0.8487 -1.4024 -1.2548
13620TIP3    H262352   5.177   5.903  11.517 -0.0677  1.0118  1.9049
13621TIP3   OH262353   2.962   3.155  16.250  0.3502  0.0837 -0.2717
13621TIP3    H162354   3.053   3.125  16.253 -0.1249 -1.3954  0.9144
13621TIP3    H262355   2.964   3.241  16.292  1.4672  0.9345 -1.9725
13622TIP3   OH262356   1.817   0.112   0.560  0.6217 -0.3956  0.0812
13622TIP3    H162357   1.872   0.103   0.638  1.4990 -0.9804 -0.5891
13622TIP3    H262358   1.813   0.206   0.544  1.0488 -0.3185  0.3999
13623TIP3   OH262359   5.072   0.369  10.315  0.0181 -0.4650 -0.5495
13623TIP3    H162360   5.009   0.419  10.263 -0.3285  1.4121  1.5425
13623TIP3    H262361   5.158   0.392  10.279 -0.2105  0.8765 -0.2663
13624TIP3   OH262362   6.462   2.531  13.167 -0.2146 -0.1825 -0.1900
13624TIP3    H162363   6.481   2.466  13.235  0.2711 -1.3376 -1.3790
13624TIP3    H262364   6.549   2.561  13.138 -0.2323 -1.8671 -2.2666
13625TIP3   OH262365   2.325   1.793  13.318 -0.4866 -0.0909 -0.3350
13625TIP3    H162366   2.331   1.849  13.240  0.2009 -0.6210 -0.6691
13625TIP3    H262367   2.395   1.824  13.375  1.1594 -1.8312 -1.3347
13626TIP3   OH262368   4.076   5.574  12.348  0.0936 -0.1889  0.1490
13626TIP3    H162369   3.987   5.596  12.321  0.5154  0.9890 -0.3515
13626TIP3    H262370   4.078   5.478  12.350 -1.5562 -0.2340  1.5212
13627TIP3   OH262371   5.491   5.311   4.478 -0.5201  0.2604  0.5505
13627TIP3    H162372   5.533   5.379   4.425  0.6721 -0.0220  1.1041
13627TIP3    H262373   5.450   5.254   4.414  0.4622  0.2164 -0.0706
13628TIP3   OH262374   0.146   6.213  12.160  0.4681  0.2488 -0.4080
13628TIP3    H162375   0.211   6.144  12.144  1.0312  1.2819 -3.2869
13628TIP3    H262376   0.069   6.167  12.193  0.7875 -1.8272 -2.3308
13629TIP3   OH262377   1.241   5.379   4.625  0.0873  0.1293  0.6946
13629TIP3    H162378   1.238   5.289   4.593 -1.0230 -0.4268  2.2676
13629TIP3    H262379   1.232   5.372   4.720  0.4046  1.8827  0.9048
13630TIP3   OH262380   0.813   0.654  13.189  0.1767 -0.5185  0.0283
13630TIP3    H162381   0.879   0.599  13.231 -1.1642 -0.3692  2.5315
13630TIP3    H262382   0.838   0.744  13.210 -1.8210 -0.5045  2.8687
13631TIP3   OH262383   1.576   2.188   2.537 -0.6185 -0.4916 -0.5336
13631TIP3    H162384   1.514   2.121   2.565 -2.5452  0.7399 -1.6009
13631TIP3    H262385   1.652   2.176   2.594 -2.1762 -1.5235  1.4701
13632TIP3   OH262386   6.820   4.489   0.757 -0.2235 -0.4914  0.5560
13632TIP3    H162387   6.781   4.432   0.691  1.4088 -1.4850  0.3882
13632TIP3    H262388   6.880   4.545   0.708 -1.5621  1.2120  0.7654
13633TIP3   OH262389   5.779   6.377   5.668 -0.2218 -0.3583 -0.0396
13633TIP3    H162390   5.802   6.333   5.586 -0.1938 -0.2262 -0.1029
13633TIP3    H262391   5.817   6.322   5.736  0.0796 -0.2683 -0.1324
13634TIP3   OH262392   4.172   0.419   3.666 -0.1020  0.1797  0.0890
13634TIP3    H162393   4.219   0.389   3.588 -0.1722  0.9794 -0.2673
13634TIP3    H262394   4.079   0.413   3.643 -0.1157  3.0021 -0.9290
13635TIP3   OH262395   6.821   6.611  17.137  0.4330 -0.1591 -0.5604
13635TIP3    H162396   6.741   6.559  17.136 -0.6944  1.4064  1.0711
13635TIP3    H262397   6.842   6.622  17.230  1.6858  0.6998 -0.9128
13636TIP3   OH262398   0.277   0.041   4.877 -0.2351  0.3405  0.0080
13636TIP3    H162399   0.345   0.022   4.812 -1.2720 -0.9870 -0.7413
13636TIP3    H262400   0.326   0.061   4.957  1.0656 -1.5473 -0.2397
13637TIP3   OH262401   5.799   1.899   5.563  0.4241  0.4319 -0.0129
13637TIP3    H162402   5.848   1.980   5.579 -0.6874  1.2198 -0.5223
13637TIP3    H262403   5.732   1.898   5.631  0.7267 -0.3235  0.2895
13638TIP3   OH262404   3.811   4.487  16.633  0.2983 -0.5558 -0.0011
13638TIP3    H162405   3.757   4.529  16.566  1.2311  0.1727 -0.3303
13638TIP3    H262406   3.894   4.468  16.588  0.8680 -0.2419  0.8926
13639TIP3   OH262407   3.560   0.179  17.225  0.3000 -0.2193 -0.4467
13639TIP3    H162408   3.650   0.150  17.211 -0.2069 -1.7024 -0.9131
13639TIP3    H262409   3.552   0.189  17.320  0.9409 -0.1340 -0.3998
13640TIP3   OH262410   0.634   3.009  14.840 -0.3359  0.4562 -0.5343
13640TIP3    H162411   0.635   3.100  14.868  0.0864 -0.3272  2.3636
13640TIP3    H262412   0.541   2.985  14.836 -0.4178  0.5757  0.4431
13641TIP3   OH262413   3.300   0.161   1.161  0.0447 -0.0140  0.2430
13641TIP3    H162414   3.289   0.182   1.069 -0.4276  0.3044  0.3688
13641TIP3    H262415   3.358   0.085   1.162 -1.1359 -0.9753 -0.4041
13642TIP3   OH262416   2.968   5.558  17.018 -0.0753 -0.4260 -0.6100
13642TIP3    H162417   2.936   5.564  16.927 -1.3950  0.2734 -0.1322
13642TIP3    H262418   2.891   5.535  17.069 -0.2822  2.8767  0.8207
13643TIP3   OH262419   4.129   5.266  12.289 -0.4567  0.2873  0.0674
13643TIP3    H162420   4.148   5.280  12.382 -0.4616 -0.8445  0.2494
13643TIP3    H262421   4.209   5.292  12.244  1.3288 -3.3946  0.7409
13644TIP3   OH262422   0.312   0.396  12.016  0.5871 -0.1557  0.1455
13644TIP3    H162423   0.403   0.419  11.997  0.5131  0.6871  0.7116
13644TIP3    H262424   0.296   0.436  12.102  0.3240 -2.0965  1.0629
13645TIP3   OH262425   0.232   2.162   1.571 -0.3071  0.7544  0.2377
13645TIP3    H162426   0.291   2.089   1.552  0.9687  1.6782  0.4893
13645TIP3    H262427   0.245   2.222   1.498 -0.4726  1.2605  0.6214
13646TIP3   OH262428   3.233   3.211   3.732 -0.5235 -0.1680 -0.3397
13646TIP3    H162429   3.326   3.228   3.721 -0.5810  0.7640  0.4708
13646TIP3    H262430   3.225   3.177   3.821 -0.8649 -1.0148 -0.6867
13647TIP3   OH262431   6.724   5.842   1.665  0.1701 -0.0896  0.4415
13647TIP3    H162432   6.676   5.858   1.584 -1.6058 -2.4739  0.9234
13647TIP3    H262433   6.812   5.876   1.648 -0.5271  0.6739 -1.9734
13648TIP3   OH262434   4.324   1.757  14.977 -0.4121 -0.1307  0.2157
13648TIP3    H162435   4.241   1.709  14.978  0.8193 -2.3845 -0.2953
13648TIP3    H262436   4.352   1.754  14.886 -0.1956  1.4665  0.2056
13649TIP3   OH262437   4.438   4.929  15.401 -0.0133 -0.5482 -0.0146
13649TIP3    H162438   4.389   4.971  15.331 -1.0209 -1.1732  0.2848
13649TIP3    H262439   4.396   4.843  15.411  1.1574 -1.1131  0.2554
13650TIP3   OH262440   6.457   3.372   1.719  0.0023  0.2760 -0.4031
13650TIP3    H162441   6.452   3.321   1.800  0.0255 -0.8731 -1.0992
13650TIP3    H262442   6.551   3.375   1.699  0.0732  1.1981 -0.0242
13651TIP3   OH262443   5.142   2.052   6.163  0.0536 -0.6695 -0.0040
13651TIP3    H162444   5.098   2.004   6.233 -0.7929 -0.3594 -0.2977
13651TIP3    H262445   5.133   2.144   6.188 -2.2886 -0.3718 -1.5661
13652TIP3   OH262446   0.305   5.668  14.440  0.3478 -0.1726  0.6504
13652TIP3    H162447   0.238   5.687  14.375  1.2990 -1.2649 -0.7032
13652TIP3    H262448   0.292   5.734  14.508 -3.2882 -1.4800  1.4185
13653TIP3   OH262449   0.353   2.527  10.405  0.9684 -0.1233 -0.1607
13653TIP3    H162450   0.378   2.590  10.337  0.1093 -1.6068 -1.9330
13653TIP3    H262451   0.262   2.549  10.425  0.1950 -1.6015 -1.8174
13654TIP3   OH262452   4.751   1.569  13.889  0.6138  0.0218  0.2038
13654TIP3    H162453   4.686   1.629  13.926  0.0701 -0.8645  0.7209
13654TIP3    H262454   4.715   1.545  13.803  0.6017  0.0658  0.1966
13655TIP3   OH262455   5.920   5.384  15.739 -0.5792 -0.4013 -0.0879
13655TIP3    H162456   5.886   5.396  15.651 -3.6868 -0.3476  1.0105
13655TIP3    H262457   5.939   5.291  15.745 -0.3417 -0.4038 -0.7981
13656TIP3   OH262458   5.509   6.785  11.936 -0.4305 -0.3681  0.6446
13656TIP3    H162459   5.457   6.705  11.947  0.9186 -1.3300  0.3374
13656TIP3    H262460   5.599   6.753  11.926  0.1089  1.1931  0.3196
13657TIP3   OH262461   3.767   4.941   1.771  0.1624  0.0142 -0.1660
13657TIP3    H162462   3.851   4.945   1.818 -0.2131  0.6503  0.4653
13657TIP3    H262463   3.743   4.848   1.773  0.8690 -0.1806 -0.3907
13658TIP3   OH262464   6.439   3.228   0.032 -0.4154 -0.1279 -0.2184
13658TIP3    H162465   6.400   3.310   0.062 -1.4538 -0.2961 -1.0415
13658TIP3    H262466   6.397   3.161   0.085  0.7971 -0.1157  0.8023
13659TIP3   OH262467   5.738   1.499   2.014  0.2213 -0.6624 -0.2856
13659TIP3    H162468   5.767   1.484   2.104 -0.1470 -2.8639 -0.4862
13659TIP3    H262469   5.650   1.534   2.022  0.9444  1.1926  0.2040
13660TIP3   OH262470   2.181   5.784  12.520 -0.3241  0.4663 -0.4210
13660TIP3    H162471   2.253   5.759  12.577 -2.3027 -0.5371  1.7666
13660TIP3    H262472   2.221   5.845  12.457  2.4829 -0.4078  0.3752
13661TIP3   OH262473   6.678   0.501  13.068 -0.0108 -0.0160  0.0179
13661TIP3    H162474   6.696   0.419  13.021  1.1018 -0.0362  0.4451
13661TIP3    H262475   6.618   0.475  13.138  0.8471 -0.6025  0.5508
13662TIP3   OH262476   6.181   5.820  16.488  0.1135  0.0544  0.5497
13662TIP3    H162477   6.164   5.727  16.501 -0.2480  0.3431  2.4139
13662TIP3    H262478   6.174   5.833  16.393 -2.7114 -1.2766  0.4757
13663TIP3   OH262479   6.718   1.267  14.500  0.5438 -0.2320 -0.2513
13663TIP3    H162480   6.806   1.304  14.504  1.1307 -1.5771 -0.1334
13663TIP3    H262481   6.704   1.229  14.587 -0.3146  0.2876 -0.1442
13664TIP3   OH262482   5.797   0.314  14.329  0.1279 -0.5862  0.1469
13664TIP3    H162483   5.808   0.306  14.424 -0.1886 -1.2311  0.1344
13664TIP3    H262484   5.886   0.303  14.294  0.7353  2.4092  0.5000
13665TIP3   OH262485   0.916   4.715  11.883 -0.7747  0.7024  0.8704
13665TIP3    H162486   0.851   4.662  11.838 -0.6544  0.5040  0.9318
13665TIP3    H262487   0.925   4.674  11.969  0.5127 -0.1444  0.3521
13666TIP3   OH262488   5.346   1.355  16.931  0.7704  0.0483  0.0781
13666TIP3    H162489   5.310   1.363  16.843  0.8242  0.1604  0.0651
13666TIP3    H262490   5.407   1.281  16.925  0.3485 -0.3084  0.1656
13667TIP3   OH262491   5.327   1.322  11.937 -0.1615  0.3178 -0.0705
13667TIP3    H162492   5.403   1.306  11.993  1.0305  2.8070 -0.8289
13667TIP3    H262493   5.340   1.265  11.862 -1.0718 -2.0463  1.4478
13668TIP3   OH262494   6.283   5.474   0.184  0.1230  0.0084  0.3621
13668TIP3    H162495   6.225   5.548   0.167 -0.3245  0.0644  1.9217
13668TIP3    H262496   6.225   5.398   0.189  0.5282 -0.3897 -0.8104
13669TIP3   OH262497   1.660   4.270   4.217 -0.2159  0.3132  0.3116
13669TIP3    H162498   1.627   4.359   4.231 -0.5752  0.3512 -0.7172
13669TIP3    H262499   1.608   4.215   4.276 -1.3332  0.5361 -0.4320
13670TIP3   OH262500   0.139   2.895   0.963  0.6536  0.0976  0.1264
13670TIP3    H162501   0.219   2.942   0.986  1.4760 -0.4217 -1.5121
13670TIP3    H262502   0.139   2.893   0.867 -1.4329  0.2346  0.0703
13671TIP3   OH262503   5.998   4.084   4.212 -0.2138 -0.8624  0.4006
13671TIP3    H162504   5.912   4.049   4.186 -0.0675  0.1011 -1.5918
13671TIP3    H262505   5.979   4.172   4.245 -0.0391 -0.7711  0.2624
13672TIP3   OH262506   3.377   5.695  13.995 -0.5058  0.5678 -0.8268
13672TIP3    H162507   3.394   5.716  13.903  0.0642 -1.2963 -1.1939
13672TIP3    H262508   3.312   5.625  13.991 -2.0473  1.8638  0.3029
13673TIP3   OH262509   5.333   6.543  17.154 -0.3440 -0.4532  0.0508
13673TIP3    H162510   5.371   6.567  17.238 -1.0651 -1.7881  0.7854
13673TIP3    H262511   5.384   6.468  17.125  0.1772  0.2530 -0.9410
13674TIP3   OH262512   2.253   1.597   2.561  0.4058  0.0211  0.5020
13674TIP3    H162513   2.277   1.504   2.567  0.2397  0.0241  1.2662
13674TIP3    H262514   2.183   1.608   2.625 -1.7757 -0.0048 -1.7537
13675TIP3   OH262515   0.049   1.068   3.919  0.0731 -0.2497 -0.2645
13675TIP3    H162516  -0.009   1.083   3.845  0.4713  0.3284 -0.4675
13675TIP3    H262517   0.122   1.018   3.883  0.5740  0.5688 -0.4107
13676TIP3   OH262518   6.753   2.789   5.954  0.4821  0.6010  0.1424
13676TIP3    H162519   6.717   2.872   5.922 -2.8179 -0.3549  0.9491
13676TIP3    H262520   6.753   2.798   6.049 -0.4461 -0.4580  0.2653
13677TIP3   OH262521   1.023   1.256   1.380 -0.1365  0.1169 -0.0759
13677TIP3    H162522   1.100   1.234   1.433 -0.3559  0.1209  0.2483
13677TIP3    H262523   1.045   1.225   1.292  0.2547  0.1606  0.0041
13678TIP3   OH262524   5.899   1.870   2.359 -0.1054 -0.0906  0.5075
13678TIP3    H162525   5.822   1.923   2.382  1.6391  2.9279 -0.0851
13678TIP3    H262526   5.885   1.848   2.267 -0.2973  0.3875  0.4176
13679TIP3   OH262527   3.864   0.045  12.796  0.0304 -0.8093  0.3930
13679TIP3    H162528   3.959   0.040  12.797  0.3959  3.0384  0.6773
13679TIP3    H262529   3.842   0.104  12.869 -2.4856 -0.8424 -0.2446
13680TIP3   OH262530   4.947   6.435   1.702 -0.2706 -0.1037  0.8285
13680TIP3    H162531   5.034   6.440   1.740 -0.0277 -0.6652  0.3508
13680TIP3    H262532   4.945   6.352   1.654 -0.8314  0.2158  0.2676
13681TIP3   OH262533   0.953   4.308  11.545 -0.2669 -0.1004 -0.0611
13681TIP3    H162534   0.913   4.380  11.593  0.8942  0.0565  0.7016
13681TIP3    H262535   0.900   4.299  11.466 -0.5175  1.4892 -0.0950
13682TIP3   OH262536   2.466   5.473   0.963 -0.3678  0.4749 -0.3548
13682TIP3    H162537   2.512   5.449   0.883 -0.6641 -0.6887 -0.2032
13682TIP3    H262538   2.449   5.389   1.006 -1.8327  0.9510  0.0292
13683TIP3   OH262539   6.347   2.835  13.806 -0.0518  0.1499 -0.1681
13683TIP3    H162540   6.343   2.929  13.824  2.4787  0.2359  0.3811
13683TIP3    H262541   6.438   2.820  13.780  0.2954 -2.5461  2.1551
13684TIP3   OH262542   3.490   4.839  16.150 -0.0438  0.4620 -0.3590
13684TIP3    H162543   3.484   4.929  16.115 -1.6025  0.2167 -0.7739
13684TIP3    H262544   3.523   4.850  16.239 -2.4883  1.6795  0.4653
13685TIP3   OH262545   0.593   3.624  12.113 -0.0678 -0.3673  0.1347
13685TIP3    H162546   0.556   3.570  12.043  2.4039 -0.2533 -1.4081
13685TIP3    H262547   0.614   3.562  12.183 -0.0899 -0.9364 -0.3515
13686TIP3   OH262548   3.884   4.446  12.558 -0.2714 -0.2724 -0.1586
13686TIP3    H162549   3.857   4.366  12.603  0.9108 -0.8744 -0.4956
13686TIP3    H262550   3.866   4.428  12.466 -0.8091  0.1869 -0.1459
13687TIP3   OH262551   3.809   2.572   0.189 -0.2351  0.3807 -0.1253
13687TIP3    H162552   3.898   2.579   0.222 -0.4915  2.4569  0.2472
13687TIP3    H262553   3.770   2.500   0.238  1.0583 -0.2085  0.0722
13688TIP3   OH262554   3.891   4.358   6.331 -0.4647 -0.1532  0.1898
13688TIP3    H162555   3.889   4.446   6.370  1.0977 -0.1230  0.2800
13688TIP3    H262556   3.966   4.316   6.373 -0.6219 -1.2004 -0.5531
13689TIP3   OH262557   0.803   6.049   4.569  0.7152  0.0171  0.3874
13689TIP3    H162558   0.748   5.995   4.512  0.6068 -1.7011  2.0253
13689TIP3    H262559   0.885   5.999   4.576  1.5097  1.2368  0.1199
13690TIP3   OH262560   5.148   4.286  10.638 -1.0799 -0.1301  0.2969
13690TIP3    H162561   5.109   4.361  10.683 -1.8040 -1.0904  1.3388
13690TIP3    H262562   5.084   4.215  10.651  0.2261 -1.3005  0.5515
13691TIP3   OH262563   1.825   5.151   3.044  0.3753 -0.4711  1.0557
13691TIP3    H162564   1.763   5.082   3.067  1.3138 -1.7274 -0.0698
13691TIP3    H262565   1.800   5.177   2.955 -0.3572  1.1201  1.6811
13692TIP3   OH262566   0.407   2.628  13.766  0.0403 -0.1609  0.7825
13692TIP3    H162567   0.497   2.600  13.780 -0.0244 -0.8698 -0.1268
13692TIP3    H262568   0.375   2.572  13.696 -1.5610 -0.8855  2.0082
13693TIP3   OH262569   2.269   6.681  15.506  0.2532 -0.1333  0.7192
13693TIP3    H162570   2.278   6.764  15.459 -0.1863  0.0293  0.9157
13693TIP3    H262571   2.357   6.661  15.539 -0.0771  1.5317  2.8181
13694TIP3   OH262572   1.463   0.772  16.814 -0.5282 -0.6359 -0.3665
13694TIP3    H162573   1.368   0.775  16.799 -1.1602 -4.4323  1.5938
13694TIP3    H262574   1.487   0.681  16.797  2.9928  0.3340 -1.4477
13695TIP3   OH262575   6.048   1.263  13.131  0.2202 -0.1805 -0.3748
13695TIP3    H162576   6.119   1.214  13.090  1.1613 -0.8944  1.9498
13695TIP3    H262577   6.090   1.340  13.168 -0.9460  1.5218 -2.3644
13696TIP3   OH262578   1.565   5.982   2.879 -0.5321 -0.1173 -0.4280
13696TIP3    H162579   1.574   5.949   2.968 -0.1108  0.3257 -0.3040
13696TIP3    H262580   1.613   5.920   2.825 -2.6169 -1.6370 -0.6471
13697TIP3   OH262581   5.872   0.730  13.134 -0.5002  0.6329  0.4393
13697TIP3    H162582   5.863   0.714  13.040  1.8017  2.9344 -0.2813
13697TIP3    H262583   5.950   0.680  13.159 -0.6465  0.6631  0.9591
13698TIP3   OH262584   0.680   4.553  13.661 -0.1045  0.3846 -0.1524
13698TIP3    H162585   0.673   4.596  13.575  1.1506 -2.0173 -1.5599
13698TIP3    H262586   0.756   4.593  13.702  1.6763 -1.0609 -1.8788
13699TIP3   OH262587   1.345   1.314  14.563  0.2160  0.3018 -0.0535
13699TIP3    H162588   1.281   1.242  14.566  1.2874 -0.7030 -0.5247
13699TIP3    H262589   1.301   1.383  14.514 -2.3701  1.6149  3.6368
13700TIP3   OH262590   1.181   4.616   5.729 -0.6698 -0.7630  0.4109
13700TIP3    H162591   1.273   4.604   5.708 -0.5342  1.6154 -0.6830
13700TIP3    H262592   1.142   4.528   5.721  1.3789 -1.7277  0.5145
13701TIP3   OH262593   0.209   3.322   1.401 -0.4059  0.4875  0.4204
13701TIP3    H162594   0.261   3.302   1.323  3.0687  1.4318  2.2916
13701TIP3    H262595   0.172   3.237   1.427  0.3852 -0.3009 -0.9061
13702TIP3   OH262596   6.099   5.721   3.103  0.3949 -0.5368 -0.2607
13702TIP3    H162597   6.077   5.717   3.196 -0.6439 -1.5026 -0.5223
13702TIP3    H262598   6.168   5.786   3.097  0.1808 -0.1579  1.1342
13703TIP3   OH262599   4.025   1.565   4.417  0.1031  0.0726 -0.4497
13703TIP3    H162600   4.042   1.472   4.425 -0.1489  0.0524 -0.1000
13703TIP3    H262601   3.964   1.584   4.489  0.1496  0.5018 -0.5224
13704TIP3   OH262602   2.629   1.832   4.126  0.0129 -0.0457 -0.1680
13704TIP3    H162603   2.558   1.770   4.109 -0.3563  0.3491 -0.1010
13704TIP3    H262604   2.697   1.780   4.169 -0.1253 -0.4840 -0.4700
13705TIP3   OH262605   5.947   5.739  10.840  0.6928 -0.3624  0.3427
13705TIP3    H162606   5.909   5.825  10.825  2.1233  0.1236 -0.6206
13705TIP3    H262607   6.041   5.754  10.845  1.2322 -2.1642 -2.3924
13706TIP3   OH262608   5.546   1.560   6.421  0.4575 -0.0591  0.5120
13706TIP3    H162609   5.540   1.655   6.414 -0.4093  0.0333  2.1377
13706TIP3    H262610   5.475   1.535   6.479 -1.0290 -2.0280 -1.9513
13707TIP3   OH262611   1.097   2.314   0.804 -0.2383  0.0442  0.0544
13707TIP3    H162612   1.078   2.297   0.712 -0.6107 -1.4665  0.3848
13707TIP3    H262613   1.191   2.329   0.807 -0.0256 -1.0651 -0.4329
13708TIP3   OH262614   3.335   5.502  16.053 -0.1157  0.1475 -0.3604
13708TIP3    H162615   3.262   5.456  16.095 -0.8003  0.5848 -1.0247
13708TIP3    H262616   3.305   5.517  15.964  0.5305  0.9056 -0.4646
13709TIP3   OH262617   2.591   6.729  15.858 -0.4771 -0.0365 -0.3932
13709TIP3    H162618   2.662   6.774  15.812  0.1256 -0.1748  0.3893
13709TIP3    H262619   2.612   6.740  15.951 -0.2036 -2.0839 -0.1744
13710TIP3   OH262620   1.772   6.223  15.177 -0.4671  0.0192 -0.3708
13710TIP3    H162621   1.689   6.269  15.175 -0.3068  0.2932 -1.4069
13710TIP3    H262622   1.837   6.289  15.154 -0.0315 -0.3229 -0.1465
13711TIP3   OH262623   4.520   0.145  16.561 -0.8021  0.1945 -0.4631
13711TIP3    H162624   4.459   0.216  16.581 -0.8896  0.2756 -1.0264
13711TIP3    H262625   4.546   0.111  16.647  0.0935  1.6162 -0.1304
13712TIP3   OH262626   2.389   0.297  13.390  0.2544  0.3052 -0.1589
13712TIP3    H162627   2.379   0.352  13.467  1.8792  1.3691 -0.6616
13712TIP3    H262628   2.477   0.259  13.399 -0.5427 -1.6518 -0.1953
13713TIP3   OH262629   2.844   5.782  10.584  0.1928  0.2985 -0.2117
13713TIP3    H162630   2.926   5.787  10.536  0.3644 -0.6749 -0.0482
13713TIP3    H262631   2.865   5.732  10.663 -0.0358  2.0570  1.0116
13714TIP3   OH262632   6.732   5.448  12.122 -0.3529 -0.7015  0.3282
13714TIP3    H162633   6.800   5.463  12.188 -0.6079  2.9673 -0.0218
13714TIP3    H262634   6.767   5.376  12.069  2.0449 -0.6705  1.6755
13715TIP3   OH262635   5.597   2.496  14.100 -0.2106  0.0499  0.1344
13715TIP3    H162636   5.515   2.544  14.109 -0.6266 -0.6185 -0.0214
13715TIP3    H262637   5.656   2.537  14.163 -1.0179 -0.1863  1.0704
13716TIP3   OH262638   5.954   4.905   4.501 -0.4906  0.1190  0.1953
13716TIP3    H162639   5.942   4.822   4.455 -0.1870  1.1454 -1.8709
13716TIP3    H262640   6.007   4.882   4.578 -0.7020 -1.6392 -0.1362
13717TIP3   OH262641   3.756   1.823   4.662 -0.4764  0.1079  0.5499
13717TIP3    H162642   3.706   1.769   4.600  1.5385  0.5667 -1.6240
13717TIP3    H262643   3.726   1.912   4.646 -1.7889 -0.0105  2.1399
13718TIP3   OH262644   1.626   1.846   0.637 -0.0676 -0.0555  0.5546
13718TIP3    H162645   1.701   1.842   0.578 -0.3106 -0.0804  0.2469
13718TIP3    H262646   1.607   1.940   0.646 -0.4696 -0.0835  0.0330
13719TIP3   OH262647   3.139   5.480  13.891 -0.3307  0.2604  0.2059
13719TIP3    H162648   3.124   5.505  13.799  0.8687  0.0111 -0.0802
13719TIP3    H262649   3.066   5.519  13.938 -0.1341  1.7799 -0.6443
13720TIP3   OH262650   4.087   4.871   4.112  0.0802  0.5826  0.2232
13720TIP3    H162651   4.090   4.835   4.201 -1.4607  1.7250  0.7780
13720TIP3    H262652   4.145   4.948   4.115 -1.3137  1.6486  0.7714
13721TIP3   OH262653   0.618   0.033   3.830 -0.5372 -0.6635  0.6300
13721TIP3    H162654   0.685   0.076   3.882  1.3548  0.0580 -2.1553
13721TIP3    H262655   0.659  -0.048   3.799  1.1166  1.7145 -4.6486
13722TIP3   OH262656   0.885   3.217   4.920  0.1233  0.5004 -0.3747
13722TIP3    H162657   0.936   3.148   4.962 -0.6368 -0.4700 -0.9955
13722TIP3    H262658   0.799   3.213   4.962 -1.4901 -2.1334 -3.4482
13723TIP3   OH262659   0.039   0.481   4.458  0.2874 -0.0418  0.1410
13723TIP3    H162660   0.088   0.400   4.455 -1.0409 -0.9278  1.0699
13723TIP3    H262661  -0.036   0.466   4.400 -1.5064 -0.6258  2.4688
13724TIP3   OH262662   1.948   4.621  13.108  0.2444 -0.4744 -0.3037
13724TIP3    H162663   1.918   4.536  13.077  0.9648 -0.6339 -0.5752
13724TIP3    H262664   2.037   4.606  13.138  0.7368  0.3902 -1.2850
13725TIP3   OH262665   3.306   6.464  14.424 -0.3545  0.2263  0.0830
13725TIP3    H162666   3.395   6.436  14.442 -0.3267  1.7283  2.6900
13725TIP3    H262667   3.261   6.384  14.397  1.3336 -0.8993  0.4163
13726TIP3   OH262668   2.278   5.124  12.527 -0.0818 -0.1330  0.1592
13726TIP3    H162669   2.285   5.207  12.480 -0.6755 -0.7989 -1.1521
13726TIP3    H262670   2.249   5.061  12.461 -1.5966 -0.9694  1.5457
13727TIP3   OH262671   6.166   1.544  15.697 -0.2685  0.3348 -0.2565
13727TIP3    H162672   6.091   1.575  15.645 -0.1600  0.3528 -0.4027
13727TIP3    H262673   6.204   1.474  15.644 -0.9201 -0.5199  0.3813
13728TIP3   OH262674   3.920   6.328  15.861  0.2803 -0.2391 -0.1362
13728TIP3    H162675   3.963   6.257  15.815  0.1823 -0.9928  0.8907
13728TIP3    H262676   3.938   6.311  15.954 -1.5912 -0.1926  0.2863
13729TIP3   OH262677   0.832   5.230  15.071 -0.5087  0.6130 -0.1298
13729TIP3    H162678   0.766   5.295  15.094 -1.9552 -0.6670 -0.4810
13729TIP3    H262679   0.889   5.274  15.008 -1.2456  1.6461 -0.0868
13730TIP3   OH262680   2.427   2.089   0.658 -0.8380 -0.2148  0.5058
13730TIP3    H162681   2.388   2.132   0.734 -2.3931 -2.4592  1.0740
13730TIP3    H262682   2.470   2.012   0.694  2.8857  1.2491 -0.3289
13731TIP3   OH262683   6.171   2.139  13.556  0.0699 -0.4318 -0.2547
13731TIP3    H162684   6.169   2.170  13.646  0.0946 -0.2707 -0.3088
13731TIP3    H262685   6.100   2.076  13.550 -1.5819  1.4032 -0.7992
13732TIP3   OH262686   0.972   6.024  16.478  0.1741 -0.0848  0.1466
13732TIP3    H162687   0.942   5.934  16.491  0.8969 -0.4129 -0.3984
13732TIP3    H262688   0.908   6.062  16.418 -2.3113  0.9701  3.1416
13733TIP3   OH262689   5.021   1.490  15.909  0.2174 -0.1833 -0.0041
13733TIP3    H162690   5.016   1.536  15.993 -2.6029  1.4441 -0.9457
13733TIP3    H262691   4.959   1.418  15.918 -1.1653  0.8233 -1.0818
13734TIP3   OH262692   1.942   6.604   3.028  0.6188  0.0882 -0.1807
13734TIP3    H162693   2.016   6.549   3.053  0.7918  0.9589  1.3215
13734TIP3    H262694   1.884   6.544   2.980  0.4677 -1.6619  1.9906
13735TIP3   OH262695   1.721   3.190  11.836  0.4415 -0.2979  0.5612
13735TIP3    H162696   1.751   3.263  11.890 -2.0891  1.0410  0.3245
13735TIP3    H262697   1.761   3.205  11.751 -1.3894  1.9636 -0.0199
13736TIP3   OH262698   4.258   3.947   1.090  0.6063  0.2417  0.3654
13736TIP3    H162699   4.212   3.957   1.173 -0.9990  2.1640 -0.6548
13736TIP3    H262700   4.273   4.037   1.060  1.1777 -0.3914 -1.3964
13737TIP3   OH262701   2.554   1.842   3.548 -0.0824  0.2301 -0.2318
13737TIP3    H162702   2.483   1.812   3.604  1.1779 -0.9259  0.7981
13737TIP3    H262703   2.634   1.818   3.594  1.0050  0.6154 -1.8187
13738TIP3   OH262704   4.173   2.922  16.147  0.6373  0.2968  0.1476
13738TIP3    H162705   4.118   2.976  16.089  1.7900  0.0346 -1.2596
13738TIP3    H262706   4.111   2.861  16.188 -0.1005 -0.4476 -1.9083
13739TIP3   OH262707   3.938   5.198  12.665 -0.4841  0.2117  0.3509
13739TIP3    H162708   3.886   5.257  12.719 -0.7358 -1.5180  2.1108
13739TIP3    H262709   3.875   5.135  12.630 -0.1634  0.6891 -1.1594
13740TIP3   OH262710   5.887   3.118   3.754  0.2697  0.0738 -0.1906
13740TIP3    H162711   5.848   3.068   3.682  0.0667 -1.4852  0.9637
13740TIP3    H262712   5.979   3.127   3.728 -0.0838  0.7506 -1.2818
13741TIP3   OH262713   4.566   0.728  11.186  0.1705  0.2138  0.0518
13741TIP3    H162714   4.644   0.777  11.215 -0.0693  0.2705  0.6218
13741TIP3    H262715   4.498   0.753  11.249 -0.0292 -0.6432  0.1849
13742TIP3   OH262716   2.301   0.111  17.259 -0.3938  0.0645  0.0849
13742TIP3    H162717   2.366   0.177  17.282  1.7241 -1.3098 -1.4835
13742TIP3    H262718   2.347   0.028  17.270 -1.2508 -0.9037 -2.6994
13743TIP3   OH262719   1.656   2.854  11.381  0.3050  0.3060  0.2523
13743TIP3    H162720   1.629   2.762  11.386  0.3079  0.3151  0.4517
13743TIP3    H262721   1.575   2.904  11.393  0.2483  0.3302 -0.2057
13744TIP3   OH262722   6.161   0.308   5.683 -0.1408 -0.2236 -0.0143
13744TIP3    H162723   6.151   0.325   5.777 -1.9058  0.1168 -0.2242
13744TIP3    H262724   6.148   0.214   5.674 -0.7364 -0.1427 -0.0024
13745TIP3   OH262725   5.948   0.460  13.065 -0.3195 -0.0538  0.0447
13745TIP3    H162726   5.978   0.369  13.076  0.1560  0.2535  1.5716
13745TIP3    H262727   5.881   0.455  12.997  0.7950 -1.3025 -1.0068
13746TIP3   OH262728   6.586   6.709   1.542  0.0325  0.4325  0.1242
13746TIP3    H162729   6.540   6.652   1.481  0.3344  0.5477 -0.2132
13746TIP3    H262730   6.675   6.673   1.545  0.1222  0.6575  0.2010
13747TIP3   OH262731   0.566   2.797   5.308 -0.1233  0.7125 -0.3477
13747TIP3    H162732   0.626   2.858   5.352  0.4069 -0.6526  0.8810
13747TIP3    H262733   0.479   2.825   5.337  0.1799  0.2282  1.1245
13748TIP3   OH262734   3.472   3.102   4.677  0.0283  0.1457 -0.1235
13748TIP3    H162735   3.548   3.160   4.686 -1.8842  2.9143 -0.2960
13748TIP3    H262736   3.428   3.107   4.762 -0.6431 -0.3545 -0.4341
13749TIP3   OH262737   5.680   4.583   6.203 -0.0603 -0.2316  0.2504
13749TIP3    H162738   5.627   4.523   6.256 -0.1540 -0.1177  0.2859
13749TIP3    H262739   5.765   4.586   6.247 -0.0933 -0.2449  0.3150
13750TIP3   OH262740   0.547   1.340  16.672  0.0205 -0.6580 -0.5068
13750TIP3    H162741   0.497   1.344  16.753 -0.8491  2.2683 -1.0752
13750TIP3    H262742   0.482   1.349  16.602  0.9723 -0.5380 -1.4196
13751TIP3   OH262743   4.675   4.329   2.661 -0.3261  0.4205 -0.1524
13751TIP3    H162744   4.604   4.365   2.714  0.3536 -0.0302  1.1053
13751TIP3    H262745   4.711   4.258   2.714  2.3162  1.8511  0.1680
13752TIP3   OH262746   2.689   3.254   5.567 -0.1431  0.0325 -0.2622
13752TIP3    H162747   2.754   3.200   5.521  1.3391 -0.1046  1.8615
13752TIP3    H262748   2.656   3.314   5.500  1.1827 -0.7903 -1.7203
13753TIP3   OH262749   5.773   1.251   2.235 -0.2782 -0.1625 -0.3239
13753TIP3    H162750   5.718   1.184   2.194 -1.6028  0.4237  0.4308
13753TIP3    H262751   5.711   1.319   2.262  0.6719 -0.0440  1.6737
13754TIP3   OH262752   5.998   6.801  14.212 -0.3763  0.1571  0.5385
13754TIP3    H162753   5.953   6.777  14.131 -0.7891  0.3830  0.6993
13754TIP3    H262754   6.074   6.851  14.183 -0.7406  0.5885  0.3009
13755TIP3   OH262755   5.810   2.848  12.720  0.1787 -0.1952 -0.3760
13755TIP3    H162756   5.868   2.883  12.787 -1.8660 -1.2331  2.1594
13755TIP3    H262757   5.844   2.761  12.701  1.4860  0.5650 -1.7361
13756TIP3   OH262758   1.326   3.846  12.851 -0.2382  0.2936 -0.0008
13756TIP3    H162759   1.263   3.784  12.889  0.5765 -1.2750 -1.1222
13756TIP3    H262760   1.398   3.792  12.821  0.7456  1.8585 -0.5840
13757TIP3   OH262761   0.212   3.345   2.376  0.3238  0.0963 -0.4025
13757TIP3    H162762   0.168   3.414   2.424  1.1409  0.3130  0.0606
13757TIP3    H262763   0.164   3.265   2.398  0.8524  0.1422  1.0348
13758TIP3   OH262764   5.953   3.451   1.246  0.4939  0.0087  0.0950
13758TIP3    H162765   5.936   3.424   1.336  0.9776 -0.5696  0.0231
13758TIP3    H262766   5.940   3.371   1.195 -0.3555  0.4637 -0.4273
13759TIP3   OH262767   6.649   3.034   5.970  0.3922 -0.3421  0.2297
13759TIP3    H162768   6.577   3.079   5.926 -1.2731 -0.8623  2.2909
13759TIP3    H262769   6.677   3.094   6.039  0.8393 -0.8346  0.4907
13760TIP3   OH262770   3.140   3.180  12.715 -0.6462 -0.2096  0.0432
13760TIP3    H162771   3.140   3.184  12.810 -0.5282 -0.9576  0.0797
13760TIP3    H262772   3.229   3.204  12.689 -0.3047 -1.2646  0.1906
13761TIP3   OH262773   4.170   6.569  14.056  0.1992 -0.5311 -0.7331
13761TIP3    H162774   4.225   6.528  14.123  1.4679  0.6447 -0.9921
13761TIP3    H262775   4.082   6.537  14.074  0.2570  0.6403  2.2683
13762TIP3   OH262776   1.516   2.797   3.259 -0.1894 -0.0164 -0.2240
13762TIP3    H162777   1.567   2.874   3.285 -0.0039 -0.1459 -0.2002
13762TIP3    H262778   1.556   2.769   3.177  0.5581 -0.8302  0.3939
13763TIP3   OH262779   0.456   2.841   1.409 -0.6816  0.5963 -0.0137
13763TIP3    H162780   0.408   2.899   1.469  0.3286  2.3782 -0.8441
13763TIP3    H262781   0.460   2.890   1.327 -1.8895 -1.7288 -1.5372
13764TIP3   OH262782   3.125   3.327   4.821  0.0986 -0.1426  0.0148
13764TIP3    H162783   3.051   3.361   4.871 -0.2463 -1.9934  0.8488
13764TIP3    H262784   3.174   3.273   4.883  1.2551 -0.2633 -0.9482
13765TIP3   OH262785   5.054   4.916  11.355 -0.0461  0.5199  0.9641
13765TIP3    H162786   5.003   4.866  11.291  0.5668  1.3572 -0.2252
13765TIP3    H262787   5.049   4.864  11.435  0.6779 -1.5434 -0.2349
13766TIP3   OH262788   3.940   1.645  16.606  0.0747 -0.3207 -0.3001
13766TIP3    H162789   4.007   1.714  16.609  0.5412 -0.6943 -1.3670
13766TIP3    H262790   3.924   1.623  16.697  1.0198  0.1557 -0.0059
13767TIP3   OH262791   2.117   1.525  11.940 -0.4146  0.3045 -0.0153
13767TIP3    H162792   2.171   1.463  11.989  0.6596  0.2093 -1.2472
13767TIP3    H262793   2.169   1.606  11.939 -1.2458  0.8562  0.5326
13768TIP3   OH262794   1.884   3.095   5.080  0.6632 -0.3073  0.6047
13768TIP3    H162795   1.844   3.155   5.017  2.6703 -1.3344 -1.8236
13768TIP3    H262796   1.916   3.151   5.150 -1.6174  0.8861  0.7758
13769TIP3   OH262797   5.183   3.156  17.073  0.1999 -0.1175  0.3975
13769TIP3    H162798   5.225   3.241  17.061  0.3524 -0.3243 -0.6793
13769TIP3    H262799   5.231   3.114  17.144  1.1166  0.1010 -0.0765
13770TIP3   OH262800   3.903   2.333  12.266 -0.3422  0.4117 -0.1231
13770TIP3    H162801   3.937   2.248  12.293 -0.6778  0.8074  1.6081
13770TIP3    H262802   3.981   2.387  12.256 -0.2528  0.4289  0.6602
13771TIP3   OH262803   0.347   0.749  14.788 -0.6024 -0.1867  0.2314
13771TIP3    H162804   0.389   0.722  14.706  0.3110  0.7266  0.3768
13771TIP3    H262805   0.254   0.750  14.768 -0.4632 -0.8924 -0.5155
13772TIP3   OH262806   0.923   5.206   3.375  0.5486  0.2724 -0.4715
13772TIP3    H162807   0.933   5.139   3.307  0.6619  0.6651 -0.8471
13772TIP3    H262808   0.899   5.157   3.454  1.1798 -0.2651 -0.6057
13773TIP3   OH262809   0.629   2.442  16.112 -0.1323  0.3986 -0.4867
13773TIP3    H162810   0.687   2.433  16.036 -0.2603  1.6902 -0.7656
13773TIP3    H262811   0.688   2.461  16.185 -0.1406  0.9962 -0.6309
13774TIP3   OH262812   1.004   1.956   3.946  0.0965 -0.4965 -0.3560
13774TIP3    H162813   1.087   1.987   3.910 -0.7807  4.5442  1.1868
13774TIP3    H262814   0.943   1.961   3.872  0.2618  0.0573 -0.4546
13775TIP3   OH262815   5.150   6.742  14.888 -0.1738  0.3810  0.3632
13775TIP3    H162816   5.207   6.698  14.951 -0.3586  1.5514  1.3973
13775TIP3    H262817   5.191   6.728  14.803 -0.2695 -1.8235  0.6142
13776TIP3   OH262818   2.024   5.942   5.517 -0.1404 -0.2609  0.3236
13776TIP3    H162819   2.011   6.030   5.552 -1.6410  0.2072 -1.2771
13776TIP3    H262820   1.988   5.883   5.583 -0.6067  0.4269  0.6885
13777TIP3   OH262821   6.360   2.407   3.808  0.3107 -0.1041  0.1121
13777TIP3    H162822   6.376   2.363   3.891  0.9561  0.3671  0.2468
13777TIP3    H262823   6.401   2.350   3.743 -1.0617 -0.9927 -0.0225
13778TIP3   OH262824   2.008   0.167  16.316  0.4491  0.2588  0.6788
13778TIP3    H162825   2.083   0.172  16.257 -1.5427 -0.4650 -2.1281
13778TIP3    H262826   2.013   0.079  16.354  1.1506  0.3219  0.7501
13779TIP3   OH262827   6.242   0.242   2.174 -0.0750  0.6799  0.2187
13779TIP3    H162828   6.292   0.307   2.222  0.1883 -0.1928  1.1656
13779TIP3    H262829   6.187   0.200   2.240 -0.6441  0.3109 -0.4698
13780TIP3   OH262830   6.270   2.500  14.657  0.2060 -0.5165  0.0124
13780TIP3    H162831   6.216   2.540  14.590 -0.4513 -2.5872 -0.7728
13780TIP3    H262832   6.351   2.476  14.612  0.7466  0.2522  0.5593
13781TIP3   OH262833   2.623   1.871   6.062 -0.3048  0.5656 -0.6467
13781TIP3    H162834   2.557   1.917   6.113 -0.5967 -1.7135  1.2178
13781TIP3    H262835   2.706   1.900   6.098 -0.4937 -0.5308  0.7559
13782TIP3   OH262836   1.331   4.061   6.689  0.1898 -0.1992 -0.4686
13782TIP3    H162837   1.351   3.994   6.755 -1.3177 -0.0802  0.1598
13782TIP3    H262838   1.346   4.144   6.735 -0.7448 -0.1177 -0.2694
13783TIP3   OH262839   3.089   3.813   4.793 -0.2167 -0.0196 -0.5189
13783TIP3    H162840   3.138   3.833   4.873 -1.5208 -0.9717  0.5682
13783TIP3    H262841   3.135   3.738   4.755 -0.5538 -0.6490  0.2741
13784TIP3   OH262842   6.792   1.957  16.573  0.7077  0.2530 -0.1156
13784TIP3    H162843   6.778   1.893  16.643 -0.6895 -1.4955 -1.8807
13784TIP3    H262844   6.867   2.010  16.603 -0.2074  0.0030  2.9189
13785TIP3   OH262845   0.345   4.321   1.963 -0.2006 -0.3998 -0.1746
13785TIP3    H162846   0.422   4.351   1.914  0.1176  0.4885  0.8293
13785TIP3    H262847   0.271   4.366   1.922  0.1678  1.0922  0.7166
13786TIP3   OH262848   6.557   2.745  16.410  0.3611 -0.3239  0.4186
13786TIP3    H162849   6.505   2.692  16.349  0.1689 -0.3350  0.5915
13786TIP3    H262850   6.632   2.773  16.358  0.0554 -0.0907  0.0898
13787TIP3   OH262851   0.248   4.305   3.002 -0.1264 -0.2657 -0.5378
13787TIP3    H162852   0.331   4.258   2.998 -0.6786 -1.3117 -0.1736
13787TIP3    H262853   0.231   4.317   3.095  0.8779  2.3214 -0.6188
13788TIP3   OH262854   0.515   3.983  16.615  1.2328  0.3595 -0.3530
13788TIP3    H162855   0.547   3.894  16.630 -1.3626 -0.4376  1.2560
13788TIP3    H262856   0.507   3.990  16.520  0.8685 -1.4244 -0.4960
13789TIP3   OH262857   5.166   0.999  16.300 -0.1621 -0.3450 -0.0315
13789TIP3    H162858   5.251   0.956  16.302 -0.1430 -0.2650  1.5148
13789TIP3    H262859   5.103   0.928  16.287  0.0224 -0.6016  0.4581
13790TIP3   OH262860   1.001   5.208   0.484 -0.2707  0.2804 -0.0962
13790TIP3    H162861   0.956   5.249   0.411 -0.6588 -1.5854 -0.9538
13790TIP3    H262862   0.931   5.185   0.545 -0.3706 -1.3406 -0.7828
13791TIP3   OH262863   3.031   6.527  11.365 -0.3323 -0.5679  0.2019
13791TIP3    H162864   2.970   6.592  11.330  4.4351  2.9664 -2.7758
13791TIP3    H262865   3.060   6.564  11.449  1.3123  0.6162 -0.8205
13792TIP3   OH262866   2.322   3.088   4.454  0.4011  0.8175 -0.0475
13792TIP3    H162867   2.338   2.998   4.480 -0.7945  0.7146  0.4021
13792TIP3    H262868   2.358   3.141   4.525 -1.5438  0.5791  1.1982
13793TIP3   OH262869   6.035   4.691  12.122  0.7247 -0.3700 -0.3132
13793TIP3    H162870   6.128   4.683  12.101  0.4955 -0.1905 -1.4922
13793TIP3    H262871   5.990   4.673  12.039 -0.3007 -0.6921  0.2965
13794TIP3   OH262872   6.365   0.884   3.593  0.0955 -0.0349 -0.1376
13794TIP3    H162873   6.299   0.839   3.540  0.9716 -1.2453 -0.2440
13794TIP3    H262874   6.402   0.950   3.535 -1.0295  0.6726 -0.0665
13795TIP3   OH262875   2.619   2.442   4.054  0.6071  0.0908 -0.2245
13795TIP3    H162876   2.706   2.459   4.016  0.8555 -0.9202 -0.1322
13795TIP3    H262877   2.637   2.385   4.129 -0.1147  0.0802 -0.0619
13796TIP3   OH262878   2.480   2.533   2.926 -0.2427  0.2794  0.3740
13796TIP3    H162879   2.536   2.568   2.856 -1.8173  0.6474 -0.7698
13796TIP3    H262880   2.515   2.571   3.006  1.5747 -0.0908 -0.1925
13797TIP3   OH262881   6.322   3.438   2.837 -0.2088  0.5927  0.1138
13797TIP3    H162882   6.356   3.407   2.921 -2.1160  0.6298  0.9614
13797TIP3    H262883   6.399   3.445   2.781  0.8245 -1.9391  1.0497
13798TIP3   OH262884   0.235   1.851   5.705 -0.1182 -0.0094 -0.2523
13798TIP3    H162885   0.193   1.804   5.633  0.0677 -0.4349 -0.0851
13798TIP3    H262886   0.214   1.943   5.689 -1.3959 -0.2411  0.0113
13799TIP3   OH262887   4.444   2.611  11.546  0.0984  0.0161  0.3739
13799TIP3    H162888   4.526   2.564  11.531 -0.4847 -0.7577 -0.5357
13799TIP3    H262889   4.422   2.594  11.637  1.1086  0.5163  0.7313
13800TIP3   OH262890   4.680   5.316  11.523  0.5683  0.5114 -0.2259
13800TIP3    H162891   4.738   5.240  11.531  0.3361  0.2034 -1.3692
13800TIP3    H262892   4.593   5.282  11.548  0.1056 -0.1037 -2.4887
13801TIP3   OH262893   2.746   2.172  12.252 -0.2513  0.4525 -0.0654
13801TIP3    H162894   2.736   2.266  12.270 -0.7502  0.9527 -2.5674
13801TIP3    H262895   2.832   2.165  12.210  0.4788 -0.4891  1.5297
13802TIP3   OH262896   1.391   5.516  11.493 -0.3780  0.2186 -0.4391
13802TIP3    H162897   1.406   5.595  11.441 -1.9995  0.5003 -0.5036
13802TIP3    H262898   1.298   5.516  11.512 -0.2184 -1.1113  0.5113
13803TIP3   OH262899   4.263   6.179  10.883  0.0162 -0.2058 -0.0334
13803TIP3    H162900   4.294   6.208  10.969 -1.6535 -0.4077  0.6749
13803TIP3    H262901   4.181   6.225  10.871 -1.0964 -2.1609 -0.3168
13804TIP3   OH262902   0.039   6.690  14.549 -0.0427 -0.2791 -0.1238
13804TIP3    H162903  -0.016   6.649  14.616  0.2152  0.0377  0.2835
13804TIP3    H262904   0.125   6.698  14.590 -0.2960  1.4770  0.1380
13805TIP3   OH262905   5.769   0.508   0.485  0.4174  0.7592 -0.0237
13805TIP3    H162906   5.719   0.578   0.527  0.6344  1.1095 -0.3396
13805TIP3    H262907   5.708   0.435   0.479  1.1715 -0.3114  3.4470
13806TIP3   OH262908   2.194   2.255   4.968  0.3116  0.2937  0.1616
13806TIP3    H162909   2.176   2.330   5.025  0.7019 -0.4382  1.2734
13806TIP3    H262910   2.218   2.184   5.027  0.4765 -0.5763 -0.9015
13807TIP3   OH262911   0.418   1.290   4.874  0.6970  0.0247 -0.3346
13807TIP3    H162912   0.443   1.342   4.798  0.6476 -1.8782 -1.7384
13807TIP3    H262913   0.329   1.318   4.894 -0.3955 -1.3311 -2.8229
13808TIP3   OH262914   0.692   1.696  15.933  0.1856 -0.3660  0.3154
13808TIP3    H162915   0.785   1.715  15.942  0.2353 -0.8742  0.9297
13808TIP3    H262916   0.649   1.780  15.951  0.5523  0.1364 -1.0426
13809TIP3   OH262917   6.185   1.114  12.342  0.1823 -0.2689  0.4292
13809TIP3    H162918   6.118   1.099  12.276  0.0666  1.0979  0.2243
13809TIP3    H262919   6.264   1.137  12.292  0.6222 -1.1215  0.6999
13810TIP3   OH262920   4.770   2.145   2.248  0.1874  0.0427 -0.6225
13810TIP3    H162921   4.830   2.156   2.322  0.4876  2.1145 -1.0998
13810TIP3    H262922   4.815   2.085   2.189  1.3148  0.6845 -0.4501
13811TIP3   OH262923   1.617   1.022   3.955 -0.5595 -0.2464 -0.1264
13811TIP3    H162924   1.560   1.064   3.891  0.4959 -2.2884 -2.5789
13811TIP3    H262925   1.563   1.014   4.034 -1.6980  2.9697 -0.4296
13812TIP3   OH262926   0.971   5.321  11.000 -0.4860  0.1442 -0.6651
13812TIP3    H162927   0.934   5.232  10.997  0.9263 -0.4564 -1.1392
13812TIP3    H262928   0.896   5.379  10.985 -1.3735 -0.9772 -0.7124
13813TIP3   OH262929   2.946   6.257   4.369 -0.5014  0.2785 -0.1894
13813TIP3    H162930   2.939   6.297   4.282 -1.7474  2.0165  0.6386
13813TIP3    H262931   2.999   6.320   4.419 -0.8635 -0.0732  0.6449
13814TIP3   OH262932   3.833   2.536   6.120  0.1331 -0.5038 -0.4831
13814TIP3    H162933   3.861   2.469   6.183 -0.4709 -0.7100 -0.4306
13814TIP3    H262934   3.883   2.614   6.145 -0.4416 -0.4475  0.5548
13815TIP3   OH262935   5.086   3.682  16.248  0.0874  0.3137  0.2195
13815TIP3    H162936   5.182   3.673  16.249  0.0506 -0.3950 -0.7849
13815TIP3    H262937   5.056   3.617  16.312  0.2873  0.9022  0.9251
13816TIP3   OH262938   4.397   2.646  15.961  0.6008  0.4442 -0.2216
13816TIP3    H162939   4.487   2.618  15.946 -0.2977 -2.0279 -1.6210
13816TIP3    H262940   4.374   2.696  15.883  1.1554  2.4147  0.8061
13817TIP3   OH262941   0.128   2.438   3.871  0.0253 -0.1174  0.4836
13817TIP3    H162942   0.191   2.407   3.937  2.6009  0.8335 -1.3464
13817TIP3    H262943   0.138   2.377   3.798 -0.5065  0.5811 -0.1906
13818TIP3   OH262944   1.110   0.440  10.865  0.6121  0.1084  0.5135
13818TIP3    H162945   1.180   0.491  10.826 -0.9427  0.3324 -2.2215
13818TIP3    H262946   1.032   0.463  10.815 -1.2221 -1.0237  2.6402
13819TIP3   OH262947   6.416   0.841  16.628  0.2565  0.4573 -0.2321
13819TIP3    H162948   6.446   0.764  16.580  0.1826  0.3272 -0.0719
13819TIP3    H262949   6.403   0.908  16.561  2.2067  0.9486 -0.1747
13820TIP3   OH262950   2.910   1.700  16.679  0.1587  0.9697  0.3507
13820TIP3    H162951   2.864   1.716  16.597  0.2608  2.0174  0.4814
13820TIP3    H262952   2.965   1.778  16.691  1.4697  0.0432  0.5308
13821TIP3   OH262953   4.186   3.221  13.253  0.2473 -0.1480 -0.2879
13821TIP3    H162954   4.148   3.176  13.328  1.5824 -0.1347  0.4231
13821TIP3    H262955   4.246   3.157  13.214  0.8351  0.4137 -0.3198
13822TIP3   OH262956   2.340   6.388   3.813  0.0531 -0.2927  0.2113
13822TIP3    H162957   2.333   6.482   3.827  1.6405 -0.1915  0.5354
13822TIP3    H262958   2.415   6.378   3.754  0.4776 -1.3952  0.8973
13823TIP3   OH262959   4.342   1.687   4.763 -0.0858  0.3087  0.2437
13823TIP3    H162960   4.298   1.607   4.792 -0.9141  1.1309  1.3515
13823TIP3    H262961   4.318   1.695   4.670  3.1714 -2.7400 -1.1142
13824TIP3   OH262962   1.934   3.971  13.608  0.5540 -0.0677  0.4163
13824TIP3    H162963   1.874   3.897  13.601 -0.3017  0.4711  1.7655
13824TIP3    H262964   1.933   4.011  13.522 -3.4884  1.7773  1.0905
13825TIP3   OH262965   3.987   4.913  17.218 -0.2615 -0.7890 -0.0454
13825TIP3    H162966   3.908   4.869  17.187 -1.3947  0.9263  0.2594
13825TIP3    H262967   3.982   4.907  17.313 -0.9148  0.6759  0.0537
13826TIP3   OH262968   0.493   5.339  13.450  0.3630  0.0365 -0.4672
13826TIP3    H162969   0.562   5.326  13.515 -0.9576 -2.8097  0.5525
13826TIP3    H262970   0.413   5.310  13.494 -1.1981  1.3554 -2.2450
13827TIP3   OH262971   3.078   0.076   1.644 -0.0981  0.9612  0.4391
13827TIP3    H162972   3.084   0.046   1.735  0.6595  0.5543  0.2608
13827TIP3    H262973   3.102   0.169   1.648  0.9349  0.7104  0.5336
13828TIP3   OH262974   3.080   2.278  15.932 -0.0737 -0.2032  0.6692
13828TIP3    H162975   3.048   2.301  16.019 -0.5168  0.1281  0.4191
13828TIP3    H262976   3.171   2.307  15.932 -0.4675  1.0762  0.5460
13829TIP3   OH262977   1.321   5.745  13.690 -0.0896 -0.4819 -0.3790
13829TIP3    H162978   1.278   5.811  13.744 -0.0545 -2.9277  2.9987
13829TIP3    H262979   1.414   5.760  13.702 -0.0347  0.2198 -1.5374
13830TIP3   OH262980   0.495   2.920   3.398 -0.5214 -0.5654  0.2342
13830TIP3    H162981   0.437   2.886   3.330  0.8569 -0.6616 -0.9466
13830TIP3    H262982   0.476   2.865   3.474 -0.2681 -2.2275 -0.8363
13831TIP3   OH262983   1.075   1.169   1.813  0.6185 -0.1073  0.2041
13831TIP3    H162984   1.053   1.111   1.741 -0.2217  0.1180  0.2649
13831TIP3    H262985   1.124   1.240   1.773 -0.1508  0.2003 -0.2121
13832TIP3   OH262986   4.649   0.357  12.814  0.2942  0.2719  0.5457
13832TIP3    H162987   4.701   0.306  12.876  0.5414  1.5659  1.4534
13832TIP3    H262988   4.635   0.441  12.858 -0.1108  0.9895 -0.8772
13833TIP3   OH262989   6.283   1.931   2.869  0.3658 -0.6509 -0.1025
13833TIP3    H162990   6.320   1.914   2.782 -0.4023 -0.8286 -0.4029
13833TIP3    H262991   6.258   1.844   2.902  0.6013 -0.5779  0.2717
13834TIP3   OH262992   1.349   0.710  16.269  0.2208  0.2458  0.6315
13834TIP3    H162993   1.435   0.736  16.302 -0.6713 -0.1330  3.4838
13834TIP3    H262994   1.360   0.708  16.174  3.3130  0.3367  0.8836
13835TIP3   OH262995   3.858   0.777   5.373  0.5584  0.4133  0.3605
13835TIP3    H162996   3.931   0.816   5.325  1.9209 -0.9834  1.2212
13835TIP3    H262997   3.856   0.824   5.456  0.5222  0.4009  0.3666
13836TIP3   OH262998   4.517   0.073  14.494  0.0211 -0.2500  0.2339
13836TIP3    H162999   4.535   0.033  14.578 -1.0471  1.0429  1.1162
13836TIP3    H263000   4.595   0.126  14.475  1.2252 -2.2619 -0.7058
13837TIP3   OH263001   0.367   6.465  16.103  0.0433  0.0788 -0.2845
13837TIP3    H163002   0.327   6.521  16.037 -0.6507 -0.6104 -0.4667
13837TIP3    H263003   0.443   6.515  16.134 -1.1199  1.5698  0.3044
13838TIP3   OH263004   5.122   5.589  11.887  0.1214 -0.4909  0.7475
13838TIP3    H163005   5.166   5.625  11.963 -1.4238  0.4134  1.2601
13838TIP3    H263006   5.033   5.572  11.917  0.0103 -1.9930 -0.3228
13839TIP3   OH263007   2.300   3.541  11.194 -0.2339 -0.6108 -0.4561
13839TIP3    H163008   2.386   3.500  11.194 -0.1958 -0.6653 -2.5187
13839TIP3    H263009   2.303   3.604  11.266  1.6578 -0.3876 -0.6704
13840TIP3   OH263010   4.997   5.539   3.837  0.5330 -0.1902 -0.0135
13840TIP3    H163011   4.924   5.574   3.787 -0.0027 -0.3410  0.6443
13840TIP3    H263012   5.032   5.468   3.784 -0.3056 -0.6340  0.0277
13841TIP3   OH263013   5.404   4.333  12.889 -0.0491 -0.1312 -0.0814
13841TIP3    H163014   5.459   4.411  12.901 -1.9493  1.2546  0.1268
13841TIP3    H263015   5.446   4.284  12.819  0.4298  1.8678 -1.2698
13842TIP3   OH263016   4.979   4.456   5.754 -0.2007 -0.0000  0.1990
13842TIP3    H163017   5.039   4.487   5.821  0.3162  0.6673 -0.5602
13842TIP3    H263018   4.906   4.417   5.803  1.0760 -1.3146  1.1355
13843TIP3   OH263019   6.735   0.185  15.255 -0.3068  0.1144  0.5919
13843TIP3    H163020   6.667   0.250  15.240 -0.2844  0.4007  1.6565
13843TIP3    H263021   6.791   0.190  15.177 -0.9815  0.5037  0.1191
13844TIP3   OH263022   0.017   6.715   1.096  0.4283 -0.2196 -0.2048
13844TIP3    H163023   0.061   6.790   1.057 -0.9929 -0.1255 -1.7050
13844TIP3    H263024   0.051   6.639   1.047  2.3210 -0.7193  1.6971
13845TIP3   OH263025   0.736   6.110   6.265 -0.1352  0.2747  0.0921
13845TIP3    H163026   0.746   6.124   6.359 -2.1482 -0.2688  0.4357
13845TIP3    H263027   0.662   6.166   6.241 -1.1938 -1.3706 -0.6629
13846TIP3   OH263028   1.455   2.020  11.358  0.5597  0.3640 -0.1749
13846TIP3    H163029   1.473   2.113  11.340 -1.6009  0.7875 -0.4746
13846TIP3    H263030   1.429   1.984  11.274 -0.7515  0.0647  0.3339
13847TIP3   OH263031   1.320   4.730   2.647 -0.6432 -0.4718  0.7229
13847TIP3    H163032   1.350   4.821   2.643 -1.3572 -0.2622 -0.2432
13847TIP3    H263033   1.267   4.719   2.568 -2.3677 -1.0841  1.9135
13848TIP3   OH263034   3.926   0.102   6.317 -0.0817 -0.2500  0.3593
13848TIP3    H163035   4.011   0.128   6.353 -0.1104  1.1824 -0.5386
13848TIP3    H263036   3.893   0.036   6.379  1.1855 -0.0318  1.3053
13849TIP3   OH263037   1.994   0.187  15.386 -0.3330  0.0480 -0.4783
13849TIP3    H163038   1.999   0.255  15.319 -1.8796  1.0485  0.3660
13849TIP3    H263039   2.035   0.226  15.463 -1.6339  0.2290  0.1458
13850TIP3   OH263040   2.641   3.697   1.322  0.2631  0.2791  0.5234
13850TIP3    H163041   2.649   3.606   1.295  0.4725  0.4873 -0.1295
13850TIP3    H263042   2.570   3.732   1.268  1.8928  1.1832 -1.1239
13851TIP3   OH263043   4.609   3.491  14.852 -0.3661  0.5708 -0.1645
13851TIP3    H163044   4.657   3.489  14.934  2.6947  1.1434 -1.7842
13851TIP3    H263045   4.523   3.525  14.875  0.3173  0.5514  2.7844
13852TIP3   OH263046   5.537   5.263  11.905  0.6466 -0.5575 -0.2694
13852TIP3    H163047   5.623   5.228  11.882  1.7028  1.0510  1.0141
13852TIP3    H263048   5.531   5.345  11.855 -0.1322 -0.6539 -0.3337
13853TIP3   OH263049   0.751   3.990  15.382 -0.1975  0.2981 -0.1034
13853TIP3    H163050   0.660   3.965  15.398 -0.5516  2.1117  1.1255
13853TIP3    H263051   0.753   4.084  15.402  2.3819 -0.1029  2.1588
13854TIP3   OH263052   0.959   5.763  13.137  0.3818  0.0452 -0.3099
13854TIP3    H163053   0.907   5.838  13.165  0.5959  1.3733 -3.1418
13854TIP3    H263054   1.048   5.782  13.167  0.3180  0.6586 -0.4951
13855TIP3   OH263055   5.420   3.991  14.278  0.4006 -0.4185 -0.5978
13855TIP3    H163056   5.442   3.906  14.240 -0.8291 -0.5846 -0.9977
13855TIP3    H263057   5.387   4.042  14.203 -1.2663 -0.4609  0.0710
13856TIP3   OH263058   1.937   2.644  11.115  0.3095 -0.2812  0.1854
13856TIP3    H163059   2.023   2.673  11.086 -0.1608  0.2131 -0.7192
13856TIP3    H263060   1.947   2.549  11.128  0.9614 -0.2379  0.0211
13857TIP3   OH263061   6.489   0.595  16.818  0.3063  0.5246 -0.0863
13857TIP3    H163062   6.406   0.606  16.866 -0.3254  0.4984 -1.1397
13857TIP3    H263063   6.489   0.665  16.753  1.1937  0.6119 -0.0059
13858TIP3   OH263064   1.436   5.057   3.654  0.1447 -0.1242  0.3710
13858TIP3    H163065   1.362   5.011   3.695 -0.0187  1.9126  2.5781
13858TIP3    H263066   1.504   4.991   3.647 -0.6729 -1.1736  1.7405
13859TIP3   OH263067   1.980   5.143   5.952 -0.1686 -0.2358  0.0473
13859TIP3    H163068   1.931   5.150   6.035  0.8729 -1.1661  0.7712
13859TIP3    H263069   1.930   5.080   5.900 -0.7724  0.2713  0.0070
13860TIP3   OH263070   0.190   3.958   6.447 -0.1202  0.0057  0.5982
13860TIP3    H163071   0.179   3.902   6.523  0.1818  1.4288  1.7487
13860TIP3    H263072   0.253   4.025   6.475  0.4725  0.2196 -1.1114
13861TIP3   OH263073   0.882   2.666  11.756 -0.1517 -0.3525 -0.1008
13861TIP3    H163074   0.850   2.747  11.717 -1.2701 -0.9221 -0.3965
13861TIP3    H263075   0.804   2.611  11.766  0.6258 -1.4947 -0.1444
13862TIP3   OH263076   2.522   6.802   5.953 -0.5123 -0.0721  0.3471
13862TIP3    H163077   2.572   6.848   6.021 -0.6540  0.0317  0.3818
13862TIP3    H263078   2.576   6.809   5.875 -0.2781 -0.3176  0.4841
13863TIP3   OH263079   4.138   4.918  16.390  0.6518  0.4853 -0.1630
13863TIP3    H163080   4.172   4.839  16.431  3.4241  0.6236 -1.8488
13863TIP3    H263081   4.135   4.897  16.297 -0.9426  1.6068 -0.3984
13864TIP3   OH263082   2.584   2.105  14.693  0.6513 -0.1338  0.4639
13864TIP3    H163083   2.517   2.172  14.702  0.8587  0.6780 -2.7154
13864TIP3    H263084   2.572   2.048  14.769 -0.4579  2.6294  2.5442
13865TIP3   OH263085   4.900   0.976  15.078  0.5560 -0.8241  0.0888
13865TIP3    H163086   4.874   1.028  15.154  1.7191 -2.3002  1.5774
13865TIP3    H263087   4.967   1.029  15.034  2.1569 -1.2438  1.9084
13866TIP3   OH263088   2.801   3.075   5.368  0.0837  0.3097  0.0114
13866TIP3    H163089   2.843   3.151   5.329  1.2415 -0.3184  0.0049
13866TIP3    H263090   2.873   3.022   5.402 -0.7852 -0.1228  1.2308
13867TIP3   OH263091   1.043   4.193   5.988 -0.3905  0.2930  0.3475
13867TIP3    H163092   1.072   4.283   6.004 -0.0494 -0.0322  1.6892
13867TIP3    H263093   0.985   4.174   6.062 -0.5643 -0.5514  0.0002
13868TIP3   OH263094   4.866   5.739  14.655 -0.4076 -0.0396 -0.0332
13868TIP3    H163095   4.832   5.669  14.710 -0.1723 -0.1526 -0.0287
13868TIP3    H263096   4.799   5.753  14.589 -0.0248 -0.9556 -0.6349
13869TIP3   OH263097   0.946   5.241   0.824  0.2998  0.0999 -0.3856
13869TIP3    H163098   1.011   5.191   0.873  0.2195 -0.1254 -0.5073
13869TIP3    H263099   0.965   5.332   0.846 -1.1800 -0.0641  1.8561
13870TIP3   OH263100   3.116   6.286   3.362  0.0124 -0.3616 -0.4393
13870TIP3    H163101   3.085   6.206   3.404 -0.0262  0.0021  0.2390
13870TIP3    H263102   3.209   6.291   3.384 -0.1004  0.0487 -0.0325
13871TIP3   OH263103   4.284   2.764  15.254  0.0498 -0.4540 -0.2553
13871TIP3    H163104   4.320   2.676  15.249  1.3243  0.0130  0.1624
13871TIP3    H263105   4.361   2.821  15.265 -0.8566  0.5479  1.3151
13872TIP3   OH263106   6.389   4.601  17.023  0.1477 -0.1462 -0.1320
13872TIP3    H163107   6.431   4.593  16.938 -0.3821  0.0338 -0.4175
13872TIP3    H263108   6.449   4.655  17.075  0.6728 -0.6086 -0.2514
13873TIP3   OH263109   3.116   3.917   6.854 -0.0471  0.1951 -0.1489
13873TIP3    H163110   3.072   3.872   6.783 -0.7886 -0.1116  0.4885
13873TIP3    H263111   3.072   3.886   6.933  0.1995  1.1561  0.3861
13874TIP3   OH263112   5.433   0.939  17.010  0.6588  0.4763 -0.2072
13874TIP3    H163113   5.495   0.991  17.061 -0.3443  1.6757 -0.1462
13874TIP3    H263114   5.352   0.941  17.062  0.3205 -0.3166 -0.6953
13875TIP3   OH263115   0.649   5.536  12.157  0.0562 -0.2073 -0.6857
13875TIP3    H163116   0.566   5.580  12.138  0.6274  0.8576 -0.8316
13875TIP3    H263117   0.652   5.529  12.252 -0.1169 -0.0825 -0.6708
13876TIP3   OH263118   2.110   1.307   1.419  0.3405 -0.1505  0.0065
13876TIP3    H163119   2.022   1.288   1.452  0.0274  0.6558 -0.3384
13876TIP3    H263120   2.162   1.329   1.496  0.1763 -0.3870  0.1835
13877TIP3   OH263121   1.600   3.757  15.388 -0.0728 -0.3809 -0.4378
13877TIP3    H163122   1.529   3.721  15.442 -0.5715 -0.3580 -1.0611
13877TIP3    H263123   1.636   3.829  15.441 -0.6181 -0.2943 -0.1728
13878TIP3   OH263124   2.762   5.492   5.393  0.7783 -0.1250 -0.3057
13878TIP3    H163125   2.690   5.430   5.410  0.8100 -0.2577 -0.6554
13878TIP3    H263126   2.721   5.578   5.399  0.9458 -0.1237  1.2700
13879TIP3   OH263127   4.737   4.641   1.059  0.0982  0.5297 -0.5526
13879TIP3    H163128   4.694   4.569   1.014 -2.6127  0.2740  2.1442
13879TIP3    H263129   4.800   4.600   1.117 -0.7340  0.3672  0.2529
13880TIP3   OH263130   4.503   5.778  17.143  0.5060 -0.0726  0.0437
13880TIP3    H163131   4.545   5.710  17.091 -0.3591 -0.5324 -0.0606
13880TIP3    H263132   4.560   5.788  17.219  0.8742 -0.5971 -0.1601
13881TIP3   OH263133   2.202   4.508   1.920  0.0209  0.2173  0.0745
13881TIP3    H163134   2.166   4.586   1.964  1.8699  1.3276 -0.2882
13881TIP3    H263135   2.181   4.521   1.828  0.2891  0.2818  0.0206
13882TIP3   OH263136   3.259   0.110  11.372 -0.2414 -0.5659 -0.5978
13882TIP3    H163137   3.321   0.044  11.341 -0.1082 -1.5625  1.5923
13882TIP3    H263138   3.307   0.158  11.440 -0.9941  0.4734 -0.7743
13883TIP3   OH263139   0.834   0.990  14.558  0.1379 -0.4877 -0.4092
13883TIP3    H163140   0.762   1.052  14.567  0.5134  0.0793 -1.1758
13883TIP3    H263141   0.828   0.934  14.635  0.1937  0.9457  0.6761
13884TIP3   OH263142   5.124   2.676  14.734  0.1948  0.6644 -0.5809
13884TIP3    H163143   5.106   2.620  14.809 -1.1237  1.5579 -0.2034
13884TIP3    H263144   5.208   2.644  14.700 -0.2240 -1.1403 -0.0330
13885TIP3   OH263145   5.274   4.030   1.706  0.2893 -0.1982  0.0007
13885TIP3    H163146   5.206   3.981   1.753  0.3457 -1.8522 -1.5306
13885TIP3    H263147   5.241   4.119   1.701 -1.5176 -0.8401 -0.1811
13886TIP3   OH263148   5.046   5.446  14.212  0.3078 -0.2094  0.2069
13886TIP3    H163149   5.027   5.487  14.297 -0.3145  0.5900 -0.2984
13886TIP3    H263150   5.073   5.519  14.156 -0.7914 -0.4707 -0.7051
13887TIP3   OH263151   4.260   2.807   3.187  0.2868 -0.1625 -0.0877
13887TIP3    H163152   4.304   2.836   3.268  1.3278 -0.5448 -0.4973
13887TIP3    H263153   4.190   2.871   3.174 -1.1928 -1.1726  2.1661
13888TIP3   OH263154   1.907   4.470   4.306 -0.5532 -1.0308  0.1919
13888TIP3    H163155   1.886   4.553   4.263  0.1844 -1.4129 -0.9374
13888TIP3    H263156   1.821   4.430   4.323 -0.8507 -1.0367 -1.2572
13889TIP3   OH263157   5.614   0.919  12.805 -0.5131  0.4840 -0.1743
13889TIP3    H163158   5.647   0.946  12.891 -2.1763  0.2729  0.5673
13889TIP3    H263159   5.549   0.851  12.824 -0.2309 -0.2503 -1.6754
13890TIP3   OH263160   2.220   2.196  12.686 -0.4476  0.1605  0.2984
13890TIP3    H163161   2.269   2.136  12.630 -0.0063  0.0655  0.7811
13890TIP3    H263162   2.286   2.236  12.742 -0.9519 -0.1755  1.1440
13891TIP3   OH263163   5.436   5.812   3.304 -0.6226  0.7217  0.4399
13891TIP3    H163164   5.370   5.746   3.286 -0.2255 -0.4133  2.7635
13891TIP3    H263165   5.513   5.783   3.255 -1.0595  0.6215 -0.1987
13892TIP3   OH263166   2.873   0.058   1.469 -0.1425 -0.2992 -0.5589
13892TIP3    H163167   2.938   0.070   1.538 -1.4945  1.9075  0.4451
13892TIP3    H263168   2.917   0.003   1.404  1.8790 -0.7951  1.1209
13893TIP3   OH263169   1.604   1.299   5.733 -0.4046  0.1664  0.0340
13893TIP3    H163170   1.516   1.334   5.724 -0.8617 -0.3845  2.0415
13893TIP3    H263171   1.607   1.262   5.821  1.9937  0.6034  0.1945
13894TIP3   OH263172   4.787   1.857   2.522 -0.1158  0.4830  0.7619
13894TIP3    H163173   4.735   1.869   2.443  0.5980 -0.9082  0.0577
13894TIP3    H263174   4.730   1.889   2.593 -1.1870  0.7229 -0.1863
13895TIP3   OH263175   5.771   4.642  12.734  0.1658  0.4952 -0.6839
13895TIP3    H163176   5.839   4.582  12.704  0.8490  1.2851 -0.7533
13895TIP3    H263177   5.804   4.729  12.713  0.7383  1.1369  2.2992
13896TIP3   OH263178   4.134   6.267  13.967  0.2253 -0.0313  0.3586
13896TIP3    H163179   4.053   6.316  13.950 -0.3192 -1.3346 -1.0108
13896TIP3    H263180   4.204   6.330  13.953 -0.5025  0.7080 -0.0256
13897TIP3   OH263181   4.125   1.139   5.479 -0.0227  0.3008 -0.7132
13897TIP3    H163182   4.130   1.052   5.519 -2.4952 -0.1432 -1.1765
13897TIP3    H263183   4.181   1.194   5.533 -0.4442 -1.0322  1.1937
13898TIP3   OH263184   4.928   0.869  11.156  0.5528 -0.2215  0.5532
13898TIP3    H163185   4.949   0.845  11.246 -1.8169  0.1546  1.2730
13898TIP3    H263186   4.846   0.918  11.162 -0.5667 -1.5919 -1.9355
13899TIP3   OH263187   0.531   3.250   4.461  0.8700  0.1533 -0.3175
13899TIP3    H163188   0.577   3.255   4.545 -0.4155 -1.2555  0.5216
13899TIP3    H263189   0.445   3.288   4.478  0.6681  0.0526 -1.0610
13900TIP3   OH263190   4.500   3.337  12.783  0.4877 -0.2487 -0.3026
13900TIP3    H163191   4.540   3.255  12.754 -3.0664 -1.8301 -1.2122
13900TIP3    H263192   4.460   3.317  12.867  1.8527  1.4416  0.8435
13901TIP3   OH263193   1.281   0.186  15.891 -0.2697  0.1559  0.2104
13901TIP3    H163194   1.276   0.091  15.881 -0.4160 -0.0942  2.2529
13901TIP3    H263195   1.300   0.200  15.984 -1.2426  2.1435  0.1729
13902TIP3   OH263196   4.658   6.226   5.198  0.5507  0.0758  0.3157
13902TIP3    H163197   4.570   6.189   5.202  0.6653 -0.2952 -0.4041
13902TIP3    H263198   4.705   6.186   5.271 -0.0183  0.6785  1.0310
13903TIP3   OH263199   1.550   6.158  13.491  0.1940 -0.0651 -0.1912
13903TIP3    H163200   1.580   6.073  13.524  0.7059  0.1156 -0.1921
13903TIP3    H263201   1.540   6.212  13.570  1.3573  0.3477 -0.3135
13904TIP3   OH263202   4.057   6.213   3.662  0.2190 -0.0228 -0.0508
13904TIP3    H163203   4.053   6.271   3.738  1.8515  1.1090 -0.7583
13904TIP3    H263204   4.007   6.135   3.688  1.2585  0.0291  2.4277
13905TIP3   OH263205   1.520   5.271  14.099 -0.4832  0.1294  0.1168
13905TIP3    H163206   1.473   5.347  14.135  0.5533  1.0093 -0.3375
13905TIP3    H263207   1.612   5.293  14.111 -0.1656 -0.8741 -0.4394
13906TIP3   OH263208   1.096   4.706   4.318  0.0796  0.1630  0.0749
13906TIP3    H163209   1.127   4.635   4.262  0.4143 -0.9872  1.6554
13906TIP3    H263210   1.175   4.755   4.341  0.1913 -0.3709  0.8661
13907TIP3   OH263211   1.839   0.963  13.255  0.7044  0.2409  0.0146
13907TIP3    H163212   1.746   0.986  13.251  0.5161  0.3204  2.8872
13907TIP3    H263213   1.841   0.868  13.246 -0.4246 -0.6182  5.4091
13908TIP3   OH263214   4.215   3.896  11.069  0.1234  1.2129  0.4245
13908TIP3    H163215   4.272   3.970  11.089  0.8654  0.3713  1.5370
13908TIP3    H263216   4.270   3.835  11.019 -0.1950  0.9867  0.3415
13909TIP3   OH263217   1.739   1.764  15.047 -0.4804 -0.1237 -0.3000
13909TIP3    H163218   1.708   1.786  14.959 -1.8215 -1.4964 -0.2128
13909TIP3    H263219   1.737   1.847  15.094 -0.9090  0.4135 -1.2342
13910TIP3   OH263220   4.271   3.722   0.920  0.0425 -0.6491  0.0150
13910TIP3    H163221   4.261   3.796   0.981 -0.0670 -2.0046  1.7282
13910TIP3    H263222   4.319   3.758   0.846 -1.2990  1.4950  0.0992
13911TIP3   OH263223   3.550   3.082  12.909 -0.0220 -0.5479 -0.0416
13911TIP3    H163224   3.539   3.167  12.953 -1.1747  0.0754 -1.4466
13911TIP3    H263225   3.643   3.062  12.919  0.9286  2.2015 -1.9201
13912TIP3   OH263226   3.735   0.310   0.120 -0.2517  0.3305  0.1411
13912TIP3    H163227   3.796   0.241   0.145 -0.5497 -0.2084 -0.5946
13912TIP3    H263228   3.790   0.377   0.079 -0.0829  0.0871 -0.0348
13913TIP3   OH263229   0.298   4.314  14.731 -0.3169 -0.2328  0.2326
13913TIP3    H163230   0.283   4.364  14.811 -0.8631  0.0586 -0.0459
13913TIP3    H263231   0.393   4.307  14.724 -0.2621 -0.0610  0.7831
13914TIP3   OH263232   5.283   1.390   1.683  0.5466  0.1005 -0.1687
13914TIP3    H163233   5.328   1.473   1.668  1.3473 -0.0141  1.3745
13914TIP3    H263234   5.274   1.384   1.778 -1.9899 -0.3131 -0.3698
13915TIP3   OH263235   2.304   1.264  16.021 -0.1872  0.7153  0.3121
13915TIP3    H163236   2.264   1.227  16.101 -1.7647 -0.0841 -0.7828
13915TIP3    H263237   2.257   1.221  15.949 -0.0050  2.6666 -1.0558
13916TIP3   OH263238   1.716   2.294  13.687  0.8258 -0.6199 -0.5305
13916TIP3    H163239   1.662   2.332  13.756  1.2697 -0.1577 -0.4318
13916TIP3    H263240   1.774   2.366  13.659  0.0847 -0.5388 -1.9661
13917TIP3   OH263241   6.063   2.350   5.949  0.0140 -0.5060 -0.3441
13917TIP3    H163242   6.078   2.367   6.042 -0.1902 -0.8040 -0.2564
13917TIP3    H263243   6.026   2.262   5.946 -0.7125 -0.1987 -0.6452
13918TIP3   OH263244   5.536   2.216  14.020 -0.2401 -0.2445 -0.1003
13918TIP3    H163245   5.481   2.174  14.087  1.4923  0.1268  1.6304
13918TIP3    H263246   5.571   2.294  14.063  2.5980 -1.0922 -0.6617
13919TIP3   OH263247   0.306   5.300   2.123  0.3903 -0.1189  0.3951
13919TIP3    H163248   0.247   5.228   2.099  1.5334 -0.2989 -2.1855
13919TIP3    H263249   0.358   5.264   2.195  0.7236 -1.8150 -0.6305
13920TIP3   OH263250   0.760   4.510  10.546  0.3592 -0.0050 -0.6137
13920TIP3    H163251   0.811   4.511  10.627  0.8128 -2.2308 -0.8072
13920TIP3    H263252   0.671   4.535  10.574  0.5041 -0.7513  0.6022
13921TIP3   OH263253   3.686   3.210  11.740 -0.1491  0.3017  0.6643
13921TIP3    H163254   3.620   3.142  11.729  0.1185 -0.0711  1.2572
13921TIP3    H263255   3.680   3.264  11.661 -0.1045 -0.6421  0.0042
13922TIP3   OH263256   2.220   0.588  13.747  0.7284 -0.7474 -0.4982
13922TIP3    H163257   2.153   0.599  13.680 -1.8811 -0.7733  1.9418
13922TIP3    H263258   2.204   0.659  13.809  1.9649 -1.6762  0.9683
13923TIP3   OH263259   6.095   0.097  16.560 -0.2149  0.3057  0.1709
13923TIP3    H163260   6.053   0.086  16.646  1.5924  0.2281  1.0821
13923TIP3    H263261   6.069   0.185  16.532 -0.0132  0.7304  1.2639
13924TIP3   OH263262   5.856   4.193   0.347 -0.3237 -0.0157 -0.1555
13924TIP3    H163263   5.923   4.125   0.343 -0.4565 -0.1875  0.4263
13924TIP3    H263264   5.784   4.159   0.293  0.0461  0.1612 -0.7638
13925TIP3   OH263265   5.051   4.615   3.806 -0.6230 -0.3616  0.3198
13925TIP3    H163266   5.090   4.541   3.759 -0.7609 -1.4018  1.7940
13925TIP3    H263267   5.085   4.609   3.895 -4.2074 -1.5387  1.8243
13926TIP3   OH263268   6.203   2.956  16.974  0.4096  0.4463  0.7038
13926TIP3    H163269   6.148   3.034  16.982 -0.4930  0.1316 -1.7076
13926TIP3    H263270   6.172   2.898  17.043 -1.2056  0.9161  0.4147
13927TIP3   OH263271   4.551   3.828  12.294  0.0105 -0.7253 -0.7421
13927TIP3    H163272   4.551   3.784  12.208 -2.1314 -0.5353 -0.8742
13927TIP3    H263273   4.477   3.790  12.341 -0.1572  0.7122  0.2147
13928TIP3   OH263274   3.886   0.928  16.270 -0.0257 -0.1340 -0.0166
13928TIP3    H163275   3.858   0.890  16.353  1.0039  0.7921  0.7852
13928TIP3    H263276   3.975   0.960  16.287 -0.3216  1.3319 -1.0595
13929TIP3   OH263277   0.384   5.424  11.436 -0.0060  0.9771 -0.4406
13929TIP3    H163278   0.313   5.477  11.472 -0.6270  0.1962 -0.4796
13929TIP3    H263279   0.459   5.441  11.493 -1.3071 -1.3119  2.2098
13930TIP3   OH263280   4.007   5.511  16.614  0.6406 -0.4394  0.3070
13930TIP3    H163281   4.090   5.512  16.567  1.1611 -1.6650  1.1396
13930TIP3    H263282   3.956   5.441  16.573  0.8511 -1.0884  1.1252
13931TIP3   OH263283   6.651   3.360   4.879 -0.5808  0.4010 -0.1770
13931TIP3    H163284   6.623   3.445   4.847  0.0678  0.5716 -0.3143
13931TIP3    H263285   6.735   3.377   4.923  0.8994 -0.5256 -2.4564
13932TIP3   OH263286   1.407   4.045   1.660  0.1234  0.3070 -0.0501
13932TIP3    H163287   1.440   3.979   1.721  1.7238  0.7411 -0.3973
13932TIP3    H263288   1.421   4.128   1.705  0.9807  0.6049 -0.8488
13933TIP3   OH263289   5.749   4.792   2.518  0.2645 -0.0930 -0.0640
13933TIP3    H163290   5.830   4.835   2.545 -0.6856  1.8645 -0.1406
13933TIP3    H263291   5.732   4.728   2.586  1.4359  0.0498  0.3834
13934TIP3   OH263292   2.317   2.866   3.819  0.2359 -0.3632  0.2242
13934TIP3    H163293   2.392   2.911   3.780  0.1302  0.4083  0.8910
13934TIP3    H263294   2.249   2.933   3.823 -0.6537 -1.1679 -0.7797
13935TIP3   OH263295   0.242   3.427   5.742 -0.4172  0.2617 -0.6627
13935TIP3    H163296   0.315   3.365   5.746 -1.8035 -1.4085  2.5655
13935TIP3    H263297   0.279   3.511   5.769  0.2765 -0.7167  1.6896
13936TIP3   OH263298   4.816   2.868   5.492  0.4746  0.2033 -0.8768
13936TIP3    H163299   4.733   2.913   5.480  0.1848 -0.3203 -0.9041
13936TIP3    H263300   4.821   2.807   5.418 -0.4302 -1.7083  0.5483
13937TIP3   OH263301   6.285   3.708  13.326  0.0721 -0.1973 -0.1230
13937TIP3    H163302   6.216   3.719  13.392  2.5232  0.7945  2.4793
13937TIP3    H263303   6.290   3.793  13.282 -0.3384 -0.2780 -0.3351
13938TIP3   OH263304   5.009   2.363   1.035 -0.3136  0.1854 -0.0492
13938TIP3    H163305   4.937   2.417   1.068 -1.4693 -0.7109 -1.0036
13938TIP3    H263306   5.061   2.343   1.113 -0.0572  2.2941  0.4086
13939TIP3   OH263307   0.889   5.209  12.593 -0.2947  0.2302  0.2076
13939TIP3    H163308   0.818   5.221  12.656  0.0514 -1.1531  0.8924
13939TIP3    H263309   0.894   5.115  12.580  1.7415  0.2470  0.5797
13940TIP3   OH263310   1.070   0.091  12.678 -0.0676  0.2878 -0.6774
13940TIP3    H163311   1.038   0.032  12.746 -1.1641  2.2943  0.6218
13940TIP3    H263312   1.005   0.084  12.608 -0.7012  0.6335 -0.1325
13941TIP3   OH263313   5.584   5.525  14.712 -0.3351 -0.3347 -0.3482
13941TIP3    H163314   5.614   5.589  14.776 -2.0084  1.2623 -1.0668
13941TIP3    H263315   5.643   5.536  14.637 -0.8104  0.6244 -0.5925
13942TIP3   OH263316   5.166   2.021   4.842 -0.2798  0.3716  0.0448
13942TIP3    H163317   5.134   1.958   4.907 -0.2037 -0.7117 -0.9401
13942TIP3    H263318   5.259   2.000   4.832  0.7875  3.1937  2.5481
13943TIP3   OH263319   1.053   1.997  11.105  0.3330 -0.1959 -0.2642
13943TIP3    H163320   1.028   2.021  11.016 -1.1556  0.8497  0.3974
13943TIP3    H263321   1.086   2.077  11.144 -0.2535 -0.3157  0.5144
13944TIP3   OH263322   1.806   2.197  11.630  0.4780  0.2512 -0.0211
13944TIP3    H163323   1.887   2.189  11.681  0.0488  2.2800  1.0981
13944TIP3    H263324   1.832   2.247  11.553  0.3785  0.5820  0.1570
13945TIP3   OH263325   4.203   0.523   3.155 -0.0919 -0.4215  0.0607
13945TIP3    H163326   4.279   0.564   3.198  1.2574 -1.6448 -1.0621
13945TIP3    H263327   4.201   0.434   3.191  1.4310 -1.6843 -2.6979
13946TIP3   OH263328   3.486   6.318   6.572 -0.3172  0.5942 -0.2239
13946TIP3    H163329   3.540   6.376   6.626 -1.1041  1.3199 -0.1950
13946TIP3    H263330   3.548   6.256   6.533  0.3258  0.2412  1.2584
13947TIP3   OH263331   4.869   6.748   4.763  0.5627 -0.2529 -0.1036
13947TIP3    H163332   4.903   6.717   4.679  0.2378  0.3341 -0.4583
13947TIP3    H263333   4.782   6.781   4.743  1.1688  1.5713  0.1022
13948TIP3   OH263334   4.568   5.483  13.008  0.7473 -0.0606  0.1225
13948TIP3    H163335   4.635   5.482  12.939  0.5550 -0.9134 -0.0614
13948TIP3    H263336   4.485   5.489  12.960  0.5599 -1.5833  0.2154
13949TIP3   OH263337   0.960   5.518   0.834 -0.4126  0.4024  0.8510
13949TIP3    H163338   0.980   5.569   0.756 -1.4685  0.1014  0.3575
13949TIP3    H263339   0.877   5.555   0.866 -0.3161  0.1066  1.4578
13950TIP3   OH263340   1.842   6.570  12.841  0.1434 -1.0768  0.0705
13950TIP3    H163341   1.926   6.528  12.819  1.0672  0.7864 -0.1193
13950TIP3    H263342   1.854   6.599  12.931 -0.1267 -0.3929 -0.1148
13951TIP3   OH263343   0.367   4.617  16.072  0.5226  0.0458 -0.9348
13951TIP3    H163344   0.389   4.613  16.165  0.6429  1.7189 -0.8609
13951TIP3    H263345   0.447   4.649  16.029  0.2921 -0.1644 -1.5381
13952TIP3   OH263346   3.635   5.252   4.027 -0.6128 -0.1439 -0.5816
13952TIP3    H163347   3.710   5.271   4.083 -1.5535  0.6975  0.4533
13952TIP3    H263348   3.607   5.337   3.994 -1.3224 -0.3964 -0.6566
13953TIP3   OH263349   0.157   3.136  16.494  0.2324 -0.2955  0.2227
13953TIP3    H163350   0.095   3.185  16.549  1.9925 -0.0445  2.1176
13953TIP3    H263351   0.241   3.149  16.537  1.3385 -2.0123 -1.3129
13954TIP3   OH263352   4.666   0.364   3.893  0.5180  0.1592  0.3119
13954TIP3    H163353   4.583   0.328   3.863  0.5799  1.9475 -2.2667
13954TIP3    H263354   4.647   0.455   3.913  2.0309  0.9416 -1.5007
13955TIP3   OH263355   3.560   4.433   1.421  0.0863 -0.1589 -0.0428
13955TIP3    H163356   3.626   4.496   1.448  0.3600 -0.2671 -0.4439
13955TIP3    H263357   3.605   4.348   1.425  0.5806 -0.0595 -2.1305
13956TIP3   OH263358   4.046   2.517  12.568  0.7496  0.1892 -0.1563
13956TIP3    H163359   4.040   2.440  12.624 -1.0824 -0.3590 -1.0153
13956TIP3    H263360   3.976   2.574  12.598 -0.2917 -0.1342 -1.8593
13957TIP3   OH263361   1.342   6.047  12.892  0.1711  0.2959  0.5355
13957TIP3    H163362   1.421   6.034  12.840 -1.1207  0.2258 -1.5706
13957TIP3    H263363   1.288   5.971  12.872 -0.9622  0.9957  0.8224
13958TIP3   OH263364   0.579   6.555   2.321 -0.2609 -0.1785 -0.8964
13958TIP3    H163365   0.601   6.558   2.228  1.3246  0.9220 -0.5144
13958TIP3    H263366   0.505   6.616   2.330 -0.3198 -0.1703 -1.4134
13959TIP3   OH263367   3.610   2.098   2.536 -0.1104 -0.5222 -0.3634
13959TIP3    H163368   3.557   2.019   2.545  1.6748 -1.8566 -0.8265
13959TIP3    H263369   3.559   2.155   2.479 -1.8176 -0.9559  0.6607
13960TIP3   OH263370   3.947   1.795   2.318  0.0283  0.0488 -0.7160
13960TIP3    H163371   3.865   1.747   2.328 -0.6282  0.8226 -2.0122
13960TIP3    H263372   3.941   1.866   2.382 -0.7420  0.6321 -1.4151
13961TIP3   OH263373   1.726   6.699  16.783  0.4252 -0.5854 -0.5426
13961TIP3    H163374   1.773   6.625  16.744  1.2524 -0.1372 -0.4366
13961TIP3    H263375   1.720   6.678  16.876  1.6049 -0.0619 -0.3261
13962TIP3   OH263376   3.565   1.375   2.876  0.2537  0.1041 -0.3719
13962TIP3    H163377   3.601   1.303   2.824 -0.4769  0.5656 -1.5645
13962TIP3    H263378   3.641   1.424   2.906  0.6838  0.4908 -2.0074
13963TIP3   OH263379   2.094   2.133   2.806  0.1695 -0.4291  0.6078
13963TIP3    H163380   2.154   2.188   2.756 -0.0638  0.3890  1.2143
13963TIP3    H263381   2.151   2.072   2.852  0.3872 -1.1967 -0.6331
13964TIP3   OH263382   2.506   2.030  13.457  0.4769  0.6123 -0.4401
13964TIP3    H163383   2.561   2.084  13.400 -1.3843  0.8672 -2.1317
13964TIP3    H263384   2.435   2.089  13.484  0.4566  0.0285  0.8557
13965TIP3   OH263385   2.626   1.678  16.165  0.6174 -0.4054  0.0961
13965TIP3    H163386   2.623   1.668  16.070 -0.7404 -0.9439  0.1769
13965TIP3    H263387   2.608   1.770  16.180  0.2687 -0.4321 -0.1475
13966TIP3   OH263388   2.555   6.336   2.445 -0.1055 -0.2053 -0.3508
13966TIP3    H163389   2.523   6.398   2.510 -0.4589 -0.0053 -0.7121
13966TIP3    H263390   2.536   6.377   2.361  0.4866 -0.3932 -0.5823
13967TIP3   OH263391   5.595   4.163  11.101  0.3157 -0.3015 -0.1831
13967TIP3    H163392   5.652   4.177  11.025 -0.4804  0.2881 -0.6808
13967TIP3    H263393   5.642   4.098  11.153  1.3632  0.0238 -0.6723
13968TIP3   OH263394   4.859   5.080  15.391  0.2148  0.4476  0.1766
13968TIP3    H163395   4.866   4.992  15.429  1.7518 -0.2651 -1.6188
13968TIP3    H263396   4.775   5.114  15.424 -0.2919 -1.5749  1.1096
13969TIP3   OH263397   6.789   1.001   2.899 -0.0143  0.3350  0.3442
13969TIP3    H163398   6.777   0.910   2.871  0.6825  0.1096  0.7408
13969TIP3    H263399   6.797   1.050   2.818 -2.7551  0.4237  0.0433
13970TIP3   OH263400   6.068   2.953   3.126  0.3011  0.6216 -0.0400
13970TIP3    H163401   6.023   2.896   3.063 -0.5908  2.4662 -1.1503
13970TIP3    H263402   6.160   2.926   3.121  0.0056 -0.3030 -0.9814
13971TIP3   OH263403   2.897   6.048   4.904 -0.6993  0.0368 -0.1311
13971TIP3    H163404   2.971   6.012   4.855 -1.1710 -1.0828 -0.0398
13971TIP3    H263405   2.849   6.100   4.839 -0.8270 -0.7183 -0.6624
13972TIP3   OH263406   0.402   5.695   1.606 -0.7243 -0.0528 -0.3556
13972TIP3    H163407   0.385   5.759   1.676  0.4728  1.7045 -1.5811
13972TIP3    H263408   0.492   5.665   1.623 -0.9405 -0.7097 -0.3437
13973TIP3   OH263409   1.034   2.366   5.063  0.3657 -0.2284 -0.1563
13973TIP3    H163410   1.004   2.456   5.044 -1.9286 -1.4014 -2.8819
13973TIP3    H263411   1.064   2.333   4.978  2.3489 -1.6989  1.0471
13974TIP3   OH263412   3.966   3.074   2.888 -0.3434  0.0319  0.2366
13974TIP3    H163413   3.944   3.167   2.889  0.1210  0.1403  0.2683
13974TIP3    H263414   4.025   3.064   2.814  0.1960 -0.1032  0.6796
13975TIP3   OH263415   6.077   2.642   3.586  0.1068 -0.0786 -0.1360
13975TIP3    H163416   6.141   2.573   3.566 -0.3945 -0.5627 -0.0834
13975TIP3    H263417   6.054   2.679   3.500 -1.0211 -1.2425 -0.3636
13976TIP3   OH263418   4.677   4.643   1.378 -0.4040  0.7558  0.4306
13976TIP3    H163419   4.665   4.639   1.473  0.4544  1.1369  0.5606
13976TIP3    H263420   4.754   4.590   1.360 -1.0609 -0.0274 -0.1657
13977TIP3   OH263421   3.234   3.264  11.232 -0.0473 -0.4786  0.1809
13977TIP3    H163422   3.243   3.187  11.287  0.0117 -0.1998  0.5654
13977TIP3    H263423   3.173   3.321  11.279  1.2856  0.5004  0.8004
13978TIP3   OH263424   0.446   3.110   1.321  0.1431 -0.0657  0.4736
13978TIP3    H163425   0.469   3.172   1.252 -1.2856 -1.4368 -1.3564
13978TIP3    H263426   0.512   3.123   1.389  1.3371  1.6804 -0.9347
13979TIP3   OH263427   5.503   4.101   2.800 -0.2523  0.3347 -0.6061
13979TIP3    H163428   5.455   4.091   2.717 -1.3584  2.3471 -0.2837
13979TIP3    H263429   5.493   4.194   2.821 -1.6014 -0.4289  2.7220
13980TIP3   OH263430   2.190   5.382  14.109  0.1054 -0.1128  0.3312
13980TIP3    H163431   2.110   5.336  14.131  0.5463 -1.5506 -0.8858
13980TIP3    H263432   2.185   5.394  14.014  1.0305  0.3572  0.3291
13981TIP3   OH263433   2.155   5.665   2.654  0.1595  0.0189  0.3554
13981TIP3    H163434   2.131   5.757   2.651 -0.0131 -0.0403 -0.3609
13981TIP3    H263435   2.178   5.643   2.563  0.0431 -0.6755  0.4839
13982TIP3   OH263436   6.696   1.609   4.122 -0.0838  0.4403  0.2851
13982TIP3    H163437   6.738   1.585   4.039 -1.2209 -1.1530  0.1263
13982TIP3    H263438   6.617   1.655   4.096  1.1638  2.9231  0.5811
13983TIP3   OH263439   1.116   3.405   0.062  0.0426 -0.7925  0.3828
13983TIP3    H163440   1.057   3.331   0.051 -0.7127 -0.1655  0.1218
13983TIP3    H263441   1.203   3.366   0.064 -0.4257 -1.8865  2.1608
13984TIP3   OH263442   2.265   1.094  17.212 -0.5896 -0.6096 -0.5833
13984TIP3    H163443   2.285   1.156  17.142 -0.5307 -0.7221 -0.6666
13984TIP3    H263444   2.170   1.104  17.226 -0.3688  0.4898  0.3580
13985TIP3   OH263445   2.166   0.877   6.672  0.0727 -0.4565 -0.3539
13985TIP3    H163446   2.214   0.905   6.594 -2.5095 -0.4748 -2.0754
13985TIP3    H263447   2.074   0.894   6.651 -0.8656 -2.0437  2.0363
13986TIP3   OH263448   3.990   6.268   2.616 -0.1794  0.1016  0.6338
13986TIP3    H163449   3.965   6.328   2.545  0.5393  0.1840  0.4376
13986TIP3    H263450   3.912   6.217   2.634 -1.0677  1.6280  1.3373
13987TIP3   OH263451   4.961   6.689   3.614  0.5162 -0.2839 -0.0416
13987TIP3    H163452   4.868   6.665   3.618  0.4437 -0.1621 -0.9016
13987TIP3    H263453   4.963   6.780   3.645  0.4986 -0.6247  1.0120
13988TIP3   OH263454   1.409   6.374  15.063 -0.6392  0.6335 -0.7011
13988TIP3    H163455   1.367   6.318  15.128 -0.4095 -0.1325 -1.1988
13988TIP3    H263456   1.462   6.314  15.010 -0.1593  1.3659 -1.0633
13989TIP3   OH263457   6.615   2.275  14.311 -0.0684  0.4909  0.1068
13989TIP3    H163458   6.606   2.180  14.306  0.2027  0.4473  0.3661
13989TIP3    H263459   6.605   2.306  14.221  0.8991  0.1125 -0.1433
13990TIP3   OH263460   4.003   4.120  15.573  0.0116 -0.2186  0.6826
13990TIP3    H163461   3.989   4.025  15.579 -0.7869 -0.1393  0.0656
13990TIP3    H263462   4.080   4.135  15.629 -0.4533 -1.0866  1.5873
13991TIP3   OH263463   0.319   5.079  12.756 -0.1611 -0.8781  0.1763
13991TIP3    H163464   0.319   5.063  12.851  0.4088 -0.8682  0.1810
13991TIP3    H263465   0.372   5.157  12.745 -0.9656 -0.3476 -0.0744
13992TIP3   OH263466   0.748   5.489   2.127 -0.1587 -0.0701  0.0465
13992TIP3    H163467   0.787   5.407   2.098  1.0448  0.8556 -1.0518
13992TIP3    H263468   0.816   5.532   2.178 -0.4857  0.6166 -0.0781
13993TIP3   OH263469   1.807   1.696   4.878 -0.0138 -0.6017  0.0623
13993TIP3    H163470   1.806   1.781   4.923  1.7501 -0.4891 -0.0277
13993TIP3    H263471   1.877   1.705   4.813  0.1194 -2.0803 -0.0184
13994TIP3   OH263472   5.704   4.064  13.488  0.5795 -0.6368  0.4279
13994TIP3    H163473   5.767   4.086  13.419 -0.6087  2.0390  0.0966
13994TIP3    H263474   5.632   4.125  13.476 -1.7189 -2.9408  1.3997
13995TIP3   OH263475   0.048   5.080  15.463  0.1041  0.4562 -0.4092
13995TIP3    H163476   0.043   4.986  15.476 -0.7872  0.4840 -0.5089
13995TIP3    H263477   0.114   5.091  15.395  0.3893 -0.0768 -0.2238
13996TIP3   OH263478   6.190   0.570  14.123  0.5785  0.8443  0.8374
13996TIP3    H163479   6.129   0.618  14.067  0.0038 -0.3029  0.4414
13996TIP3    H263480   6.248   0.637  14.158  0.8095  1.6503 -0.9391
13997TIP3   OH263481   1.875   5.340   1.692 -0.0494  0.1392  0.6743
13997TIP3    H163482   1.817   5.300   1.628  0.6099 -1.9199  1.2752
13997TIP3    H263483   1.832   5.324   1.776 -0.3959  1.8796  0.8516
13998TIP3   OH263484   1.275   5.731   4.935 -0.3331 -0.2375  0.3132
13998TIP3    H163485   1.331   5.718   4.859  0.7252 -2.3439  1.3424
13998TIP3    H263486   1.243   5.820   4.927  4.0968  1.5948  0.2105
13999TIP3   OH263487   6.818   6.029  16.675  0.4906 -0.0350 -0.7573
13999TIP3    H163488   6.881   6.067  16.736 -0.2614  0.5563 -0.3395
13999TIP3    H263489   6.741   6.009  16.729  0.3368 -0.8136 -1.2499
14000TIP3   OH263490   0.151   2.956   4.516  0.3812  0.1754 -0.5728
14000TIP3    H163491   0.108   3.027   4.563  1.9459 -0.3120  1.7456
14000TIP3    H263492   0.115   2.876   4.554  3.1094 -0.2450  1.3952
14001TIP3   OH263493   5.613   3.706  16.888 -0.3488  0.2348  0.0041
14001TIP3    H163494   5.591   3.615  16.868 -1.2625  0.3619  0.3854
14001TIP3    H263495   5.664   3.735  16.812  0.2571 -0.6939  0.0398
14002TIP3   OH263496   5.334   3.218   2.557  0.5002 -0.1460  0.2944
14002TIP3    H163497   5.352   3.303   2.517 -0.1402  0.1784  0.6782
14002TIP3    H263498   5.414   3.166   2.540  1.0186  0.6237  0.3263
14003TIP3   OH263499   6.208   1.545  13.027  0.2144  0.0526  0.0139
14003TIP3    H163500   6.221   1.553  13.122  1.2896 -0.1963 -0.0975
14003TIP3    H263501   6.228   1.453  13.008  0.7678  0.2800 -0.5484
14004TIP3   OH263502   4.806   4.141   5.991 -0.1415  0.0635 -0.3962
14004TIP3    H163503   4.799   4.237   5.996 -0.5403  0.0484 -0.6429
14004TIP3    H263504   4.735   4.115   5.933 -0.0884 -0.3941 -0.2571
14005TIP3   OH263505   3.422   6.197   1.536  0.2895  0.4494  0.2536
14005TIP3    H163506   3.408   6.112   1.577 -0.8005  0.9362  0.9385
14005TIP3    H263507   3.483   6.242   1.596 -1.4577  1.2346  1.5229
14006TIP3   OH263508   1.487   4.095   6.098  1.0372 -0.4698 -0.3476
14006TIP3    H163509   1.565   4.101   6.153  1.1867 -0.3730 -0.5677
14006TIP3    H263510   1.447   4.011   6.122  0.8726 -0.2387  0.2065
14007TIP3   OH263511   4.030   2.340  14.089  0.5429  0.3014  0.0605
14007TIP3    H163512   4.113   2.363  14.048  1.2104 -1.6738  0.1992
14007TIP3    H263513   3.974   2.313  14.016  0.6496 -0.0972  0.1197
14008TIP3   OH263514   4.235   5.032   2.910 -0.1270 -0.0707 -0.6156
14008TIP3    H163515   4.318   4.991   2.932  0.0964  0.5928 -0.2301
14008TIP3    H263516   4.170   4.963   2.926  0.4057 -0.8503 -1.6845
14009TIP3   OH263517   1.032   5.379   4.854  0.0003 -0.3544  0.0163
14009TIP3    H163518   1.117   5.416   4.875 -0.5436 -0.3202  2.5236
14009TIP3    H263519   0.969   5.442   4.888 -1.0310 -0.5931 -1.3839
14010TIP3   OH263520   0.184   0.452   0.201  0.0929 -0.3979  0.4093
14010TIP3    H163521   0.090   0.468   0.192  0.2523 -0.1158 -1.0220
14010TIP3    H263522   0.202   0.464   0.294 -0.8000  2.3856  0.3116
14011TIP3   OH263523   3.567   6.380   5.346  0.1674  0.2946  0.7680
14011TIP3    H163524   3.496   6.409   5.404 -0.8536  0.0223 -0.2943
14011TIP3    H263525   3.547   6.289   5.327  0.2853  0.4712 -0.2631
14012TIP3   OH263526   3.185   1.182   5.661  0.1790 -0.1745 -0.0988
14012TIP3    H163527   3.190   1.139   5.746 -0.4150 -0.1728 -0.0555
14012TIP3    H263528   3.138   1.264   5.679 -1.0971 -0.7638 -0.6374
14013TIP3   OH263529   2.645   3.933  11.431  0.0219  0.1329  0.8537
14013TIP3    H163530   2.604   3.899  11.511 -1.1557 -0.5398 -0.0115
14013TIP3    H263531   2.580   3.993  11.394  0.4921  0.3192  0.3167
14014TIP3   OH263532   6.388   2.530  14.895  0.1496  0.3376  0.2419
14014TIP3    H163533   6.461   2.477  14.863 -1.0747 -1.9344  0.9734
14014TIP3    H263534   6.330   2.540  14.819  0.3712  0.6510  0.1096
14015TIP3   OH263535   0.526   4.586   5.547  0.6240 -0.3881  0.0890
14015TIP3    H163536   0.510   4.675   5.578  0.3970 -0.3783 -0.0543
14015TIP3    H263537   0.579   4.546   5.616 -0.2088 -0.4989  0.6943
14016TIP3   OH263538   4.358   0.935  15.827  0.2128 -0.1269  0.2092
14016TIP3    H163539   4.330   0.843  15.825  0.8682 -0.3350 -2.1473
14016TIP3    H263540   4.453   0.930  15.837  0.1436  0.3598  1.2097
14017TIP3   OH263541   5.101   3.629   1.262  0.3747 -0.4736  0.0581
14017TIP3    H163542   5.160   3.595   1.329  1.3746 -0.1209 -0.6098
14017TIP3    H263543   5.147   3.611   1.179  0.2020  1.0460 -0.3988
14018TIP3   OH263544   2.643   6.529   5.005 -0.1761  0.0227 -0.4415
14018TIP3    H163545   2.699   6.467   5.050  2.5666  1.9979 -0.8611
14018TIP3    H263546   2.554   6.503   5.028  0.9058 -2.7367  1.0157
14019TIP3   OH263547   6.707   5.889  15.841 -0.4219  0.5903  0.5620
14019TIP3    H163548   6.678   5.970  15.882 -1.4369  1.1680 -1.1727
14019TIP3    H263549   6.651   5.880  15.764  0.4568 -1.1587  0.0691
14020TIP3   OH263550   3.141   1.147  12.316 -0.0227  0.1352 -0.1408
14020TIP3    H163551   3.229   1.135  12.282  0.0752  0.2133  0.0833
14020TIP3    H263552   3.096   1.199  12.249  0.5534  1.4291  0.4324
14021TIP3   OH263553   0.872   0.806  12.232 -0.4213 -0.7035 -0.5961
14021TIP3    H163554   0.836   0.731  12.280  1.1663 -0.8500  0.4603
14021TIP3    H263555   0.923   0.767  12.161 -1.6088 -0.5231 -1.5758
14022TIP3   OH263556   0.869   6.101   0.842 -0.0926 -0.2881 -0.2955
14022TIP3    H163557   0.921   6.181   0.851  0.8935 -0.7479 -1.5436
14022TIP3    H263558   0.801   6.124   0.777 -0.8195 -0.0027  0.5477
14023TIP3   OH263559   0.066   6.505  10.359 -0.7195 -0.4681  0.3004
14023TIP3    H163560   0.160   6.486  10.365 -1.0172 -2.4911 -0.6306
14023TIP3    H263561   0.026   6.421  10.338 -2.5736  0.6522 -0.9436
14024TIP3   OH263562   1.083   0.557  15.712  0.0262 -0.7511 -0.2834
14024TIP3    H163563   1.030   0.568  15.633 -2.3608 -0.1972  1.3220
14024TIP3    H263564   1.165   0.603  15.692 -1.2538  1.0182 -1.7572
14025TIP3   OH263565   6.750   6.269   2.310  0.1386  0.4074  0.2231
14025TIP3    H163566   6.723   6.187   2.352  1.5421  0.0454  0.4678
14025TIP3    H263567   6.746   6.334   2.379  3.1205 -0.3168  1.2531
14026TIP3   OH263568   1.698   6.395  10.985 -0.2281 -0.4860  0.6909
14026TIP3    H163569   1.726   6.413  10.895 -0.4344  0.3717  0.7848
14026TIP3    H263570   1.776   6.411  11.038  0.2464 -2.2090  0.5662
14027TIP3   OH263571   4.086   2.896   5.585 -0.3362  0.2968 -0.0084
14027TIP3    H163572   4.166   2.891   5.533 -0.3585  1.5502 -0.2031
14027TIP3    H263573   4.116   2.895   5.676 -0.1310  0.2294 -0.0769
14028TIP3   OH263574   6.078   4.901   2.420  0.0386 -0.1612  0.6838
14028TIP3    H163575   6.128   4.932   2.344 -0.2278 -0.1892  0.4922
14028TIP3    H263576   6.019   4.974   2.441 -1.4499 -0.9364 -0.5230
14029TIP3   OH263577   3.819   3.821   5.729  0.1644  0.2709 -0.0809
14029TIP3    H163578   3.775   3.902   5.701 -0.5979 -0.3764 -0.8046
14029TIP3    H263579   3.749   3.768   5.767  0.6670 -0.0391  0.4202
14030TIP3   OH263580   6.056   2.072  12.679 -0.1902 -0.3517  0.6370
14030TIP3    H163581   6.053   1.996  12.736 -1.5099 -0.1302  0.8805
14030TIP3    H263582   5.990   2.132  12.714  0.8360  0.9305  0.4760
14031TIP3   OH263583   5.170   1.779   5.014  0.1616 -0.5069 -0.1787
14031TIP3    H163584   5.177   1.798   5.108  0.0871 -0.9678 -0.0783
14031TIP3    H263585   5.077   1.758   5.002 -0.4406  2.1893 -0.8575
14032TIP3   OH263586   0.364   4.826  12.665 -0.2115  0.2700  0.1584
14032TIP3    H163587   0.287   4.773  12.682 -0.0955  0.2459  0.6298
14032TIP3    H263588   0.339   4.915  12.691 -0.0945  0.2682  0.2830
14033TIP3   OH263589   0.900   1.875  16.137  0.4244 -0.8582 -0.5119
14033TIP3    H163590   0.833   1.943  16.134  0.7969 -0.3663  1.2169
14033TIP3    H263591   0.980   1.918  16.107  0.4285 -0.8474 -0.4860
14034TIP3   OH263592   1.155   0.506   4.926 -0.2422  0.0351  0.2031
14034TIP3    H163593   1.163   0.593   4.966  1.1257 -0.3953  0.9337
14034TIP3    H263594   1.116   0.522   4.840 -1.1866  1.2279  0.8228
14035TIP3   OH263595   3.373   4.225   4.692 -0.0001  0.2323  0.1688
14035TIP3    H163596   3.302   4.259   4.638 -0.1210  0.8093  0.6877
14035TIP3    H263597   3.430   4.300   4.708  0.6448 -0.1889 -0.1025
14036TIP3   OH263598   1.529   6.723  13.146 -0.1942  0.2821 -0.8914
14036TIP3    H163599   1.525   6.643  13.199  0.1367  2.3883  2.6262
14036TIP3    H263600   1.459   6.711  13.081 -1.5289 -2.0033  0.7947
14037TIP3   OH263601   6.225   1.897   5.610 -1.0999  0.7232 -0.0007
14037TIP3    H163602   6.183   1.944   5.538 -1.8159  1.5205  0.9093
14037TIP3    H263603   6.154   1.847   5.651 -0.7560  0.4916  0.3179
14038TIP3   OH263604   1.190   4.676   0.043  0.3455 -0.5151 -0.0727
14038TIP3    H163605   1.161   4.760   0.007  0.6000  0.0919  1.0802
14038TIP3    H263606   1.281   4.692   0.069  0.7380 -1.4700 -0.7845
14039TIP3   OH263607   1.445   5.567  12.056 -0.2106 -0.0481  0.1743
14039TIP3    H163608   1.426   5.550  11.964 -1.3856  1.8553  0.0209
14039TIP3    H263609   1.412   5.489  12.101 -0.8268 -0.4303 -0.8895
14040TIP3   OH263610   3.628   0.887   2.505  0.0905  0.6532 -0.4191
14040TIP3    H163611   3.619   0.895   2.410  1.0178  0.2029 -0.5549
14040TIP3    H263612   3.584   0.965   2.539  0.3312  1.1681 -1.2463
14041TIP3   OH263613   0.233   1.607  16.043 -0.5756  0.2820  0.2080
14041TIP3    H163614   0.268   1.582  15.958 -0.4980  0.7015  0.1177
14041TIP3    H263615   0.141   1.581  16.040 -0.1854 -1.2378  0.6050
14042TIP3   OH263616   5.362   2.402  14.324 -0.4469 -0.1474 -0.1600
14042TIP3    H163617   5.447   2.373  14.291  0.8226  1.4780  1.4904
14042TIP3    H263618   5.334   2.333  14.384 -0.4399 -0.8051 -0.8918
14043TIP3   OH263619   6.655   2.126  11.316 -0.2358 -0.0318 -0.2899
14043TIP3    H163620   6.621   2.057  11.373  0.1469  1.0203  1.2837
14043TIP3    H263621   6.589   2.196  11.322  0.3912  0.5621 -0.1412
14044TIP3   OH263622   5.095   1.362   0.620 -0.6919 -0.0639  0.4088
14044TIP3    H163623   5.092   1.429   0.552  0.9826  0.7263  1.0558
14044TIP3    H263624   5.183   1.371   0.658 -0.3987 -2.6281  0.5134
14045TIP3   OH263625   2.911   5.481  15.280  0.1447 -0.4805  0.1344
14045TIP3    H163626   2.890   5.403  15.228 -0.0119  1.1893 -2.4819
14045TIP3    H263627   2.999   5.464  15.314  0.4466 -1.5041 -1.0610
14046TIP3   OH263628   6.456   1.747   5.569  0.5278  0.3586  0.0715
14046TIP3    H163629   6.441   1.683   5.500  1.3195  2.1933 -1.9362
14046TIP3    H263630   6.373   1.794   5.577  0.7417  0.8390 -0.4342
14047TIP3   OH263631   3.175   1.341  16.260 -0.2675  0.2047 -0.4152
14047TIP3    H163632   3.180   1.379  16.172  0.1001 -0.0967 -0.5248
14047TIP3    H263633   3.081   1.326  16.273 -0.3357  0.3555 -0.7093
14048TIP3   OH263634   0.889   3.041  13.696  0.0297 -0.2717 -0.4541
14048TIP3    H163635   0.907   3.026  13.603 -1.1691 -0.1173 -0.7197
14048TIP3    H263636   0.832   3.118  13.698 -0.6288 -0.7657  0.3475
14049TIP3   OH263637   6.530   5.718  16.682 -0.4334 -0.0343 -0.2361
14049TIP3    H163638   6.526   5.622  16.687 -0.1692 -0.0116  0.5049
14049TIP3    H263639   6.599   5.735  16.618 -0.6502 -0.3393 -0.5555
14050TIP3   OH263640   6.448   2.546  16.213  0.0733 -0.0395  0.1965
14050TIP3    H163641   6.354   2.560  16.202 -0.6381 -1.3383  3.3249
14050TIP3    H263642   6.483   2.541  16.124 -3.0523 -1.0160 -1.1133
14051TIP3   OH263643   4.134   5.437   0.868 -0.2350  0.6549  0.1167
14051TIP3    H163644   4.080   5.454   0.790 -1.0432  2.4652  1.0193
14051TIP3    H263645   4.200   5.375   0.838 -1.2607  0.3798 -1.7039
14052TIP3   OH263646   3.273   0.355   5.497  0.4857  0.7455 -0.2576
14052TIP3    H163647   3.267   0.406   5.416  0.5039 -0.5427 -1.1011
14052TIP3    H263648   3.366   0.355   5.519  0.5558  0.6414 -0.5484
14053TIP3   OH263649   3.136   0.373  13.096  0.2399  0.0589  0.2845
14053TIP3    H163650   3.179   0.304  13.046 -2.2324 -0.4581 -1.2994
14053TIP3    H263651   3.194   0.449  13.086  2.4561 -1.3902  1.1669
14054TIP3   OH263652   6.674   6.175  16.928 -0.5097  0.3120  0.0825
14054TIP3    H163653   6.733   6.250  16.922  0.8378 -0.6265  1.0128
14054TIP3    H263654   6.602   6.196  16.869  0.4891  1.7362 -0.6810
14055TIP3   OH263655   4.228   1.318   1.288 -0.1002 -0.4729 -1.0458
14055TIP3    H163656   4.202   1.274   1.207  0.3767  0.2093 -1.5811
14055TIP3    H263657   4.291   1.385   1.261 -1.2568  0.9758 -0.3497
14056TIP3   OH263658   6.454   0.823   3.890  0.0176  0.0937  0.0326
14056TIP3    H163659   6.427   0.849   3.802  0.0343 -0.7815 -0.2389
14056TIP3    H263660   6.393   0.754   3.915  1.6350 -1.5698 -0.3931
14057TIP3   OH263661   3.672   6.540  12.820 -0.7050  0.1582  0.3346
14057TIP3    H163662   3.750   6.568  12.868  0.4704 -0.8893 -0.8990
14057TIP3    H263663   3.606   6.607  12.842 -0.0370  0.1317  2.7712
14058TIP3   OH263664   1.199   1.141  12.485 -0.5252  0.7314  0.3607
14058TIP3    H163665   1.146   1.067  12.455 -0.5800  1.1426 -0.6003
14058TIP3    H263666   1.172   1.214  12.429  0.0966  1.2751  0.7573
14059TIP3   OH263667   3.965   2.780  16.316 -0.9591  0.1396 -0.0029
14059TIP3    H163668   3.964   2.872  16.342 -1.5974 -0.4110  2.1338
14059TIP3    H263669   3.874   2.761  16.293 -0.9143 -0.0490 -0.0240
14060TIP3   OH263670   3.403   0.407   1.271  0.1740  0.4406  0.3394
14060TIP3    H163671   3.452   0.381   1.349  0.3054  0.5607  0.2983
14060TIP3    H263672   3.410   0.332   1.211  0.9032  0.7194  0.0545
14061TIP3   OH263673   2.802   2.078   6.847 -0.1556 -0.1710  0.0644
14061TIP3    H163674   2.814   2.147   6.912 -1.3380  0.4391 -0.3382
14061TIP3    H263675   2.774   2.002   6.897  0.9939 -0.3391  0.4915
14062TIP3   OH263676   6.044   5.657  11.378 -0.7939  0.6042 -0.5340
14062TIP3    H163677   6.041   5.579  11.322 -1.4803  0.3540 -0.1666
14062TIP3    H263678   6.021   5.729  11.320  0.2396  0.5979 -0.9695
14063TIP3   OH263679   2.681   4.337   3.924  0.1151  0.3014  0.1957
14063TIP3    H163680   2.747   4.283   3.967 -0.3803  0.0752  0.6808
14063TIP3    H263681   2.723   4.365   3.842  0.0527 -1.5928 -0.5245
14064TIP3   OH263682   0.529   6.736  14.208 -0.7739 -0.1467 -0.6223
14064TIP3    H163683   0.575   6.736  14.292 -1.9821 -0.1509  0.0679
14064TIP3    H263684   0.595   6.761  14.144  0.1081  0.1261  0.3699
14065TIP3   OH263685   5.643   3.654   5.322 -0.1963 -0.1441  0.0950
14065TIP3    H163686   5.645   3.596   5.399  0.8204 -0.4310 -0.1425
14065TIP3    H263687   5.717   3.626   5.269 -0.5153  0.4824 -0.6906
14066TIP3   OH263688   2.283   1.021  14.160 -0.2678 -0.1464 -0.3126
14066TIP3    H163689   2.265   0.970  14.239 -3.8499  1.1706 -0.0728
14066TIP3    H263690   2.338   1.093  14.191  2.0623 -1.9395 -0.0145
14067TIP3   OH263691   6.646   4.370   1.021 -0.4426  0.2600 -0.0212
14067TIP3    H163692   6.666   4.324   0.939 -0.4886  0.0805  0.0687
14067TIP3    H263693   6.554   4.349   1.038 -0.8751  1.5203 -0.7180
14068TIP3   OH263694   0.152   3.946   6.144 -0.0550  0.0646  0.1389
14068TIP3    H163695   0.202   4.000   6.083  0.5596 -1.4766 -0.7687
14068TIP3    H263696   0.186   3.970   6.230 -1.1284  2.4783 -0.0325
14069TIP3   OH263697   4.716   3.941   1.410 -0.4294  0.4395  0.4750
14069TIP3    H163698   4.770   3.902   1.341 -1.2232  0.6346 -0.2807
14069TIP3    H263699   4.761   3.919   1.491 -0.2267 -1.0664 -0.0043
14070TIP3   OH263700   1.686   3.670   1.073  0.4803  0.1772  0.6212
14070TIP3    H163701   1.653   3.618   1.146 -0.3389  1.8299  1.4903
14070TIP3    H263702   1.726   3.747   1.114 -1.5723  2.0376 -0.6205
14071TIP3   OH263703   0.327   5.811  14.977  0.6424 -0.1674 -0.5820
14071TIP3    H163704   0.358   5.724  14.955 -2.2073 -0.6746 -3.3051
14071TIP3    H263705   0.394   5.871  14.943  0.3474 -1.2427 -3.2694
14072TIP3   OH263706   3.652   4.663   0.009  0.0691 -0.1237  0.2801
14072TIP3    H163707   3.620   4.576   0.035 -0.6076 -0.4684 -1.5812
14072TIP3    H263708   3.606   4.723   0.067 -0.3267 -0.9368  0.8326
14073TIP3   OH263709   2.285   1.298  14.860 -0.0090  0.2800 -0.3754
14073TIP3    H163710   2.202   1.299  14.813 -0.1539  1.4210 -0.1414
14073TIP3    H263711   2.261   1.296  14.953  0.1901  1.0665 -0.2932
14074TIP3   OH263712   2.532   5.124  16.407 -0.1123  0.2821  0.6569
14074TIP3    H163713   2.616   5.095  16.442 -0.2453  0.4141  1.0926
14074TIP3    H263714   2.470   5.058  16.437  0.1199 -0.8911 -1.2884
14075TIP3   OH263715   0.165   5.357   5.611  0.1917 -0.2249  0.8567
14075TIP3    H163716   0.154   5.328   5.521 -0.3237  1.3119  0.3903
14075TIP3    H263717   0.084   5.329   5.655  0.3296 -0.7388  0.7968
14076TIP3   OH263718   3.200   4.316   6.520  0.8934  0.2571  0.2947
14076TIP3    H163719   3.196   4.288   6.611  1.2270 -2.0551 -0.3536
14076TIP3    H263720   3.285   4.360   6.512  0.9265  0.3416  1.0330
14077TIP3   OH263721   2.918   6.779  13.711  0.6093  0.7695  0.1553
14077TIP3    H163722   2.866   6.853  13.743  1.0840  0.8332  0.8035
14077TIP3    H263723   2.982   6.817  13.652  1.1765  0.9538  0.8738
14078TIP3   OH263724   2.488   1.332   4.165 -0.5884  0.0442  0.5274
14078TIP3    H163725   2.394   1.310   4.169 -0.3325 -1.2343  0.0070
14078TIP3    H263726   2.532   1.252   4.193  0.3497  1.3587  3.2133
14079TIP3   OH263727   1.475   1.151  16.479 -0.5136 -0.3007  0.6055
14079TIP3    H163728   1.547   1.133  16.419 -0.0841  0.1184  0.9803
14079TIP3    H263729   1.499   1.106  16.560 -0.8707 -0.4914  0.6089
14080TIP3   OH263730   6.079   2.353   3.803  0.7101 -0.3106  0.2071
14080TIP3    H163731   6.149   2.415   3.785  1.3051  0.0109  3.1900
14080TIP3    H263732   6.124   2.269   3.815  0.2095 -0.7721 -1.0096
14081TIP3   OH263733   4.278   6.701   4.331 -0.3292 -0.6262 -0.1230
14081TIP3    H163734   4.216   6.712   4.403 -3.0422 -0.3419 -2.3207
14081TIP3    H263735   4.347   6.765   4.349 -1.6712  0.4555  1.4782
14082TIP3   OH263736   3.448   4.917  12.390 -0.1937 -0.2367 -0.5005
14082TIP3    H163737   3.543   4.905  12.393 -0.4832 -3.3479  0.4414
14082TIP3    H263738   3.418   4.882  12.474 -1.9983  4.2301  0.9985
14083TIP3   OH263739   1.061   0.117   0.461  0.2030  0.0384  0.0700
14083TIP3    H163740   1.070   0.194   0.518  0.3415  0.7297 -0.8464
14083TIP3    H263741   1.146   0.073   0.467 -0.2397 -0.6726  1.4467
14084TIP3   OH263742   4.540   1.068   5.796 -0.3441  0.0130  0.1073
14084TIP3    H163743   4.570   1.135   5.857 -4.4735  2.0350  0.2951
14084TIP3    H263744   4.503   1.000   5.853  0.8747 -0.8694 -0.1301
14085TIP3   OH263745   5.981   0.189  14.816 -0.5636 -0.0884 -0.1321
14085TIP3    H163746   5.904   0.175  14.762 -0.3309  0.9089 -0.7510
14085TIP3    H263747   5.973   0.280  14.847 -0.4071 -0.4568  1.0575
14086TIP3   OH263748   3.270   0.184  12.121  0.2999 -0.2830 -0.2897
14086TIP3    H163749   3.295   0.122  12.189  1.4512  0.8647  0.3581
14086TIP3    H263750   3.314   0.152  12.042  0.6992 -0.4322 -0.0102
14087TIP3   OH263751   1.774   1.815   4.021  0.3114 -0.5192  0.3252
14087TIP3    H163752   1.759   1.903   4.056  2.1009 -0.3311  0.7133
14087TIP3    H263753   1.839   1.776   4.080  1.5049 -1.1362 -1.3254
14088TIP3   OH263754   1.605   2.094   0.057 -0.1766  0.4875  0.2873
14088TIP3    H163755   1.601   2.082  -0.038  0.2950  0.2497  0.2975
14088TIP3    H263756   1.675   2.036   0.086  0.2602  1.1938  0.6833
14089TIP3   OH263757   4.254   2.472   4.725  0.2978 -0.9514 -0.7073
14089TIP3    H163758   4.237   2.383   4.755  0.6917 -1.3546 -1.6296
14089TIP3    H263759   4.167   2.510   4.710  0.1157 -0.9711  0.2513
14090TIP3   OH263760   1.188   1.927  11.878 -0.6827 -0.0338  0.2113
14090TIP3    H163761   1.126   1.981  11.828 -1.7372 -0.8845  0.5561
14090TIP3    H263762   1.155   1.838  11.869  1.1912 -0.6858 -0.5643
14091TIP3   OH263763   6.257   6.031  15.365  0.0697  0.5728 -0.1434
14091TIP3    H163764   6.198   6.038  15.440 -0.0944  1.2222 -0.3217
14091TIP3    H263765   6.201   6.048  15.289 -0.1338 -1.7931 -0.5818
14092TIP3   OH263766   5.548   2.238  16.267 -0.4837  0.0752  0.2042
14092TIP3    H163767   5.584   2.240  16.178 -1.7185  0.0469 -0.3173
14092TIP3    H263768   5.455   2.215  16.255 -0.3031 -1.5860  1.6262
14093TIP3   OH263769   0.294   4.992  16.522 -0.8354 -0.2785  0.6462
14093TIP3    H163770   0.230   4.921  16.524  0.4720 -1.5237  0.1091
14093TIP3    H263771   0.305   5.018  16.614 -2.1463  0.0214  0.7359
14094TIP3   OH263772   0.802   0.546  16.605 -0.4607 -0.4602 -0.1527
14094TIP3    H163773   0.767   0.460  16.582 -1.3814  0.1585 -1.1498
14094TIP3    H263774   0.850   0.574  16.527 -0.6059  0.1446 -0.0348
14095TIP3   OH263775   1.002   6.021   5.267  0.1507  0.1811 -0.3589
14095TIP3    H163776   1.095   6.040   5.250  0.3038 -1.4254 -1.5290
14095TIP3    H263777   0.962   6.021   5.180 -0.5988 -0.7971 -0.0266
14096TIP3   OH263778   2.550   4.397  11.503  0.1602  0.5378  0.3752
14096TIP3    H163779   2.497   4.373  11.427  1.4172 -1.2899 -0.0046
14096TIP3    H263780   2.518   4.483  11.529 -4.3858 -1.1831  1.4271
14097TIP3   OH263781   0.593   4.064   4.219  0.1461  0.5363 -0.0209
14097TIP3    H163782   0.502   4.085   4.242 -0.9035 -1.6617 -1.7882
14097TIP3    H263783   0.621   4.137   4.164 -0.8308  0.8408 -0.1333
14098TIP3   OH263784   2.259   1.322   2.952 -0.2720 -0.0100 -0.1371
14098TIP3    H163785   2.167   1.310   2.976 -0.5132  0.1294 -0.9712
14098TIP3    H263786   2.303   1.244   2.987 -0.5324  0.3944  1.1144
14099TIP3   OH263787   5.775   0.193  15.195 -0.6189 -0.0321  0.2207
14099TIP3    H163788   5.728   0.217  15.116 -0.5747 -0.1531  0.1566
14099TIP3    H263789   5.770   0.270  15.251 -1.3243 -0.2160  0.4185
14100TIP3   OH263790   1.383   1.062  13.029 -0.1400 -0.6639 -0.8008
14100TIP3    H163791   1.313   1.002  13.055 -0.7763  0.2849 -0.2677
14100TIP3    H263792   1.341   1.148  13.026  1.2827  0.1430  0.8133
14101TIP3   OH263793   1.560   5.728  13.296  0.3475  0.2335  0.3149
14101TIP3    H163794   1.486   5.668  13.308  1.1050 -0.4462  1.9498
14101TIP3    H263795   1.540   5.775  13.215 -2.1323  0.4656  0.9683
14102TIP3   OH263796   2.594   1.895   4.961 -0.0861  0.5494  0.1826
14102TIP3    H163797   2.574   1.840   4.885 -1.5247  0.1975  0.7886
14102TIP3    H263798   2.529   1.965   4.957  0.8957  1.4962  0.1723
14103TIP3   OH263799   3.522   0.396  16.484  0.1696 -0.3219 -0.2219
14103TIP3    H163800   3.472   0.391  16.403 -1.0139 -0.6102  0.4957
14103TIP3    H263801   3.555   0.307  16.497 -1.5759 -0.8901  0.7476
14104TIP3   OH263802   6.785   0.351  13.909 -0.0069 -0.5781 -0.9102
14104TIP3    H163803   6.702   0.388  13.881  0.0646  0.3853  0.0795
14104TIP3    H263804   6.832   0.331  13.828 -0.9477 -0.5646 -1.4668
14105TIP3   OH263805   4.396   2.967  14.286 -0.4703 -0.1934  0.0816
14105TIP3    H163806   4.435   3.050  14.259 -1.1062  0.6210  1.5366
14105TIP3    H263807   4.470   2.908  14.301 -0.0292 -0.0080 -1.2681
14106TIP3   OH263808   3.197   2.075  13.609  0.2599 -0.2304  0.5722
14106TIP3    H163809   3.168   1.987  13.583 -1.9582  0.5030  0.3371
14106TIP3    H263810   3.169   2.132  13.538  1.2250  0.7598  0.9473
14107TIP3   OH263811   5.574   4.734  12.869 -0.7709  0.2084 -0.2089
14107TIP3    H163812   5.641   4.712  12.804  0.2729 -0.8725  1.1734
14107TIP3    H263813   5.583   4.828  12.881  1.1891 -0.0412  0.6285
14108TIP3   OH263814   2.390   0.519  16.779 -0.4799 -0.4256  0.1531
14108TIP3    H163815   2.443   0.520  16.859 -1.7461  0.7899  1.0422
14108TIP3    H263816   2.337   0.599  16.785 -0.2078  0.0203 -2.2039
14109TIP3   OH263817   3.366   5.373  14.969 -0.5243  0.0654 -0.0528
14109TIP3    H163818   3.289   5.418  14.932 -1.2251 -0.4011  0.7902
14109TIP3    H263819   3.437   5.436  14.958 -1.4225  1.2917  0.8239
14110TIP3   OH263820   0.840   3.900  15.082 -0.2814 -0.3499 -0.0425
14110TIP3    H163821   0.768   3.844  15.055 -1.2601  0.6622  0.3944
14110TIP3    H263822   0.818   3.927  15.171  0.8352 -0.3296  0.2501
14111TIP3   OH263823   0.906   0.101   4.600 -0.1592 -0.3400 -0.5371
14111TIP3    H163824   0.966   0.108   4.526 -0.4703 -0.7754 -0.8375
14111TIP3    H263825   0.960   0.072   4.673  0.0050 -0.6795 -0.7931
14112TIP3   OH263826   4.806   2.500   5.582 -0.1748 -0.5503  0.9357
14112TIP3    H163827   4.884   2.481   5.634  0.3099 -1.0143  0.0601
14112TIP3    H263828   4.840   2.534   5.499 -0.8624 -1.6421  0.1783
14113TIP3   OH263829   0.543   6.127   0.392  0.1802 -0.6446  0.1360
14113TIP3    H163830   0.467   6.185   0.400 -0.9279 -2.1647  1.3861
14113TIP3    H263831   0.617   6.186   0.377 -1.2642  0.8718 -1.4010
14114TIP3   OH263832   1.068   0.107  13.544 -0.4012  0.3300  0.0672
14114TIP3    H163833   1.103   0.194  13.563 -0.9196  1.2564 -2.7225
14114TIP3    H263834   1.138   0.063  13.495 -1.5879  0.7464 -2.1100
14115TIP3   OH263835   1.970   3.770   5.512 -0.1337  0.5244  0.0899
14115TIP3    H163836   2.048   3.730   5.474 -0.5741  0.1880 -0.4844
14115TIP3    H263837   1.899   3.711   5.488 -0.5931  0.9250  0.4399
14116TIP3   OH263838   1.196   5.175   2.708  0.1312 -0.5013 -0.4422
14116TIP3    H163839   1.255   5.113   2.750  1.2319  1.5097  1.1664
14116TIP3    H263840   1.111   5.158   2.749  1.0187  0.8858  2.2077
14117TIP3   OH263841   2.408   5.986   3.426  0.1862 -0.3878  0.1569
14117TIP3    H163842   2.336   5.941   3.382 -0.0843  1.3893 -1.3371
14117TIP3    H263843   2.367   6.040   3.492 -0.0138  1.3491 -1.3209
14118TIP3   OH263844   0.361   4.725  12.203  0.4371 -0.1140 -0.2896
14118TIP3    H163845   0.456   4.716  12.198  0.6724  2.1962 -1.0729
14118TIP3    H263846   0.347   4.796  12.265 -0.8160 -0.5684 -0.0163
14119TIP3   OH263847   5.475   0.537  10.509  0.1439 -0.0743 -0.7914
14119TIP3    H163848   5.464   0.449  10.545  1.7130 -0.4675 -1.1987
14119TIP3    H263849   5.385   0.569  10.496 -0.5647 -0.0180  3.0255
14120TIP3   OH263850   0.595   2.247  10.870 -0.0160 -0.0885 -0.0347
14120TIP3    H163851   0.659   2.242  10.941  2.0688  2.3850 -1.5968
14120TIP3    H263852   0.601   2.162  10.827  0.8729 -0.5462  0.9455
14121TIP3   OH263853   2.056   5.936  14.021  0.0166  0.4427  0.2134
14121TIP3    H163854   2.080   5.949  13.929  0.0081  2.1642  0.4055
14121TIP3    H263855   2.001   6.012  14.042 -1.0545 -0.5967  1.2920
14122TIP3   OH263856   3.192   0.539  12.209 -0.2765  0.0978 -0.1102
14122TIP3    H163857   3.255   0.562  12.141 -0.2862 -0.4818 -0.3228
14122TIP3    H263858   3.212   0.598  12.282 -0.3124  0.7768 -0.6376
14123TIP3   OH263859   5.664   0.861   0.694  0.1554 -0.0214 -0.2731
14123TIP3    H163860   5.693   0.952   0.689  2.4794 -0.7308 -0.9896
14123TIP3    H263861   5.589   0.857   0.634  1.3194  0.9914 -1.8960
14124TIP3   OH263862   4.619   3.158   4.608 -0.1278  0.1831 -0.0230
14124TIP3    H163863   4.663   3.242   4.595  0.5734  0.0366  1.2540
14124TIP3    H263864   4.526   3.178   4.599  0.1012  0.4999 -2.7967
14125TIP3   OH263865   4.699   0.871  12.266  0.3468 -0.9919  0.5310
14125TIP3    H163866   4.646   0.891  12.344 -0.2293  2.2472 -0.5495
14125TIP3    H263867   4.773   0.931  12.271 -0.1549 -0.0780 -1.7776
14126TIP3   OH263868   3.744   5.317   1.376 -0.1487 -0.3721 -0.1966
14126TIP3    H163869   3.829   5.296   1.413  1.3411 -0.3304 -3.2458
14126TIP3    H263870   3.723   5.241   1.320 -0.2335  1.1588 -2.3773
14127TIP3   OH263871   2.447   4.128   4.670  0.4073 -0.1833  0.4290
14127TIP3    H163872   2.541   4.143   4.663  0.9371 -2.8878  0.8179
14127TIP3    H263873   2.435   4.086   4.755 -1.3710  1.2508  0.9651
14128TIP3   OH263874   5.421   0.284   4.214 -0.0103  0.3033 -0.1540
14128TIP3    H163875   5.420   0.237   4.297  0.0335  1.4731  0.5277
14128TIP3    H263876   5.459   0.369   4.234  1.4951  0.0630 -1.6911
14129TIP3   OH263877   0.765   1.651   0.645  0.3155 -0.5994  0.2788
14129TIP3    H163878   0.688   1.600   0.619  0.6914  0.0151 -2.3036
14129TIP3    H263879   0.731   1.717   0.705 -1.1221 -0.6083 -0.4795
14130TIP3   OH263880   0.078   5.527   4.657  0.2403  0.2021 -0.1817
14130TIP3    H163881   0.084   5.562   4.746  0.0776  2.8088 -1.1086
14130TIP3    H263882  -0.011   5.545   4.629  0.4876  0.0650 -1.1219
14131TIP3   OH263883   5.920   2.933   1.005 -0.0881  0.2861  0.4823
14131TIP3    H163884   5.905   3.000   0.938  0.5376  0.9785  1.0204
14131TIP3    H263885   6.015   2.920   1.006 -0.2266 -0.8623  0.1573
14132TIP3   OH263886   4.891   6.148  12.961  0.2156  0.7000 -0.3902
14132TIP3    H163887   4.979   6.146  12.924  0.0331  0.0239 -0.7920
14132TIP3    H263888   4.905   6.134  13.055  0.4415 -0.9044 -0.6370
14133TIP3   OH263889   4.972   5.560  13.280  0.1979  0.6788 -0.0651
14133TIP3    H163890   4.917   5.623  13.328 -1.2907  0.1670 -1.0409
14133TIP3    H263891   4.910   5.499  13.242  1.5957 -1.2081  0.5543
14134TIP3   OH263892   3.097   4.361  13.120  0.5775 -0.7401  0.0146
14134TIP3    H163893   3.143   4.375  13.203  0.9582 -2.3345  0.1022
14134TIP3    H263894   3.144   4.417  13.057  0.0711  0.7496  0.9063
14135TIP3   OH263895   4.172   5.759  13.818 -0.2016  0.3871  0.7877
14135TIP3    H163896   4.101   5.697  13.835  1.2768 -1.9585 -0.9499
14135TIP3    H263897   4.139   5.815  13.747  0.2783 -2.0565 -1.5396
14136TIP3   OH263898   5.879   3.748  13.244  0.0228  0.0451  0.3466
14136TIP3    H163899   5.952   3.686  13.235  0.0269 -0.2041  1.8778
14136TIP3    H263900   5.921   3.831  13.268 -0.1234  0.1818  0.1350
14137TIP3   OH263901   1.932   0.370  12.737  0.2941 -0.3283 -0.1583
14137TIP3    H163902   1.992   0.299  12.712 -0.0914 -1.0245  0.8622
14137TIP3    H263903   1.958   0.393  12.826 -0.9782 -0.6817  0.3228
14138TIP3   OH263904   0.536   1.093   5.755  0.1377  0.1138 -0.2838
14138TIP3    H163905   0.511   1.140   5.835 -0.3321  2.1969 -1.5712
14138TIP3    H263906   0.616   1.136   5.725 -1.0223  1.0972 -2.2113
14139TIP3   OH263907   0.292   0.857  15.952 -0.2528 -0.2809  0.2958
14139TIP3    H163908   0.305   0.834  16.044  1.6023 -1.7586 -0.2654
14139TIP3    H263909   0.376   0.895  15.925 -0.9033  0.4923 -0.7116
14140TIP3   OH263910   2.016   1.495   0.184  0.4379 -0.3915  0.1341
14140TIP3    H163911   2.014   1.405   0.154 -0.1428 -0.4386  0.3057
14140TIP3    H263912   1.930   1.530   0.161  0.2131 -0.2384  1.1406
14141TIP3   OH263913   6.071   3.015  16.672 -0.1832  0.0351  0.5009
14141TIP3    H163914   6.106   3.101  16.694  1.1222  0.5685 -2.9604
14141TIP3    H263915   6.147   2.957  16.669 -0.6602 -0.5969  0.1526
14142TIP3   OH263916   0.505   2.992   1.827 -0.0382  0.0666  0.1979
14142TIP3    H163917   0.573   2.928   1.849 -0.5629 -0.3111  0.7593
14142TIP3    H263918   0.451   2.947   1.763  0.1203  0.2932 -0.0970
14143TIP3   OH263919   5.410   0.898   3.945 -0.4340 -1.0071  0.1577
14143TIP3    H163920   5.358   0.976   3.925  1.6111  0.3387 -0.1590
14143TIP3    H263921   5.411   0.848   3.863 -2.8108 -2.1005  0.7071
14144TIP3   OH263922   6.482   0.320  16.655 -0.2767  0.0467  0.0114
14144TIP3    H163923   6.525   0.391  16.703  1.6454 -1.1900  0.2287
14144TIP3    H263924   6.432   0.273  16.722 -2.0299  1.4595 -0.2327
14145TIP3   OH263925   5.199   6.416   3.352 -0.2937 -0.2187 -0.8221
14145TIP3    H163926   5.144   6.493   3.365  0.6436  0.1733  1.2920
14145TIP3    H263927   5.288   6.450   3.345  0.1130 -1.0695 -0.0694
14146TIP3   OH263928   2.268   6.172   1.510 -0.1555 -0.7409  0.2817
14146TIP3    H163929   2.361   6.181   1.491  0.2619 -3.5664  0.5479
14146TIP3    H263930   2.225   6.227   1.445  1.6572 -0.2415 -0.5587
14147TIP3   OH263931   4.127   2.493  17.131  0.3950  0.5351  0.0044
14147TIP3    H163932   4.112   2.533  17.045 -0.7196 -1.6284 -0.8963
14147TIP3    H263933   4.145   2.401  17.112 -3.8962 -1.0193  2.1360
14148TIP3   OH263934   5.202   0.511   5.575 -0.0971  0.1651 -0.0061
14148TIP3    H163935   5.249   0.441   5.620  0.9875  0.9118  0.0629
14148TIP3    H263936   5.173   0.569   5.645 -1.1551 -0.2922 -0.0483
14149TIP3   OH263937   6.315   2.215   3.149 -0.2874 -0.7028 -0.1340
14149TIP3    H163938   6.299   2.192   3.241  0.8381  0.4077  0.3666
14149TIP3    H263939   6.367   2.143   3.114 -1.9314 -1.8447 -0.3421
14150TIP3   OH263940   1.465   2.675   4.549 -0.7134 -0.3001  0.1077
14150TIP3    H163941   1.526   2.702   4.481  3.1384 -0.0647  3.2631
14150TIP3    H263942   1.446   2.755   4.598 -0.7264 -0.9421  1.1948
14151TIP3   OH263943   2.248   2.831  12.095 -0.0350 -0.5180  0.0019
14151TIP3    H163944   2.304   2.908  12.102  0.1962 -0.7246  0.4429
14151TIP3    H263945   2.200   2.843  12.012 -0.2959  0.2925  0.2643
14152TIP3   OH263946   3.949   1.893   0.427  0.1202  0.5921 -0.5875
14152TIP3    H163947   4.043   1.890   0.448 -0.3270  0.5399  1.6561
14152TIP3    H263948   3.905   1.879   0.511 -1.9181  0.1476 -1.6667
14153TIP3   OH263949   1.048   0.088   6.506  0.7218 -0.3929  0.6409
14153TIP3    H163950   0.997   0.068   6.427 -0.8811 -1.6282  1.9096
14153TIP3    H263951   1.139   0.085   6.476  0.1431  0.1717 -1.3563
14154TIP3   OH263952   5.679   0.390   4.841  0.3093  0.5234  0.1769
14154TIP3    H163953   5.684   0.375   4.935  0.3957 -2.0618 -0.1584
14154TIP3    H263954   5.768   0.414   4.816  0.1771  1.7126  0.8058
14155TIP3   OH263955   5.765   6.823  15.490 -0.2451 -0.2597  0.3429
14155TIP3    H163956   5.713   6.817  15.410  0.8796  1.5113 -0.5898
14155TIP3    H263957   5.853   6.845  15.460  0.4823 -0.7100  2.0163
14156TIP3   OH263958   6.583   1.205   1.261 -0.4314  0.0897 -0.1335
14156TIP3    H163959   6.590   1.145   1.187  0.4236  0.5659 -0.4504
14156TIP3    H263960   6.631   1.163   1.332  0.0932  0.3643 -0.3287
14157TIP3   OH263961   0.773   0.632  17.248  0.1142 -0.4608 -0.0792
14157TIP3    H163962   0.750   0.544  17.277  2.3772 -0.6085  1.5084
14157TIP3    H263963   0.814   0.618  17.162 -0.7441 -0.7886 -0.4434
14158TIP3   OH263964   1.869   6.457  15.613 -0.0056  0.0677 -0.4059
14158TIP3    H163965   1.963   6.456  15.593  0.1721 -1.2645  0.3543
14158TIP3    H263966   1.830   6.400  15.546  0.1543 -1.7276  0.9454
14159TIP3   OH263967   2.827   1.589   0.599 -0.1711 -0.1237 -0.3675
14159TIP3    H163968   2.910   1.569   0.643  0.5136  4.3137  0.7945
14159TIP3    H263969   2.833   1.544   0.515  1.9453 -2.5012  0.8958
14160TIP3   OH263970   5.075   1.842  11.053 -0.0136  0.7950 -0.0023
14160TIP3    H163971   4.997   1.860  11.105  0.4889  0.2226  0.9803
14160TIP3    H263972   5.141   1.818  11.117  0.2694 -1.2122 -0.9679
14161TIP3   OH263973   5.232   4.321  12.268  0.0187  0.1262  0.3908
14161TIP3    H163974   5.310   4.269  12.249  0.4038  1.1698 -1.1366
14161TIP3    H263975   5.264   4.412  12.270 -1.1006  0.5546 -0.0678
14162TIP3   OH263976   1.913   1.489  10.739  0.0521  0.4454  0.1400
14162TIP3    H163977   1.820   1.496  10.761 -0.0899  0.4663 -0.4616
14162TIP3    H263978   1.943   1.580  10.730  0.1026  0.4353  0.2006
14163TIP3   OH263979   1.053   4.042  16.686  0.0473  0.1321 -0.0268
14163TIP3    H163980   0.983   4.044  16.620  1.0980  2.1816 -1.1644
14163TIP3    H263981   1.064   4.133  16.712  1.4891 -0.3143  1.0268
14164TIP3   OH263982   5.330   5.351   4.015 -0.4054 -0.1298 -0.3514
14164TIP3    H163983   5.410   5.305   4.039 -2.5843 -3.5472  1.1739
14164TIP3    H263984   5.327   5.426   4.075  0.9528 -0.7445  0.5479
14165TIP3   OH263985   1.048   6.081  12.899  0.2417  0.2642  0.3503
14165TIP3    H163986   1.122   6.138  12.881  0.1932  0.7916  1.7333
14165TIP3    H263987   1.084   6.009  12.949  0.2723 -0.9018 -1.2542
14166TIP3   OH263988   4.987   6.158  14.909  0.3904 -0.2035  0.6095
14166TIP3    H163989   4.908   6.206  14.935  0.5511 -0.4753  1.6799
14166TIP3    H263990   5.026   6.211  14.840 -0.2236  0.4310  0.7368
14167TIP3   OH263991   0.810   4.335   2.852  0.3077  0.0715  0.1700
14167TIP3    H163992   0.811   4.258   2.795 -1.0467  0.4769 -0.4409
14167TIP3    H263993   0.721   4.337   2.887  0.1909  1.6176 -0.1800
14168TIP3   OH263994   1.027   2.861  12.971 -0.3763  1.1458  0.7685
14168TIP3    H163995   1.064   2.798  13.032 -0.7425  1.0861  0.9319
14168TIP3    H263996   1.086   2.860  12.896  0.8622  2.2183  1.6661
14169TIP3   OH263997   2.057   5.599   3.787  0.7498  0.7592 -0.0563
14169TIP3    H163998   2.153   5.601   3.779  0.7372 -0.0220 -0.5484
14169TIP3    H263999   2.037   5.508   3.811  0.0566  0.5754 -1.2471
14170TIP3   OH264000   3.064   2.437  15.176  0.2531  0.2673 -0.2097
14170TIP3    H164001   3.048   2.492  15.253 -1.3265  1.1135 -1.0986
14170TIP3    H264002   3.088   2.352  15.212 -1.6957  0.2820  1.2731
14171TIP3   OH264003   0.103   6.179   3.690  0.7022 -0.0812  0.8307
14171TIP3    H164004   0.075   6.269   3.673 -0.7179 -0.7835 -0.8847
14171TIP3    H264005   0.086   6.166   3.783 -0.5129  0.9497  0.7823
14172TIP3   OH264006   0.281   0.953   5.999  0.3090  0.0882 -0.0823
14172TIP3    H164007   0.248   0.889   6.061  0.8115  0.5386  0.6629
14172TIP3    H264008   0.242   1.036   6.027  1.6642  0.5455  0.5207
14173TIP3   OH264009   5.059   2.671   1.689 -0.1844 -0.2177 -0.0013
14173TIP3    H164010   5.046   2.660   1.783  0.9861  1.5377  0.3954
14173TIP3    H264011   5.103   2.590   1.662 -0.4871 -0.7221  0.9643
14174TIP3   OH264012   3.312   5.414  11.102  0.1252  0.1441  0.4113
14174TIP3    H164013   3.297   5.368  11.019  1.2213 -1.2881  0.9781
14174TIP3    H264014   3.259   5.367  11.166 -0.1105  0.7655  0.6826
14175TIP3   OH264015   2.968   4.400  11.113 -0.2536  0.4212  0.4724
14175TIP3    H164016   2.984   4.319  11.065 -2.9200  1.1301 -1.9044
14175TIP3    H264017   3.022   4.465  11.070  1.4975  0.1186  2.0598
14176TIP3   OH264018   5.890   0.705  13.571  0.2276  0.2345 -0.4386
14176TIP3    H164019   5.925   0.635  13.515  0.8325 -0.8166  1.1836
14176TIP3    H264020   5.856   0.659  13.648 -0.2376  1.6746  0.2481
14177TIP3   OH264021   3.566   6.750  14.812  0.4081 -0.0904  0.3838
14177TIP3    H164022   3.547   6.735  14.719  0.1179 -1.0819  0.5917
14177TIP3    H264023   3.574   6.846  14.820 -0.4319  0.0641 -0.4916
14178TIP3   OH264024   0.585   1.941  16.064 -0.9104 -0.3099 -0.5809
14178TIP3    H164025   0.491   1.924  16.054 -1.3150  0.1628  1.8359
14178TIP3    H264026   0.607   1.904  16.149  0.9040  0.3826 -0.7176
14179TIP3   OH264027   2.026   5.383   2.706 -0.1068 -0.0576 -0.5309
14179TIP3    H164028   2.071   5.379   2.790 -1.7040 -0.8492  0.3264
14179TIP3    H264029   2.097   5.384   2.641  1.1366 -1.1128  0.7513
14180TIP3   OH264030   2.470   6.524  16.640 -0.2008  0.1003 -0.1181
14180TIP3    H164031   2.475   6.586  16.713  0.5685 -0.5988  0.4362
14180TIP3    H264032   2.530   6.560  16.574  1.6391 -0.9519  0.9177
14181TIP3   OH264033   4.703   0.889  10.906  0.3184 -0.9499 -0.0437
14181TIP3    H164034   4.643   0.895  10.981  1.2483  0.1303  0.6400
14181TIP3    H264035   4.699   0.797  10.881  0.6558 -1.5486  1.9036
14182TIP3   OH264036   6.094   2.415  16.277  0.1140 -0.0555  0.4068
14182TIP3    H164037   6.031   2.346  16.297  1.0806 -0.9462  0.4384
14182TIP3    H264038   6.170   2.370  16.241  1.2174  0.8583  1.4757
14183TIP3   OH264039   3.362   1.979  16.895  0.1825 -0.1822  0.1424
14183TIP3    H164040   3.386   1.950  16.808 -1.1461 -1.0506  0.0372
14183TIP3    H264041   3.416   1.927  16.954  1.8944  1.1880 -0.1416
14184TIP3   OH264042   1.552   1.035  13.252  0.5505 -0.0966  0.0556
14184TIP3    H164043   1.524   0.955  13.297 -0.5143  1.2507  1.9496
14184TIP3    H264044   1.501   1.036  13.171  0.3026 -1.1466  0.1863
14185TIP3   OH264045   3.179   6.629  12.825 -0.0863 -0.0305 -0.0207
14185TIP3    H164046   3.119   6.570  12.778 -0.7180  0.8154 -0.2922
14185TIP3    H264047   3.124   6.671  12.891 -0.4771  2.6993 -1.9305
14186TIP3   OH264048   6.624   4.634  14.154 -0.2242 -0.0011  0.0592
14186TIP3    H164049   6.675   4.617  14.233 -1.0770 -1.4108  0.3343
14186TIP3    H264050   6.533   4.638  14.184 -0.4761  0.4506 -0.7170
14187TIP3   OH264051   6.522   2.216   0.084 -0.1012  0.2197  0.4155
14187TIP3    H164052   6.564   2.299   0.064 -0.5184  0.4724  0.5799
14187TIP3    H264053   6.575   2.179   0.155  1.2245 -0.5593 -0.9309
14188TIP3   OH264054   2.927   6.824  14.373 -0.2391  0.1730 -0.3056
14188TIP3    H164055   2.860   6.792  14.313 -0.6102  0.6856 -0.1779
14188TIP3    H264056   3.002   6.766  14.359 -0.4531  0.0492 -0.9851
14189TIP3   OH264057   6.015   2.293  14.426  0.4022  0.5110  0.0726
14189TIP3    H164058   6.080   2.294  14.356 -1.8447 -0.8744 -2.1622
14189TIP3    H264059   6.013   2.202  14.455 -1.5839  0.1759 -0.9940
14190TIP3   OH264060   4.767   5.762   0.587 -0.0754  0.0037 -0.5104
14190TIP3    H164061   4.853   5.764   0.629  0.4985 -0.2391 -1.6363
14190TIP3    H264062   4.781   5.712   0.506 -1.4281 -0.6158 -0.3820
14191TIP3   OH264063   1.004   2.342  10.584 -0.1739  0.6734 -0.4946
14191TIP3    H164064   0.985   2.435  10.594 -1.7971  0.3526 -0.4604
14191TIP3    H264065   0.935   2.308  10.528  0.5781 -0.4619 -0.7844
14192TIP3   OH264066   1.642   5.427  16.160  0.2314 -0.0168 -0.4218
14192TIP3    H164067   1.715   5.375  16.125  0.8569  1.0849 -0.8232
14192TIP3    H264068   1.564   5.377  16.137  0.8123 -0.7834 -0.7784
14193TIP3   OH264069   4.815   5.873  17.286 -0.0397 -0.4794  0.4049
14193TIP3    H164070   4.894   5.885  17.339  0.7144  0.0759 -0.8263
14193TIP3    H264071   4.821   5.783  17.254  1.9855  0.6123 -2.6201
14194TIP3   OH264072   4.177   4.549   2.542  0.1567  0.0878  0.4552
14194TIP3    H164073   4.260   4.588   2.570 -0.3867  2.5456 -1.0314
14194TIP3    H264074   4.202   4.487   2.474  0.8510  0.3189  0.4871
14195TIP3   OH264075   2.360   3.981   4.054 -0.1066 -0.1726  0.1844
14195TIP3    H164076   2.267   3.967   4.074 -0.6181  3.3740  1.0245
14195TIP3    H264077   2.369   3.952   3.963 -2.3666  0.4441 -0.3142
14196TIP3   OH264078   5.017   6.218  13.686 -0.0339  0.4914 -0.2761
14196TIP3    H164079   4.954   6.289  13.702  0.7773  0.9824  0.8561
14196TIP3    H264080   4.986   6.177  13.605 -0.2406  2.4641 -1.2871
14197TIP3   OH264081   5.561   0.530   1.082 -0.6519  0.3564 -0.0277
14197TIP3    H164082   5.511   0.492   1.154 -0.2885 -0.6220 -0.2730
14197TIP3    H264083   5.495   0.563   1.021 -0.9961 -0.2780 -0.0094
14198TIP3   OH264084   0.171   5.218   5.384 -0.0925  0.1447 -0.1379
14198TIP3    H164085   0.243   5.254   5.332 -0.5017  1.1576 -0.0254
14198TIP3    H264086   0.148   5.136   5.339 -0.7239  1.1971 -1.8630
14199TIP3   OH264087   6.230   5.638  13.994  0.2565 -0.4978 -0.5761
14199TIP3    H164088   6.256   5.583  14.068  0.4287 -0.3926 -0.5582
14199TIP3    H264089   6.168   5.701  14.032  2.4203  1.3572  0.1014
14200TIP3   OH264090   4.894   2.291  14.684 -0.1427 -0.2172  0.2864
14200TIP3    H164091   4.852   2.211  14.653  0.5049 -0.6975  0.6215
14200TIP3    H264092   4.827   2.333  14.738 -0.9042  0.0847 -0.8473
14201TIP3   OH264093   3.692   6.273  13.530 -0.7400  0.0428  0.2040
14201TIP3    H164094   3.599   6.270  13.551 -0.8965 -3.2280 -0.3770
14201TIP3    H264095   3.695   6.275  13.435 -0.4617 -3.7511 -0.0464
14202TIP3   OH264096   1.868   6.798   4.701  0.2353 -0.1338  0.0753
14202TIP3    H164097   1.818   6.727   4.660  0.3894 -0.0748 -0.2167
14202TIP3    H264098   1.954   6.794   4.659 -0.0512  0.8426 -0.6469
14203TIP3   OH264099   0.926   1.318   3.905  0.5277  0.1626 -0.4569
14203TIP3    H164100   0.963   1.304   3.992 -0.0136 -1.4627 -0.4523
14203TIP3    H264101   0.884   1.403   3.910  0.1735 -0.0733  0.9951
14204TIP3   OH264102   1.534   4.115   3.560  0.3248  0.1412  0.0182
14204TIP3    H164103   1.604   4.052   3.544 -0.7827 -1.3768  0.8566
14204TIP3    H264104   1.455   4.070   3.531 -0.2805  2.0464 -1.4885
14205TIP3   OH264105   4.470   2.257  13.319  0.1573  0.6570  0.8666
14205TIP3    H164106   4.504   2.173  13.349  0.1462  0.3983  0.1672
14205TIP3    H264107   4.539   2.320  13.342  0.5236  0.3341  0.6591
14206TIP3   OH264108   1.010   3.372   1.981 -0.0443  0.0289 -0.9816
14206TIP3    H164109   1.087   3.331   1.941 -0.4503 -0.3398 -1.3879
14206TIP3    H264110   0.975   3.305   2.039 -1.6026 -0.7910 -2.7896
14207TIP3   OH264111   5.531   4.980   1.490  0.3739 -0.1417 -0.6522
14207TIP3    H164112   5.460   5.043   1.493  0.8300  0.3484  0.7485
14207TIP3    H264113   5.579   5.001   1.410 -0.2680  0.4008 -0.8975
14208TIP3   OH264114   0.058   2.423   0.113  0.2840  0.1057  0.4666
14208TIP3    H164115   0.060   2.488   0.183  0.3389  0.1912  0.3860
14208TIP3    H264116   0.128   2.450   0.053  1.6391 -1.1357  1.4241
14209TIP3   OH264117   5.488   2.635  11.710 -0.1227  0.1481 -0.6189
14209TIP3    H164118   5.480   2.720  11.666  0.8074  0.9563  0.7211
14209TIP3    H264119   5.551   2.650  11.781 -0.8426 -1.3596  0.3888
14210TIP3   OH264120   0.779   1.583  14.060  0.2434 -0.0960  0.3068
14210TIP3    H164121   0.706   1.635  14.026  1.7018  0.7758 -1.7261
14210TIP3    H264122   0.836   1.647  14.102  1.8269 -0.0203 -1.7980
14211TIP3   OH264123   1.144   3.564  14.081  0.3640  0.2891 -0.7030
14211TIP3    H164124   1.061   3.567  14.035 -0.3279 -0.6202  0.4357
14211TIP3    H264125   1.164   3.471  14.089 -0.4767  0.2584  2.3506
14212TIP3   OH264126   5.136   6.276  16.211 -0.0002 -0.3508  0.4471
14212TIP3    H164127   5.149   6.255  16.304 -0.1908  0.3720  0.6424
14212TIP3    H264128   5.064   6.218  16.183 -0.8542  0.3670  1.1022
14213TIP3   OH264129   3.736   3.241   4.171 -0.3219 -0.8078 -0.2750
14213TIP3    H164130   3.657   3.292   4.190 -0.5031  0.2227 -3.3077
14213TIP3    H264131   3.808   3.296   4.201 -0.6066  0.4408 -1.7702
14214TIP3   OH264132   0.180   2.081  15.577  0.0716  0.4308 -0.2762
14214TIP3    H164133   0.200   1.999  15.622  0.0785  0.1001 -0.8709
14214TIP3    H264134   0.263   2.127  15.574 -0.4569  1.8667  2.7506
14215TIP3   OH264135   5.641   5.522  16.516 -0.1855  0.6947 -0.4250
14215TIP3    H164136   5.735   5.507  16.508 -0.3225 -0.8773  0.3964
14215TIP3    H264137   5.604   5.489  16.435 -0.0300  1.5235 -0.8451
14216TIP3   OH264138   0.859   1.836   3.298 -0.9125 -0.3420 -0.1285
14216TIP3    H164139   0.807   1.772   3.346 -0.7234  0.0409  0.6037
14216TIP3    H264140   0.948   1.801   3.299 -1.0801 -0.8515 -1.1280
14217TIP3   OH264141   6.526   0.478  17.105  0.0005 -0.6560 -0.6325
14217TIP3    H164142   6.555   0.549  17.163  0.5306 -0.7805 -0.7455
14217TIP3    H264143   6.579   0.489  17.026 -1.7898  0.4841 -1.7494
14218TIP3   OH264144   1.201   6.360  16.927 -0.6966  0.0764 -0.2332
14218TIP3    H164145   1.207   6.441  16.877  2.1138  0.9850  1.4111
14218TIP3    H264146   1.154   6.384  17.007  0.0064  0.0635  0.1897
14219TIP3   OH264147   3.756   4.274   4.272  0.0433  0.1114  0.1724
14219TIP3    H164148   3.814   4.279   4.196 -1.6353  0.9824 -1.1549
14219TIP3    H264149   3.768   4.186   4.306  0.6295 -0.4297 -1.3257
14220TIP3   OH264150   1.026   1.048  13.449  0.3303  0.3364  0.5229
14220TIP3    H164151   0.977   1.118  13.493 -0.3244  0.8452 -0.9350
14220TIP3    H264152   1.110   1.088  13.427 -0.4774  1.1128 -1.3665
14221TIP3   OH264153   3.711   2.948   1.990 -0.1842 -0.1534  0.2344
14221TIP3    H164154   3.703   2.865   1.944 -2.1480 -0.5799  1.2747
14221TIP3    H264155   3.799   2.945   2.028  1.2072 -0.1335 -2.6551
14222TIP3   OH264156   5.578   6.659   5.560 -0.3570 -0.0598 -0.3295
14222TIP3    H164157   5.610   6.570   5.576 -1.2462 -0.4631 -0.7036
14222TIP3    H264158   5.619   6.683   5.476 -1.0031 -0.5718 -0.8075
14223TIP3   OH264159   3.729   0.601  11.480  0.2778  0.4759  0.2920
14223TIP3    H164160   3.713   0.520  11.430  0.4497  0.2946  0.5306
14223TIP3    H264161   3.642   0.626  11.513 -0.3096  1.9264 -2.0907
14224TIP3   OH264162   3.754   6.410  16.101  0.4432  0.3015  0.0938
14224TIP3    H164163   3.815   6.336  16.106 -1.2951 -1.2267  0.0463
14224TIP3    H264164   3.808   6.487  16.119  2.2688 -1.0056  0.5593
14225TIP3   OH264165   4.451   4.073  15.733  0.0191  0.2330  1.1445
14225TIP3    H164166   4.506   4.060  15.810 -0.5702 -0.0246  1.5279
14225TIP3    H264167   4.489   4.017  15.665  0.0134 -0.2291  1.5183
14226TIP3   OH264168   6.078   5.472  14.972  0.5129  0.1962  0.4891
14226TIP3    H164169   5.988   5.497  14.952  0.7677  2.2962  1.7527
14226TIP3    H264170   6.131   5.520  14.908  0.7623 -1.6148 -0.7478
14227TIP3   OH264171   1.579   2.593   0.165  0.5739  0.1217  0.2212
14227TIP3    H164172   1.669   2.605   0.137  0.1894 -0.2281 -1.2250
14227TIP3    H264173   1.550   2.682   0.188  0.0593  1.0138 -3.2752
14228TIP3   OH264174   6.764   1.649  15.189 -0.6405 -0.1605  0.0261
14228TIP3    H164175   6.679   1.615  15.218 -0.6202 -1.4778 -1.3317
14228TIP3    H264176   6.750   1.744  15.180 -1.6206 -0.2047  0.9117
14229TIP3   OH264177   2.621   6.143   0.859  0.2097  0.3263 -0.1774
14229TIP3    H164178   2.626   6.067   0.800  0.2655 -0.1571  0.4369
14229TIP3    H264179   2.553   6.199   0.821 -0.8623 -0.7217  0.1290
14230TIP3   OH264180   2.265   4.235  14.146 -0.1725 -0.3983  0.3937
14230TIP3    H164181   2.288   4.233  14.053 -1.4541  0.4281  0.0432
14230TIP3    H264182   2.343   4.271  14.189  0.3437 -0.5658 -0.3747
14231TIP3   OH264183   3.046   4.234   0.526 -0.0048  0.0474  0.6465
14231TIP3    H164184   2.956   4.237   0.557 -0.1576 -0.6811  0.2843
14231TIP3    H264185   3.099   4.246   0.605 -0.4089 -0.2589  0.9660
14232TIP3   OH264186   5.118   0.182  15.960 -0.0137 -0.0116 -0.2470
14232TIP3    H164187   5.209   0.172  15.987  0.0431 -1.1916 -0.7996
14232TIP3    H264188   5.118   0.262  15.906  1.2319 -1.3261 -2.3310
14233TIP3   OH264189   2.632   1.816  13.282 -0.4895 -0.7271 -0.3315
14233TIP3    H164190   2.570   1.870  13.332 -0.2256 -0.1000 -0.6698
14233TIP3    H264191   2.587   1.800  13.198  0.1991  0.5831 -0.9766
14234TIP3   OH264192   1.225   0.371   2.424 -0.0622 -0.2395  0.4809
14234TIP3    H164193   1.216   0.434   2.353 -0.8279 -1.7094 -0.7808
14234TIP3    H264194   1.264   0.293   2.383 -0.2763 -1.0444  1.7248
14235TIP3   OH264195   0.135   2.638  11.638  0.0181 -0.4266 -0.4152
14235TIP3    H164196   0.081   2.629  11.559  1.3873  0.8942 -1.5641
14235TIP3    H264197   0.104   2.718  11.679 -0.7113 -1.1256  0.4636
14236TIP3   OH264198   4.905   5.015  11.859  0.3427 -0.2846  0.4868
14236TIP3    H164199   4.831   5.073  11.875 -0.4905 -0.7122 -1.5243
14236TIP3    H264200   4.911   4.961  11.938 -1.2637  0.0068  0.8288
14237TIP3   OH264201   5.360   0.668  16.568  0.0496 -0.0757 -0.0699
14237TIP3    H164202   5.283   0.703  16.524  1.5205  2.3896 -0.8719
14237TIP3    H264203   5.385   0.737  16.630  0.6355 -1.5786  1.4441
14238TIP3   OH264204   6.280   1.479  12.665  0.1643 -0.0886  0.0997
14238TIP3    H164205   6.192   1.474  12.703  0.6197 -1.4191  1.0401
14238TIP3    H264206   6.321   1.396  12.689  1.7031  0.5368 -0.2853
14239TIP3   OH264207   2.323   4.027  16.420  0.1064  0.3694 -0.2017
14239TIP3    H164208   2.277   4.090  16.476  0.8508  0.4497  0.3365
14239TIP3    H264209   2.401   4.003  16.470  0.5813  0.1307 -1.0365
14240TIP3   OH264210   1.509   1.507  13.828 -0.2846  0.1852 -0.3203
14240TIP3    H164211   1.462   1.572  13.880  0.6108 -1.1082  2.2658
14240TIP3    H264212   1.592   1.549  13.806  0.2293  0.0261  1.2101
14241TIP3   OH264213   1.231   1.337   0.827  0.1416 -0.1567  0.1247
14241TIP3    H164214   1.264   1.288   0.902  0.3554  0.0549  0.1696
14241TIP3    H264215   1.232   1.428   0.855  0.6367 -0.0302 -0.2841
14242TIP3   OH264216   0.717   3.161  15.748 -0.0255  0.6826 -0.1539
14242TIP3    H164217   0.704   3.148  15.842 -2.4242  1.8989 -0.2337
14242TIP3    H264218   0.687   3.250  15.732 -1.5157 -0.1277 -2.3273
14243TIP3   OH264219   3.413   4.032  12.187  0.3124  0.3852 -0.0315
14243TIP3    H164220   3.470   4.016  12.262  0.9443  0.8050 -0.4084
14243TIP3    H264221   3.331   4.062  12.225  0.3154 -0.2913  0.5251
14244TIP3   OH264222   0.795   5.638  15.196  0.2874  0.3173  0.7581
14244TIP3    H164223   0.712   5.684  15.214  0.0405  1.1454 -1.9595
14244TIP3    H264224   0.801   5.638  15.100  3.7352  0.8012  0.8584
14245TIP3   OH264225   2.559   0.902  12.519 -0.3642 -0.4519  0.7847
14245TIP3    H164226   2.491   0.891  12.585  0.1309 -1.4745  1.1443
14245TIP3    H264227   2.624   0.958  12.562 -0.7736  0.1762  0.5930
14246TIP3   OH264228   1.956   0.847  10.650  0.6117  0.3956  0.0072
14246TIP3    H164229   2.018   0.776  10.631 -0.4342  0.1420 -3.1181
14246TIP3    H264230   1.871   0.805  10.648 -0.0020  1.6020 -1.4765
14247TIP3   OH264231   1.213   0.247  12.871  0.6466 -0.1128 -0.0100
14247TIP3    H164232   1.157   0.196  12.812 -1.2838  0.7284  1.0440
14247TIP3    H264233   1.156   0.275  12.942  2.3012  1.2051  0.8828
14248TIP3   OH264234   0.198   0.384   0.472 -0.0119 -0.5609  0.4463
14248TIP3    H164235   0.200   0.409   0.565  0.7236  0.0422  0.2749
14248TIP3    H264236   0.263   0.315   0.464  0.5413 -0.0166  0.2148
14249TIP3   OH264237   0.935   1.699   2.515  0.0157  0.2363 -0.0945
14249TIP3    H164238   0.949   1.745   2.433 -1.0116 -0.5004 -0.7010
14249TIP3    H264239   0.851   1.731   2.548  0.1790  0.1632  0.4172
14250TIP3   OH264240   4.026   2.055   2.925  0.3507  0.0465 -0.1185
14250TIP3    H164241   4.066   2.087   2.844 -2.0721  1.2364 -0.9364
14250TIP3    H264242   3.995   1.967   2.903  1.8121 -0.6131  0.3179
14251TIP3   OH264243   4.403   1.153  17.267  0.0679 -0.0129 -0.6918
14251TIP3    H164244   4.360   1.172  17.350  0.8007 -0.2743 -0.2410
14251TIP3    H264245   4.348   1.196  17.201  1.6394  3.8176  0.2411
14252TIP3   OH264246   1.745   3.765  13.262  0.0210 -0.1522  0.0010
14252TIP3    H164247   1.718   3.788  13.172  2.1794  1.3794 -0.3463
14252TIP3    H264248   1.705   3.833  13.316 -0.5696 -0.5738  0.1022
14253TIP3   OH264249   1.798   0.045   1.462  0.3253  0.0052 -0.2583
14253TIP3    H164250   1.843   0.121   1.499 -0.3618 -0.5323  1.7665
14253TIP3    H264251   1.750   0.081   1.387  0.4660  1.4454  0.3046
14254TIP3   OH264252   4.695   3.077   5.000  0.9486  0.1058 -0.3985
14254TIP3    H164253   4.714   3.067   5.093  0.9832 -0.8389 -0.4949
14254TIP3    H264254   4.782   3.087   4.960  0.8745  1.6334 -0.2234
14255TIP3   OH264255   2.914   4.100  15.117 -0.2662  0.0417 -0.2647
14255TIP3    H164256   2.976   4.154  15.068 -2.6609  1.6104 -1.7222
14255TIP3    H264257   2.882   4.036  15.054  0.7667 -1.6692  0.8385
14256TIP3   OH264258   1.768   3.773  13.616  0.2720 -0.1393 -0.5328
14256TIP3    H164259   1.675   3.754  13.626  0.3465  0.6615  3.0235
14256TIP3    H264260   1.810   3.687  13.618 -0.2852 -0.4591 -1.4736
14257TIP3   OH264261   5.211   3.095  10.913  0.2130  1.3975 -0.2795
14257TIP3    H164262   5.177   3.157  10.979  2.6344  0.9843  1.4859
14257TIP3    H264263   5.188   3.009  10.948  2.3802  1.1384  0.6381
14258TIP3   OH264264   2.828   3.330  11.284 -0.2989 -0.5532 -0.0089
14258TIP3    H164265   2.847   3.383  11.208 -1.8184  0.1249  0.0562
14258TIP3    H264266   2.834   3.390  11.358  0.5156 -1.0622  0.3623
14259TIP3   OH264267   3.828   5.184  15.978  0.1040 -0.3364  0.5272
14259TIP3    H164268   3.859   5.155  15.892  0.5015  2.2051 -0.2660
14259TIP3    H264269   3.804   5.275  15.966  1.3395  0.4985  3.4042
14260TIP3   OH264270   0.584   0.567   5.305 -0.1810  1.0161  0.3747
14260TIP3    H164271   0.586   0.661   5.323 -0.0060  0.9680  0.6150
14260TIP3    H264272   0.626   0.528   5.381 -0.4164  0.7297  0.3553
14261TIP3   OH264273   1.073   0.293  11.770  0.1247  0.5680  0.3059
14261TIP3    H164274   1.136   0.288  11.697 -0.7443  0.7146 -0.4754
14261TIP3    H264275   1.112   0.240  11.839  0.4817 -0.4383 -0.6371
14262TIP3   OH264276   5.428   1.247  15.323  0.3486  0.2915  0.1783
14262TIP3    H164277   5.389   1.165  15.292 -0.6868  1.1258 -0.7774
14262TIP3    H264278   5.522   1.238  15.304  0.0572 -0.1524 -1.1154
14263TIP3   OH264279   4.697   2.744  13.700  0.2278  0.3540 -0.1560
14263TIP3    H164280   4.696   2.771  13.792  1.0800 -0.6537  0.1756
14263TIP3    H264281   4.675   2.823  13.651  2.7944  1.7362  0.7508
14264TIP3   OH264282   0.604   2.722  12.304  0.3679  0.1571 -0.6096
14264TIP3    H164283   0.679   2.771  12.338  0.5053 -0.3615 -0.1607
14264TIP3    H264284   0.632   2.631  12.306  0.6609  0.1385 -2.7898
14265TIP3   OH264285   0.537   6.591   4.136  0.3749 -0.1280  0.3525
14265TIP3    H164286   0.543   6.565   4.044  0.8934  0.0374  0.3333
14265TIP3    H264287   0.457   6.643   4.141 -0.5732 -1.5525  0.3577
14266TIP3   OH264288   0.163   0.638  14.551  0.2693 -0.4233  0.0008
14266TIP3    H164289   0.161   0.733  14.556  1.8459 -0.3467 -0.2884
14266TIP3    H264290   0.074   0.611  14.572 -0.5818  1.1747 -1.3258
14267TIP3   OH264291   1.978   2.077  16.096  0.1284  0.0047 -0.2343
14267TIP3    H164292   1.913   2.143  16.119  0.0888 -0.4589  1.0778
14267TIP3    H264293   2.033   2.120  16.030  0.8342  1.7963  1.4397
14268TIP3   OH264294   0.569   1.933   0.455  0.2686  0.2603 -0.0433
14268TIP3    H164295   0.548   1.842   0.476 -0.5082  0.1512 -1.1860
14268TIP3    H264296   0.494   1.983   0.485  0.1917  0.3769 -0.4175
14269TIP3   OH264297   6.667   1.206   3.653  0.1583  0.4521 -0.3664
14269TIP3    H164298   6.616   1.224   3.574 -1.0678  0.0892  0.3232
14269TIP3    H264299   6.612   1.149   3.705  0.2831  1.8933  1.4411
14270TIP3   OH264300   6.227   4.959   2.180 -0.1385 -0.8715  0.1112
14270TIP3    H164301   6.180   4.947   2.097  0.2270 -0.6507 -0.1314
14270TIP3    H264302   6.319   4.968   2.154 -0.0066 -0.9313  0.5530
14271TIP3   OH264303   0.430   0.905   2.346 -0.2493  0.4578 -0.0716
14271TIP3    H164304   0.393   0.858   2.272 -0.3978 -0.1855  0.4030
14271TIP3    H264305   0.515   0.863   2.361  0.3364  1.4050 -0.6534
14272TIP3   OH264306   0.788   0.283  11.819  0.0138 -0.2854  0.1752
14272TIP3    H164307   0.774   0.237  11.736 -0.6999 -1.7576  1.0718
14272TIP3    H264308   0.883   0.278  11.833 -0.0296 -1.4683  0.2118
14273TIP3   OH264309   4.703   0.595   3.132  0.0828 -0.3813  0.0556
14273TIP3    H164310   4.706   0.602   3.227  0.6668  0.3898 -0.0134
14273TIP3    H264311   4.791   0.618   3.103 -0.5502  1.1543 -0.7725
14274TIP3   OH264312   0.414   0.529   3.404  0.3814  0.1032 -0.1587
14274TIP3    H164313   0.493   0.477   3.410 -0.2324 -1.2090 -2.2980
14274TIP3    H264314   0.441   0.609   3.358  0.3048 -0.8289 -1.8914
14275TIP3   OH264315   0.551   2.768   3.893  0.5151  0.5849  0.2928
14275TIP3    H164316   0.580   2.832   3.959 -0.0752  3.1702 -1.7654
14275TIP3    H264317   0.475   2.809   3.852  0.3877 -1.2645 -1.4629
14276TIP3   OH264318   6.808   6.603  13.733 -0.1883 -0.6123 -0.2779
14276TIP3    H164319   6.754   6.635  13.806  1.9581  1.7236  0.4536
14276TIP3    H264320   6.770   6.643  13.655  1.7925  3.2450  0.5101
14277TIP3   OH264321   0.168   3.331   2.736 -0.2707  0.5279 -0.0242
14277TIP3    H164322   0.208   3.418   2.730 -0.6034  0.5765 -1.9768
14277TIP3    H264323   0.111   3.336   2.813  0.6846  1.6043  0.6485
14278TIP3   OH264324   2.006   5.228   4.711  0.0971 -0.1978 -0.1583
14278TIP3    H164325   1.989   5.141   4.748  1.3783  0.5268  2.3174
14278TIP3    H264326   2.078   5.214   4.650  2.3418 -0.5119  2.3995
14279TIP3   OH264327   2.133   0.750  11.453 -0.0080 -0.0442  0.3405
14279TIP3    H164328   2.157   0.664  11.417  1.5660  0.5508 -0.0869
14279TIP3    H264329   2.188   0.812  11.406 -2.0808  1.3914 -0.3462
14280TIP3   OH264330   4.514   6.644  12.034 -0.5777 -0.1022 -0.0117
14280TIP3    H164331   4.607   6.667  12.031 -0.1907 -1.3117  1.3235
14280TIP3    H264332   4.489   6.632  11.943 -0.4689  3.9450 -0.7622
14281TIP3   OH264333   2.122   5.015  13.455 -0.5379  0.4408  0.6457
14281TIP3    H164334   2.214   5.009  13.431 -0.6664  0.6606  0.0885
14281TIP3    H264335   2.077   4.960  13.391 -0.4850 -2.4769  2.9142
14282TIP3   OH264336   1.802   3.401   0.990 -0.2373 -0.1310 -0.3223
14282TIP3    H164337   1.749   3.326   0.965 -1.0495  0.1828  0.3987
14282TIP3    H264338   1.741   3.459   1.037  0.4206  0.8671 -0.6658
14283TIP3   OH264339   5.920   5.804  13.127 -0.5898 -0.1198  0.1028
14283TIP3    H164340   5.826   5.813  13.115 -0.4917 -1.0627 -1.9786
14283TIP3    H264341   5.957   5.885  13.091 -0.5310 -0.7930 -1.4252
14284TIP3   OH264342   6.443   4.804   2.566  0.0529 -0.4957  0.1090
14284TIP3    H164343   6.499   4.788   2.490 -1.3871  1.4771 -1.4861
14284TIP3    H264344   6.363   4.755   2.547  1.2444 -3.8272  2.6689
14285TIP3   OH264345   2.344   3.002   7.100  0.2323 -0.6692 -0.4754
14285TIP3    H164346   2.298   2.973   7.179 -0.1097 -1.1229 -0.8281
14285TIP3    H264347   2.307   2.947   7.030 -0.6900  0.8656 -1.2456
14286TIP3   OH264348   2.403   3.371   3.470 -0.2177 -0.4314  0.1411
14286TIP3    H164349   2.312   3.388   3.443 -0.1762 -0.6821 -0.1709
14286TIP3    H264350   2.395   3.318   3.549 -0.3485 -0.9854 -0.2348
14287TIP3   OH264351   1.325   0.675  15.660 -0.0924 -0.7947 -0.5504
14287TIP3    H164352   1.361   0.701  15.576  0.7455  0.0274  0.0482
14287TIP3    H264353   1.394   0.692  15.723 -1.1538 -0.1613  0.4926
14288TIP3   OH264354   2.259   6.705  16.531  0.0871 -0.2571 -0.3879
14288TIP3    H164355   2.231   6.692  16.441 -0.7019  0.2886 -0.2328
14288TIP3    H264356   2.314   6.628  16.551 -0.6735 -0.9617 -0.9535
14289TIP3   OH264357   2.707   4.731  17.025 -0.0600 -0.1744 -0.1120
14289TIP3    H164358   2.781   4.773  17.070  0.7432 -0.8627 -0.7593
14289TIP3    H264359   2.733   4.639  17.017 -1.6419 -0.7453  0.9647
14290TIP3   OH264360   3.756   6.400   4.932  0.3354 -0.0870 -0.9314
14290TIP3    H164361   3.661   6.394   4.933  0.3692 -1.0103 -1.7434
14290TIP3    H264362   3.774   6.491   4.909 -0.4203 -0.5806 -3.9939
14291TIP3   OH264363   2.322   3.748  15.928 -0.3631 -0.1308 -0.1202
14291TIP3    H164364   2.241   3.707  15.960  0.4389 -0.7370  1.2083
14291TIP3    H264365   2.383   3.675  15.916  0.3128  0.4210 -0.1074
14292TIP3   OH264366   4.376   0.744   5.206 -0.3809 -0.0613  0.4457
14292TIP3    H164367   4.346   0.693   5.130  0.7432  1.0200 -0.7938
14292TIP3    H264368   4.356   0.834   5.183  1.0822  0.3980  0.8763
14293TIP3   OH264369   6.157   1.129   2.376 -0.0938 -0.0865  0.1065
14293TIP3    H164370   6.090   1.097   2.316 -0.7161  1.2364  0.0752
14293TIP3    H264371   6.114   1.198   2.426  0.6952 -0.5150  1.4292
14294TIP3   OH264372   1.903   3.548   6.799  0.1450  0.7228 -0.3334
14294TIP3    H164373   1.894   3.456   6.775  1.6080  0.0839  1.3695
14294TIP3    H264374   1.990   3.573   6.770 -0.5768  1.8852 -1.6257
14295TIP3   OH264375   2.961   0.287  11.156 -0.0022 -0.1301  0.1291
14295TIP3    H164376   2.996   0.221  11.097 -1.2689 -0.2336 -0.5398
14295TIP3    H264377   3.035   0.346  11.173  0.0868  0.6510 -2.5915
14296TIP3   OH264378   5.881   5.702   0.219  0.2243  0.1964  0.4150
14296TIP3    H164379   5.867   5.776   0.277 -1.5108  0.2048  0.0579
14296TIP3    H264380   5.831   5.630   0.259 -1.0013  0.2056 -0.9946
14297TIP3   OH264381   1.811   5.470  15.489  0.5620  0.4494 -0.8264
14297TIP3    H164382   1.814   5.551  15.439 -0.5226  0.7221 -0.4797
14297TIP3    H264383   1.784   5.497  15.577  2.4012 -0.0167 -0.0481
14298TIP3   OH264384   0.646   2.576   1.243 -0.0755 -0.3917  0.1730
14298TIP3    H164385   0.657   2.608   1.333  0.1377  0.4870 -0.1573
14298TIP3    H264386   0.635   2.656   1.191  1.0396 -0.8139 -0.7502
14299TIP3   OH264387   6.747   1.690  11.317  0.1868  0.6145  0.5638
14299TIP3    H164388   6.790   1.608  11.339  0.1924  0.5469  0.3107
14299TIP3    H264389   6.811   1.738  11.265  0.1576  0.7488  0.6508
14300TIP3   OH264390   3.769   0.173  12.338 -0.5943 -0.5234 -0.3576
14300TIP3    H164391   3.834   0.116  12.379 -1.9740 -1.8897 -0.0086
14300TIP3    H264392   3.748   0.238  12.406 -0.2786 -0.6240 -0.1599
14301TIP3   OH264393   5.896   6.378   1.006 -0.0039 -0.1168  0.0924
14301TIP3    H164394   5.910   6.376   0.911  0.1741  0.9549  0.0808
14301TIP3    H264395   5.876   6.470   1.025 -0.5255 -0.4086  1.0310
14302TIP3   OH264396   5.096   0.846  15.514 -0.1009  0.1406 -0.6306
14302TIP3    H164397   5.096   0.761  15.558  0.7321 -0.0928 -1.0702
14302TIP3    H264398   5.072   0.827  15.424 -2.0872  0.6578 -0.2717
14303TIP3   OH264399   2.642   6.643   2.740  0.5118 -0.5723 -0.2592
14303TIP3    H164400   2.655   6.679   2.828  0.4705  1.8125 -1.1616
14303TIP3    H264401   2.731   6.627   2.707  0.5612 -0.4590 -0.1812
14304TIP3   OH264402   1.767   3.129  13.468  0.6804  0.0841 -0.3710
14304TIP3    H164403   1.767   3.151  13.561 -0.9918 -1.8856  0.1833
14304TIP3    H264404   1.704   3.190  13.428  1.2319  0.7845 -0.1797
14305TIP3   OH264405   6.426   0.000  12.558 -0.1739 -0.0352 -0.2209
14305TIP3    H164406   6.348  -0.013  12.506 -0.4648  1.3843 -0.1837
14305TIP3    H264407   6.498  -0.030  12.503 -0.6342 -0.1844 -0.7405
14306TIP3   OH264408   0.726   4.593   2.902  0.3867 -0.1881  0.0676
14306TIP3    H164409   0.730   4.612   2.996 -1.7793 -0.6568  0.3129
14306TIP3    H264410   0.762   4.505   2.893 -0.5377 -0.6452  0.6694
14307TIP3   OH264411   4.007   3.225   4.633 -0.3988  0.2881  0.0833
14307TIP3    H164412   3.995   3.134   4.660  0.1881  0.2811  0.3286
14307TIP3    H264413   4.050   3.267   4.708  0.3662  0.4988 -0.4591
14308TIP3   OH264414   2.508   5.279  11.455  0.0611 -0.1260  0.2362
14308TIP3    H164415   2.570   5.287  11.527  0.3154 -0.0073  0.0056
14308TIP3    H264416   2.541   5.207  11.402 -0.3533 -0.4842  0.4575
14309TIP3   OH264417   5.740   1.489   4.605  0.1513  0.1017  0.3531
14309TIP3    H164418   5.828   1.514   4.578 -0.0925  0.8855  0.2726
14309TIP3    H264419   5.691   1.479   4.523  0.4121 -1.3356  0.3413
14310TIP3   OH264420   2.648   3.931   1.131  0.9732 -0.2707 -0.0020
14310TIP3    H164421   2.651   3.852   1.077  0.2432  0.1551 -0.6945
14310TIP3    H264422   2.563   3.970   1.111  1.7263  1.2070 -0.4048
14311TIP3   OH264423   5.185   6.202   1.702 -0.3174  0.0132 -0.0682
14311TIP3    H164424   5.211   6.180   1.613  1.5462  0.7761  0.2555
14311TIP3    H264425   5.242   6.150   1.758 -0.7119  0.3671  0.6856
14312TIP3   OH264426   5.545   1.479  15.968  0.0391  0.0825  0.4803
14312TIP3    H164427   5.570   1.393  16.004 -0.7458  1.2669  4.3635
14312TIP3    H264428   5.455   1.466  15.937  1.0213 -1.1875 -2.2097
14313TIP3   OH264429   6.378   5.035   4.028  0.7545  0.0578  0.2771
14313TIP3    H164430   6.431   4.971   4.076 -0.2709  0.5181  2.1130
14313TIP3    H264431   6.443   5.092   3.985  1.7213 -0.6186  0.7975
14314TIP3   OH264432   4.500   2.924  15.197  0.2967  0.1858 -0.0135
14314TIP3    H164433   4.527   2.989  15.262  0.8023  0.8008 -0.8178
14314TIP3    H264434   4.579   2.873  15.179 -0.3099 -1.2941  1.2975
14315TIP3   OH264435   5.747   3.114  11.193  0.2308 -0.1365  0.4284
14315TIP3    H164436   5.668   3.120  11.140  1.4441  0.0817 -1.4609
14315TIP3    H264437   5.776   3.205  11.202  0.4416 -0.2422  0.8153
14316TIP3   OH264438   3.588   4.913   5.928 -0.4297 -0.0769 -0.3685
14316TIP3    H164439   3.618   4.861   6.003  1.4549  1.2961 -0.0818
14316TIP3    H264440   3.648   4.889   5.857 -1.4278 -0.4509 -1.1082
14317TIP3   OH264441   6.242   1.312   0.582  0.3766 -0.5294  0.4356
14317TIP3    H164442   6.202   1.226   0.569 -0.3000  0.0375 -1.5458
14317TIP3    H264443   6.193   1.350   0.656 -0.8124 -1.0088 -0.0748
14318TIP3   OH264444   5.568   5.612   5.737  0.3593  0.2314  0.4752
14318TIP3    H164445   5.601   5.691   5.695  0.7299  0.2185  0.7351
14318TIP3    H264446   5.634   5.591   5.804  1.4043 -1.5485 -1.0327
14319TIP3   OH264447   4.715   2.583   3.999  0.4194  0.4898  0.7384
14319TIP3    H164448   4.732   2.675   3.978  0.1190  0.3651 -0.0827
14319TIP3    H264449   4.792   2.554   4.047  1.1618  0.7774 -0.2512
14320TIP3   OH264450   4.101   4.687  10.788 -0.3405 -0.3315 -0.0951
14320TIP3    H164451   4.062   4.708  10.703 -0.5712  1.2473  0.3661
14320TIP3    H264452   4.195   4.699  10.775 -0.3769 -0.0742 -0.1426
14321TIP3   OH264453   4.106   6.554   4.996  0.1711 -0.0960  0.6679
14321TIP3    H164454   4.169   6.561   4.924 -0.7740 -0.9903 -0.2660
14321TIP3    H264455   4.161   6.537   5.073  1.1409  0.0940  0.0428
14322TIP3   OH264456   2.962   0.509  13.809  0.0324 -0.1526 -0.1775
14322TIP3    H164457   2.911   0.449  13.864  0.2744  1.1136  1.5134
14322TIP3    H264458   2.912   0.590  13.808  0.0345 -0.1322 -1.8931
14323TIP3   OH264459   2.486   0.540  11.141  0.5775 -0.4414  0.1794
14323TIP3    H164460   2.506   0.467  11.200  0.6174 -1.2629 -0.8156
14323TIP3    H264461   2.394   0.560  11.158  0.4420 -1.0217  0.1724
14324TIP3   OH264462   6.215   0.569   1.995  0.4571 -0.0947 -0.4735
14324TIP3    H164463   6.173   0.649   1.963  0.0631 -0.4691 -0.9090
14324TIP3    H264464   6.231   0.586   2.088  1.0349  0.7653 -0.7168
14325TIP3   OH264465   3.187   2.686   5.670 -0.2721 -0.1098 -0.6680
14325TIP3    H164466   3.099   2.655   5.652  0.3521 -1.3820 -1.6652
14325TIP3    H264467   3.208   2.652   5.757 -0.7064  0.1073 -0.4746
14326TIP3   OH264468   6.259   6.383  16.598  0.1039 -0.4660  0.2776
14326TIP3    H164469   6.304   6.298  16.604 -1.3378 -1.2355  0.6799
14326TIP3    H264470   6.188   6.377  16.662  0.5898  1.4565  1.0510
14327TIP3   OH264471   4.863   6.612  12.221 -0.4512  0.1548 -0.0986
14327TIP3    H164472   4.958   6.624  12.221 -0.3730 -0.2982  1.5499
14327TIP3    H264473   4.841   6.594  12.312 -1.9158 -1.4028 -0.7214
14328TIP3   OH264474   2.979   3.034  14.657  0.5410  0.1032 -0.0762
14328TIP3    H164475   2.885   3.027  14.676  0.6634 -0.4229  0.3726
14328TIP3    H264476   2.985   3.037  14.562  0.1006 -0.4509 -0.1235
14329TIP3   OH264477   6.589   2.338   2.213 -0.0129  0.4073  1.1070
14329TIP3    H164478   6.531   2.270   2.178  0.1565  0.4833  0.6770
14329TIP3    H264479   6.637   2.293   2.283 -0.6963  0.3887  1.5656
14330TIP3   OH264480   5.149   1.297   1.343  0.0564 -0.5989 -0.6491
14330TIP3    H164481   5.109   1.252   1.268 -1.1840 -0.4044 -0.1333
14330TIP3    H264482   5.074   1.331   1.392  0.9013  1.7369 -0.8341
14331TIP3   OH264483   4.193   3.260  14.983  0.0222  0.4201  0.1120
14331TIP3    H164484   4.193   3.284  14.890  0.8126  2.3719  0.5766
14331TIP3    H264485   4.282   3.231  15.001 -0.1462 -0.0148  0.2526
14332TIP3   OH264486   6.752   2.855   6.220  0.5415 -0.2611  0.3680
14332TIP3    H164487   6.768   2.813   6.305  0.5680  0.2469  0.6226
14332TIP3    H264488   6.673   2.908   6.234  0.6042 -0.0954  0.1076
14333TIP3   OH264489   6.443   1.632  11.544  0.2308  0.5233  0.3056
14333TIP3    H164490   6.386   1.646  11.619  1.9518  1.1888  1.5730
14333TIP3    H264491   6.400   1.564  11.493  1.1963 -3.7027  4.4210
14334TIP3   OH264492   5.467   1.255  14.701 -0.2206 -0.2089  0.0623
14334TIP3    H164493   5.457   1.201  14.622 -1.9192  0.5487 -0.2897
14334TIP3    H264494   5.536   1.212  14.751 -0.2125 -1.6060 -1.0882
14335TIP3   OH264495   1.139   3.560   4.951  0.6183  0.0296 -0.1849
14335TIP3    H164496   1.207   3.496   4.929  1.2672  0.6648 -0.0447
14335TIP3    H264497   1.172   3.605   5.029  1.4347  2.3792 -1.7996
14336TIP3   OH264498   0.438   5.321  12.987  0.2384  0.2946 -0.4838
14336TIP3    H164499   0.492   5.298  12.912  0.7242  1.0136 -0.3632
14336TIP3    H264500   0.465   5.260  13.056 -0.4343 -0.5778 -0.9732
14337TIP3   OH264501   5.079   3.031   6.434 -0.4089 -0.0593 -0.2544
14337TIP3    H164502   5.054   3.074   6.352  1.3257  1.0045 -0.2771
14337TIP3    H264503   5.075   2.938   6.414 -2.6944  0.0616 -0.6836
14338TIP3   OH264504   2.930   0.784  14.231  0.1547 -0.0599 -0.5554
14338TIP3    H164505   2.986   0.849  14.274 -0.4690  0.8640 -1.1098
14338TIP3    H264506   2.878   0.835  14.169 -2.7792 -0.5368  1.3285
14339TIP3   OH264507   6.461   6.534  14.990 -0.2341  0.1709  0.9165
14339TIP3    H164508   6.498   6.449  15.014  0.6024  0.0333 -0.6755
14339TIP3    H264509   6.515   6.597  15.037 -1.4529 -0.1578  2.8550
14340TIP3   OH264510   4.866   1.892  12.592 -0.4873 -0.2991  0.2817
14340TIP3    H164511   4.791   1.863  12.645 -0.2890  0.6254  1.1150
14340TIP3    H264512   4.940   1.841  12.624 -1.2068 -3.5771 -2.6871
14341TIP3   OH264513   5.042   5.116   1.730 -1.0913 -0.1689  0.1654
14341TIP3    H164514   5.064   5.028   1.701 -2.7782 -0.4614 -0.3193
14341TIP3    H264515   5.093   5.128   1.811  1.1826 -0.5467 -1.1167
14342TIP3   OH264516   1.092   2.361  13.197 -0.2725 -0.2652 -0.3496
14342TIP3    H164517   1.044   2.295  13.147 -0.1665 -0.1946 -0.5422
14342TIP3    H264518   1.184   2.338  13.187 -0.2978 -0.8554  0.6518
14343TIP3   OH264519   1.463   1.346  15.945  0.0886 -0.1062 -0.4417
14343TIP3    H164520   1.495   1.297  15.869  1.4714  1.4997 -0.9752
14343TIP3    H264521   1.380   1.304  15.968 -0.9894  0.0364 -3.5719
14344TIP3   OH264522   0.713   5.018   0.985 -0.0093  0.1064 -0.3857
14344TIP3    H164523   0.723   5.085   0.917 -2.4262  0.8682 -0.0719
14344TIP3    H264524   0.799   4.976   0.989  1.0317  1.9009 -1.9368
14345TIP3   OH264525   3.940   2.648   4.421  0.1912 -0.3046 -0.3831
14345TIP3    H164526   3.953   2.606   4.506 -0.7553  2.2430  1.1430
14345TIP3    H264527   3.851   2.624   4.396 -0.0890  0.1688  0.1309
14346TIP3   OH264528   2.925   0.921  11.419  0.1578  0.8095 -0.0773
14346TIP3    H164529   2.859   0.941  11.485 -1.5997  1.1905 -1.8425
14346TIP3    H264530   3.005   0.962  11.451 -0.4335  0.3270  2.1423
14347TIP3   OH264531   5.693   4.474  15.898 -0.7652 -0.4198  0.2115
14347TIP3    H164532   5.609   4.447  15.860  0.2584 -0.9122 -1.8209
14347TIP3    H264533   5.731   4.533  15.833  0.2334  0.2628  1.3650
14348TIP3   OH264534   6.376   2.737   5.772  0.1576 -0.5714  0.0774
14348TIP3    H164535   6.441   2.682   5.728  0.5815  0.7725 -1.0233
14348TIP3    H264536   6.292   2.704   5.740  0.3570 -1.1816  0.1612
14349TIP3   OH264537   1.766   4.482   3.099  0.1095  0.5843  0.3226
14349TIP3    H164538   1.816   4.460   3.178  0.0766 -0.5083  0.0502
14349TIP3    H264539   1.680   4.442   3.113  0.4536 -0.5822 -0.7337
14350TIP3   OH264540   6.196   2.104   0.664  0.6907  0.7548  0.2116
14350TIP3    H164541   6.165   2.098   0.574  1.4020 -1.8131  0.0629
14350TIP3    H264542   6.119   2.084   0.718  0.6274  0.7211  0.1081
14351TIP3   OH264543   6.233   6.410   2.436 -0.0373 -0.0877 -0.3190
14351TIP3    H164544   6.199   6.327   2.403  1.6034  0.2545 -3.2670
14351TIP3    H264545   6.160   6.471   2.428 -0.7476 -0.8351  0.2461
14352TIP3   OH264546   2.275   0.206   5.147 -0.2617 -0.0030  0.1328
14352TIP3    H164547   2.300   0.274   5.209 -1.6731  0.3503  0.3432
14352TIP3    H264548   2.235   0.138   5.201 -0.6148 -0.1314 -0.2909
14353TIP3   OH264549   0.273   3.127   3.146  0.3324  0.0018  0.1850
14353TIP3    H164550   0.320   3.164   3.071  1.0480  0.1538  0.6970
14353TIP3    H264551   0.302   3.036   3.151  0.6234  0.1110  0.5364
14354TIP3   OH264552   3.562   1.399  14.139 -0.5149  0.7355 -0.0870
14354TIP3    H164553   3.568   1.395  14.235 -0.4739  1.0836 -0.0736
14354TIP3    H264554   3.650   1.379  14.108 -0.9492 -1.2535 -0.1156
14355TIP3   OH264555   3.226   6.619   5.699 -0.4459  0.3169  0.2014
14355TIP3    H164556   3.273   6.608   5.781 -0.8924 -0.3020  0.3838
14355TIP3    H264557   3.247   6.540   5.649 -0.3910  0.5655 -0.1703
14356TIP3   OH264558   6.763   2.158  13.737 -0.4014  0.2557 -0.8132
14356TIP3    H164559   6.709   2.083  13.713 -0.4343  0.8048 -2.6114
14356TIP3    H264560   6.705   2.234  13.726 -0.4525  0.5695  1.2301
14357TIP3   OH264561   2.791   6.713  13.312 -0.6849 -0.1680  0.4634
14357TIP3    H164562   2.814   6.635  13.364 -0.7033 -0.7367 -0.3599
14357TIP3    H264563   2.720   6.683  13.255  0.7873 -0.2097 -1.4629
14358TIP3   OH264564   1.748   4.595   0.463 -0.1848  0.3956  0.0251
14358TIP3    H164565   1.766   4.655   0.391 -0.5517  0.1129 -0.3108
14358TIP3    H264566   1.819   4.531   0.460 -0.7510 -0.2164 -0.7496
14359TIP3   OH264567   0.512   6.584  15.026  0.2320 -0.2469 -0.3171
14359TIP3    H164568   0.494   6.656  14.966 -0.3313  0.9214  1.1833
14359TIP3    H264569   0.589   6.542  14.990  0.1394  0.6495 -1.6430
14360TIP3   OH264570   4.878   5.370  13.953  0.2228  0.4927 -0.1181
14360TIP3    H164571   4.802   5.316  13.974 -0.0216  0.5319 -0.8962
14360TIP3    H264572   4.911   5.399  14.038  1.1877 -1.9991  0.4695
14361TIP3   OH264573   1.311   2.178   3.620 -0.1667 -0.3805 -0.5006
14361TIP3    H164574   1.294   2.267   3.589  1.8838  0.7098  1.2300
14361TIP3    H264575   1.283   2.122   3.547 -2.0157  1.6081 -1.4294
14362TIP3   OH264576   5.428   1.691   2.926  0.2759  0.7896 -0.3221
14362TIP3    H164577   5.357   1.639   2.889 -1.1444  1.2941  1.5166
14362TIP3    H264578   5.499   1.629   2.938 -0.1944  0.0346 -1.2536
14363TIP3   OH264579   5.793   0.438  11.739 -0.0466  0.5498 -0.8692
14363TIP3    H164580   5.774   0.383  11.815 -0.9573  1.4267 -0.4425
14363TIP3    H264581   5.755   0.523  11.760  1.1919  1.3132 -1.5858
14364TIP3   OH264582   3.965   6.356   5.982 -0.0850 -0.2282  0.4402
14364TIP3    H164583   3.966   6.448   5.958 -0.0235 -0.0590  1.0797
14364TIP3    H264584   3.899   6.317   5.925  1.2312 -0.1765 -1.1808
14365TIP3   OH264585   6.772   5.418  16.277  0.3688  0.2884 -0.2091
14365TIP3    H164586   6.738   5.330  16.263  2.3155 -0.4677 -0.4116
14365TIP3    H264587   6.720   5.473  16.219 -0.4128 -0.8272 -0.5982
14366TIP3   OH264588   3.242   4.824   1.872  0.2795 -0.0965 -0.1750
14366TIP3    H164589   3.292   4.745   1.851 -0.0156 -0.6244  1.0122
14366TIP3    H264590   3.213   4.810   1.962 -2.5462 -0.0960 -1.0043
14367TIP3   OH264591   4.752   4.773  14.182 -0.2345 -0.0519 -0.0026
14367TIP3    H164592   4.847   4.765  14.184 -0.2508 -0.1126  0.7896
14367TIP3    H264593   4.728   4.800  14.270 -0.9979 -0.5357 -0.0530
14368TIP3   OH264594   4.864   2.739   4.358 -0.1122 -0.0609 -0.0516
14368TIP3    H164595   4.943   2.704   4.317 -0.4336 -1.5138  0.5348
14368TIP3    H264596   4.895   2.782   4.437  0.1193 -0.3887  0.0353
14369TIP3   OH264597   5.412   1.082  16.633 -0.0361 -0.0444 -0.4118
14369TIP3    H164598   5.319   1.101  16.616 -0.6999 -0.2565  2.4367
14369TIP3    H264599   5.418   0.987  16.630 -0.1995 -0.0944  0.5175
14370TIP3   OH264600   2.376   2.560   2.547 -0.4595 -0.7535 -0.0847
14370TIP3    H164601   2.395   2.654   2.551 -0.0538 -0.8753  1.1933
14370TIP3    H264602   2.449   2.523   2.497 -0.4804 -0.4358 -0.3587
14371TIP3   OH264603   2.173   1.450  15.109  0.1232  0.6875  0.6173
14371TIP3    H164604   2.245   1.487  15.159  0.3318 -0.3440  1.1038
14371TIP3    H264605   2.094   1.485  15.152  0.2202 -1.6714  2.9956
14372TIP3   OH264606   5.284   0.371  11.071 -0.0384  0.1054  0.5990
14372TIP3    H164607   5.337   0.429  11.017 -1.1557  0.9093  0.3292
14372TIP3    H264608   5.270   0.293  11.016 -1.8057  1.2252 -0.6263
14373TIP3   OH264609   0.546   5.377  13.732 -0.2430  0.1465 -0.2593
14373TIP3    H164610   0.553   5.289  13.770  0.1341 -0.6183 -2.0440
14373TIP3    H264611   0.567   5.435  13.805  0.2458 -1.2557  0.7742
14374TIP3   OH264612   2.879   2.689  13.388  0.1199  0.6593  0.3976
14374TIP3    H164613   2.918   2.708  13.303 -0.1485 -0.6239 -0.0325
14374TIP3    H264614   2.795   2.648  13.368 -0.5071  1.4448  1.3000
14375TIP3   OH264615   3.150   6.234  13.319 -0.4880 -0.6894 -0.1780
14375TIP3    H164616   3.090   6.309  13.316  0.2156  0.0207  1.7015
14375TIP3    H264617   3.120   6.182  13.393  3.0382  1.4911  3.2025
14376TIP3   OH264618   6.070   1.381   1.667  0.4029 -0.2928  0.1714
14376TIP3    H164619   6.009   1.329   1.719  0.7442 -0.8929 -0.0233
14376TIP3    H264620   6.026   1.395   1.584  0.8377 -1.3764 -0.2485
14377TIP3   OH264621   5.206   0.096  17.214  0.0891  0.5755  0.0591
14377TIP3    H164622   5.300   0.115  17.218 -0.0504  1.3910 -0.5006
14377TIP3    H264623   5.170   0.135  17.293  0.5422 -1.7878  1.5560
14378TIP3   OH264624   6.002   4.406  10.727 -0.6131 -0.1282 -0.2941
14378TIP3    H164625   6.033   4.323  10.764 -0.0629  1.1855  2.5276
14378TIP3    H264626   5.907   4.401  10.731 -0.5780 -0.5394  0.0568
14379TIP3   OH264627   6.192   1.891  12.166  0.7416 -0.2368  0.3179
14379TIP3    H164628   6.219   1.973  12.124  2.0197  0.1327  1.7542
14379TIP3    H264629   6.097   1.892  12.162  0.5086  2.6629  2.5937
14380TIP3   OH264630   4.310   5.946   4.859 -0.4517  0.1148 -0.1758
14380TIP3    H164631   4.291   5.878   4.795 -1.5687  0.2719 -0.0296
14380TIP3    H264632   4.234   5.947   4.917  0.1102  0.6304  0.5774
14381TIP3   OH264633   6.663   3.653  12.028 -0.6657  0.1258  0.8898
14381TIP3    H164634   6.709   3.683  11.950 -0.3426 -1.2803  0.5087
14381TIP3    H264635   6.571   3.649  12.002 -0.5918 -0.0938  0.6605
14382TIP3   OH264636   4.195   2.755   4.367 -0.9174  0.6883  0.1924
14382TIP3    H164637   4.104   2.734   4.388 -1.0459 -0.5272 -1.4319
14382TIP3    H264638   4.190   2.804   4.286 -0.1602  1.3999  0.5654
14383TIP3   OH264639   5.347   1.930   1.419 -0.2411  0.5627  0.3357
14383TIP3    H164640   5.277   1.918   1.483 -1.6891  2.8678 -0.7153
14383TIP3    H264641   5.303   1.961   1.340  1.8476  1.0017 -0.7292
14384TIP3   OH264642   2.191   6.530  11.527  0.0379  0.3867  0.0943
14384TIP3    H164643   2.263   6.468  11.518  1.7130  2.0146  1.4594
14384TIP3    H264644   2.149   6.506  11.609 -1.2107 -0.7318 -0.8340
14385TIP3   OH264645   0.985   2.633  12.055  0.0330  0.0175  0.0819
14385TIP3    H164646   0.992   2.713  12.002 -0.0567 -0.0620 -0.0515
14385TIP3    H264647   0.907   2.589  12.021 -1.3385  1.0477  1.7191
14386TIP3   OH264648   3.254   4.843   0.130  0.4291 -0.6963 -0.4615
14386TIP3    H164649   3.212   4.869   0.048  0.9171 -0.0954 -0.5245
14386TIP3    H264650   3.217   4.756   0.149 -3.1533  0.9760  1.0793
14387TIP3   OH264651   2.107   2.854  17.167 -0.2725 -0.4168 -0.2980
14387TIP3    H164652   2.156   2.905  17.231 -0.4693 -1.7289  0.9694
14387TIP3    H264653   2.019   2.891  17.169  0.1911  0.7848 -1.2596
14388TIP3   OH264654   5.238   2.588   4.580  0.4327  0.3197  0.0331
14388TIP3    H164655   5.295   2.511   4.578 -0.4908 -0.3598 -0.7515
14388TIP3    H264656   5.163   2.562   4.632  0.2890  0.8216  0.0854
14389TIP3   OH264657   0.430   5.162   0.754 -0.1345  0.3007  0.0482
14389TIP3    H164658   0.509   5.195   0.713 -0.0972  1.4242  0.9746
14389TIP3    H264659   0.363   5.229   0.736 -0.3019  0.4438  1.1311
14390TIP3   OH264660   0.787   4.779   5.141 -0.6137  0.0462 -0.0449
14390TIP3    H164661   0.769   4.729   5.221  2.0853 -1.2524 -0.1380
14390TIP3    H264662   0.804   4.868   5.172 -0.7843 -0.1635  0.6778
14391TIP3   OH264663   1.541   5.413  12.364 -0.2646  0.1892 -0.3640
14391TIP3    H164664   1.612   5.366  12.408 -1.9340 -1.1055  1.1034
14391TIP3    H264665   1.531   5.370  12.279 -1.4296 -1.8986  0.7541
14392TIP3   OH264666   2.649   0.481   5.550  0.5283 -0.5655  0.2618
14392TIP3    H164667   2.685   0.394   5.532  1.1448 -0.3107  0.2104
14392TIP3    H264668   2.685   0.503   5.636  4.2749  1.5317 -1.5581
14393TIP3   OH264669   1.890   1.954  16.371 -0.1605  0.3345 -0.4396
14393TIP3    H164670   1.930   1.867  16.381  0.2030  0.3841 -1.4396
14393TIP3    H264671   1.904   1.977  16.280 -0.7604  1.2087 -0.3215
14394TIP3   OH264672   3.725   1.092   1.308  0.0002  0.1000  0.1241
14394TIP3    H164673   3.819   1.082   1.295  0.3751  0.6074  2.1319
14394TIP3    H264674   3.688   1.087   1.220  1.7687 -1.3270 -0.6022
14395TIP3   OH264675   4.191   2.212   5.752 -0.0856 -0.3817  0.0037
14395TIP3    H164676   4.109   2.258   5.764 -0.1203 -0.5024  0.2424
14395TIP3    H264677   4.167   2.119   5.752 -0.2879 -0.3857 -2.4935
14396TIP3   OH264678   2.622   6.543   3.571  0.0685 -0.1527 -0.3019
14396TIP3    H164679   2.547   6.575   3.521 -0.3887 -0.2347  0.3234
14396TIP3    H264680   2.595   6.458   3.604  1.5635 -1.6319 -2.6077
14397TIP3   OH264681   6.015   2.125  15.937  0.0492  0.1507  0.1990
14397TIP3    H164682   6.029   2.198  15.877 -0.8010  0.2853  0.1492
14397TIP3    H264683   5.936   2.083  15.905  0.3794 -0.6336  0.3914
14398TIP3   OH264684   1.009   3.868  16.010 -0.3418 -0.0452  0.2026
14398TIP3    H164685   0.950   3.843  16.081 -1.8461 -0.3060 -1.0509
14398TIP3    H264686   0.996   3.962  15.999  0.6961  0.1980  0.9436
14399TIP3   OH264687   5.286   4.119  11.144  0.0149 -0.0082 -0.0886
14399TIP3    H164688   5.380   4.110  11.129  0.1327 -0.9776  1.1342
14399TIP3    H264689   5.264   4.205  11.107  1.6996  0.9758  1.0995
14400TIP3   OH264690   0.123   5.925   3.557  0.1115  0.1457  0.1465
14400TIP3    H164691   0.049   5.887   3.510  0.1676  0.4808 -0.2153
14400TIP3    H264692   0.090   6.007   3.593  0.6638  0.9414 -1.1157
14401TIP3   OH264693   3.009   6.416  10.733  0.0904 -0.6797 -0.2369
14401TIP3    H164694   3.075   6.465  10.781  2.5343 -3.0343 -0.9441
14401TIP3    H264695   2.931   6.419  10.788  1.8585 -0.8011  2.4265
14402TIP3   OH264696   5.390   3.019   3.025 -0.7573  0.1870 -0.3287
14402TIP3    H164697   5.395   3.093   2.964 -0.6565  0.8477  0.4541
14402TIP3    H264698   5.315   2.968   2.995  0.4554 -0.6062 -2.1775
14403TIP3   OH264699   5.243   1.690  12.310 -0.4465  0.4553 -0.1435
14403TIP3    H164700   5.217   1.782  12.315  0.3396  0.9044 -2.7467
14403TIP3    H264701   5.173   1.648  12.260 -0.8449 -0.4100  1.1110
14404TIP3   OH264702   5.328   5.839   3.954 -0.7503  0.0594  0.0379
14404TIP3    H164703   5.410   5.832   4.004 -1.4500 -0.0478  1.2137
14404TIP3    H264704   5.290   5.922   3.983 -0.6401  0.5525 -1.1768
14405TIP3   OH264705   3.529   4.931  10.777  0.0449 -0.0843 -0.9379
14405TIP3    H164706   3.535   4.916  10.682 -1.3953  0.7400 -1.1963
14405TIP3    H264707   3.435   4.929  10.795  0.0579  2.8824 -0.1052
14406TIP3   OH264708   2.608   2.705  15.854 -0.1538  0.0736 -0.2009
14406TIP3    H164709   2.662   2.656  15.793 -0.7067  1.5289 -1.9310
14406TIP3    H264710   2.614   2.796  15.824 -2.5518  0.4551  0.3198
14407TIP3   OH264711   1.577   2.564  15.876  0.3697 -0.7428  0.2383
14407TIP3    H164712   1.494   2.587  15.834  0.3472  0.2619  0.7973
14407TIP3    H264713   1.609   2.489  15.827 -0.8834 -1.1609  0.0274
14408TIP3   OH264714   2.362   1.689   2.100  0.3999 -0.8054  0.1179
14408TIP3    H164715   2.434   1.707   2.159 -0.5912 -0.3929  1.2365
14408TIP3    H264716   2.343   1.773   2.058  1.1947 -1.1247 -0.9503
14409TIP3   OH264717   2.310   1.988   2.933 -0.2752 -0.3857  0.1379
14409TIP3    H164718   2.392   2.032   2.954 -1.2969  0.3263  3.2801
14409TIP3    H264719   2.333   1.923   2.866  2.7389  0.0022  0.6579
14410TIP3   OH264720   4.362   6.108  15.076 -0.7858 -0.1534  0.6214
14410TIP3    H164721   4.358   6.013  15.062 -2.3437  0.0346 -0.3681
14410TIP3    H264722   4.390   6.143  14.992  1.8527  0.1718  1.5520
14411TIP3   OH264723   4.007   2.784   2.404  0.6708 -0.6508  0.0373
14411TIP3    H164724   3.974   2.868   2.436  0.7279  0.2467 -2.0829
14411TIP3    H264725   4.024   2.799   2.311 -0.3665 -3.3317 -0.6858
14412TIP3   OH264726   0.415   5.335  14.081  0.3603 -0.0135 -0.8512
14412TIP3    H164727   0.458   5.348  14.166 -0.0138  0.6015 -0.7470
14412TIP3    H264728   0.457   5.400  14.024 -0.3677  0.5406 -0.7682
14413TIP3   OH264729   5.525   3.710   1.353 -0.0073 -0.1510 -0.2873
14413TIP3    H164730   5.467   3.762   1.410 -0.5197 -0.7345 -0.2652
14413TIP3    H264731   5.529   3.761   1.272 -1.1735 -0.4598 -0.5638
14414TIP3   OH264732   1.559   6.727   3.127  0.7269  0.1931 -0.0723
14414TIP3    H164733   1.594   6.649   3.170  1.6681 -0.7289 -2.3454
14414TIP3    H264734   1.468   6.704   3.107  0.9094 -0.2290 -0.4514
14415TIP3   OH264735   3.607   3.091  15.197  0.4572  0.2766  0.0833
14415TIP3    H164736   3.617   3.118  15.288  0.9380 -0.4612  0.2572
14415TIP3    H264737   3.573   3.169  15.152  0.3892  0.6978  0.8534
14416TIP3   OH264738   3.706   6.151   5.572  0.1362 -0.3332 -0.2128
14416TIP3    H164739   3.657   6.168   5.492  0.3475  0.3652 -0.2026
14416TIP3    H264740   3.762   6.076   5.550 -0.2127 -0.5065 -0.5338
14417TIP3   OH264741   0.296   5.198   4.443 -0.4342  0.2909 -0.4454
14417TIP3    H164742   0.201   5.200   4.457 -0.3267 -0.5549  0.4870
14417TIP3    H264743   0.333   5.212   4.530  0.3295  2.1211 -1.0213
14418TIP3   OH264744   0.782   5.796  11.282  0.3185  0.2843  0.1534
14418TIP3    H164745   0.759   5.849  11.205  1.6582 -0.4335 -0.7870
14418TIP3    H264746   0.806   5.860  11.349 -2.4221  1.0000  0.5816
14419TIP3   OH264747   3.376   1.041   4.652  0.6428 -0.0334 -0.3291
14419TIP3    H164748   3.309   1.110   4.654  2.0127  1.3334  1.1983
14419TIP3    H264749   3.343   0.978   4.588 -0.9091  1.7818 -1.4306
14420TIP3   OH264750   6.213   1.967   4.138  0.2308 -0.4243 -0.3205
14420TIP3    H164751   6.175   1.886   4.172 -0.5516  0.2848  0.5847
14420TIP3    H264752   6.140   2.029   4.138  1.1115  0.6568  0.3425
14421TIP3   OH264753   1.120   3.580  14.993 -0.2218 -0.4429 -0.0184
14421TIP3    H164754   1.070   3.504  15.023 -1.6106  0.1720 -0.6941
14421TIP3    H264755   1.135   3.632  15.072  0.8039 -1.4275  0.4623
14422TIP3   OH264756   1.026   2.641  11.173  0.3014  0.3949 -0.2525
14422TIP3    H164757   1.057   2.731  11.164  2.3987 -0.1380  0.8706
14422TIP3    H264758   1.089   2.589  11.122  0.3308 -0.5974  0.7670
14423TIP3   OH264759   1.710   6.233   1.795 -0.0022 -0.2686  0.7613
14423TIP3    H164760   1.693   6.142   1.771 -0.3708  0.0926 -0.4141
14423TIP3    H264761   1.630   6.261   1.840 -0.1004 -0.3663  0.6487
14424TIP3   OH264762   5.605   6.812  12.700 -0.0356 -0.3504  0.2520
14424TIP3    H164763   5.538   6.873  12.670  1.7592  1.8109  0.4434
14424TIP3    H264764   5.632   6.765  12.621  0.6232  1.2201 -0.4836
14425TIP3   OH264765   3.685   6.044   6.054  0.3410 -0.3494  0.0718
14425TIP3    H164766   3.623   6.055   6.126  0.6991 -0.4260  0.3989
14425TIP3    H264767   3.741   5.971   6.082  1.5443  0.6873  0.5034
14426TIP3   OH264768   5.106   4.022  12.622 -0.1714 -0.5715  0.5032
14426TIP3    H164769   5.160   4.085  12.671  0.6448 -0.9893  0.1744
14426TIP3    H264770   5.046   4.077  12.572 -0.1572 -0.0912  0.9919
14427TIP3   OH264771   1.665   0.100  15.136  0.1884 -0.0062  0.0452
14427TIP3    H164772   1.724   0.133  15.068  1.0737  0.2304  0.9045
14427TIP3    H264773   1.642   0.178  15.187  0.7426 -0.3971  0.9159
14428TIP3   OH264774   4.199   5.442  13.669 -0.5806 -0.0577  0.3800
14428TIP3    H164775   4.286   5.469  13.639 -0.7993 -2.1907 -2.7456
14428TIP3    H264776   4.140   5.511  13.639 -0.0967  1.0221  1.8391
14429TIP3   OH264777   6.148   0.199  15.845 -0.2047 -0.2323  0.5738
14429TIP3    H164778   6.111   0.179  15.759  0.3213 -1.5050  0.6109
14429TIP3    H264779   6.170   0.292  15.841 -0.2227 -0.2633 -0.6493
14430TIP3   OH264780   4.574   5.999   4.780 -0.3587  0.2936  0.6320
14430TIP3    H164781   4.551   5.966   4.694  0.8444  0.3409  0.2754
14430TIP3    H264782   4.499   5.977   4.836 -0.9095 -0.2132 -0.2984
14431TIP3   OH264783   2.667   6.400  14.639  0.4446 -0.9408  0.2634
14431TIP3    H164784   2.662   6.461  14.712  1.3028 -0.1835 -0.2928
14431TIP3    H264785   2.691   6.454  14.564 -0.2830 -1.7251 -0.5612
14432TIP3   OH264786   0.452   0.696  12.026 -0.3875 -0.0610 -0.6025
14432TIP3    H164787   0.502   0.617  12.047 -0.7481 -0.6518 -1.9227
14432TIP3    H264788   0.364   0.665  12.006 -1.0879  0.8887  0.8042
14433TIP3   OH264789   5.725   6.619   5.963 -0.0394 -0.4528  0.0366
14433TIP3    H164790   5.637   6.616   5.925 -0.1923  1.7659  0.0912
14433TIP3    H264791   5.780   6.653   5.893  0.5778 -0.7806  0.3543
14434TIP3   OH264792   0.653   2.223  13.957  0.1400 -0.2406  0.2499
14434TIP3    H164793   0.579   2.277  13.984  0.7418  1.2245 -0.8518
14434TIP3    H264794   0.722   2.243  14.021  0.9147  1.6901 -1.0926
14435TIP3   OH264795   6.521   0.970  12.919  0.5817 -0.4532  0.3849
14435TIP3    H164796   6.448   0.930  12.967  0.6503 -4.5316 -2.4544
14435TIP3    H264797   6.595   0.965  12.980 -0.3305 -1.1070  1.4893
14436TIP3   OH264798   1.432   3.647  12.650 -0.1734 -0.1102  0.5301
14436TIP3    H164799   1.411   3.732  12.612 -2.2696 -0.8129 -0.0180
14436TIP3    H264800   1.374   3.586  12.604  0.7716 -1.7328  1.4175
14437TIP3   OH264801   5.265   3.218   6.522 -0.2909  0.4697  0.2567
14437TIP3    H164802   5.202   3.275   6.564 -0.3974 -0.0564  0.8274
14437TIP3    H264803   5.213   3.143   6.492  0.0978 -0.1303  1.0353
14438TIP3   OH264804   4.988   6.022  14.229 -0.6389 -0.7517  0.0206
14438TIP3    H164805   4.955   6.085  14.293 -1.5589 -1.7894  0.6027
14438TIP3    H264806   4.976   5.936  14.271 -0.6832 -1.4167 -1.2911
14439TIP3   OH264807   2.499   0.338   2.215  0.1980 -0.2434  0.2343
14439TIP3    H164808   2.468   0.292   2.137  0.5596  1.5609 -1.0293
14439TIP3    H264809   2.585   0.372   2.190  0.3840  0.2404  1.4749
14440TIP3   OH264810   6.068   4.683   4.080 -0.1595  0.2294  0.0835
14440TIP3    H164811   6.161   4.669   4.066  0.0597  1.7845 -0.2043
14440TIP3    H264812   6.031   4.688   3.991 -0.0039  2.5817  0.1052
14441TIP3   OH264813   4.432   4.262   0.057  0.3910 -0.0852 -0.7580
14441TIP3    H164814   4.389   4.281   0.141  0.3079 -1.7226 -0.3904
14441TIP3    H264815   4.384   4.186   0.022  1.1862 -0.1733 -1.7101
14442TIP3   OH264816   1.760   3.042   2.797  0.2559 -0.3064 -0.0628
14442TIP3    H164817   1.829   3.025   2.733  0.3947  0.5597 -0.1518
14442TIP3    H264818   1.760   2.964   2.853  1.5042 -0.1947  0.1161
14443TIP3   OH264819   5.688   4.857   6.042 -0.3251 -0.4620  0.4551
14443TIP3    H164820   5.741   4.794   6.090  0.1737 -1.7774 -1.6955
14443TIP3    H264821   5.598   4.837   6.067 -0.0050  0.9729  3.1788
14444TIP3   OH264822   3.122   5.022   4.445  0.6664  0.0116  0.3139
14444TIP3    H164823   3.178   5.099   4.430  1.4562 -0.7625 -0.8165
14444TIP3    H264824   3.182   4.956   4.480  0.2639 -0.5142  0.0174
14445TIP3   OH264825   5.397   5.803  10.499  0.3185  0.3186  0.3968
14445TIP3    H164826   5.312   5.776  10.463  0.9631 -0.4093 -0.6280
14445TIP3    H264827   5.429   5.726  10.547  0.8243  0.2670 -0.0187
14446TIP3   OH264828   0.761   4.485  12.319 -0.5605  0.6272 -0.1967
14446TIP3    H164829   0.719   4.504  12.403  0.9169  0.3924  0.6337
14446TIP3    H264830   0.774   4.390  12.320  0.3310  0.7386 -0.2382
14447TIP3   OH264831   2.683   3.237   1.918  0.4593 -0.0208  0.9713
14447TIP3    H164832   2.680   3.143   1.931 -1.5813 -0.2756 -0.7043
14447TIP3    H264833   2.690   3.248   1.823  0.6099  1.5210  1.1225
14448TIP3   OH264834   2.587   3.054   6.963 -0.1399 -0.3363  0.4779
14448TIP3    H164835   2.529   3.037   7.038  3.2524 -0.3433  3.3263
14448TIP3    H264836   2.641   2.976   6.956  0.2709  0.0741 -1.4096
14449TIP3   OH264837   2.242   0.567  17.233 -0.2868  1.0098  0.6425
14449TIP3    H164838   2.187   0.595  17.307 -0.1634  0.6281  0.8857
14449TIP3    H264839   2.179   0.545  17.164 -0.4898 -0.1381  1.1705
14450TIP3   OH264840   0.236   6.062   2.482 -0.6226  0.1453 -0.4236
14450TIP3    H164841   0.180   5.994   2.447 -0.3859 -0.2044 -0.1344
14450TIP3    H264842   0.322   6.045   2.443 -0.1612 -0.7230  0.8981
14451TIP3   OH264843   5.805   5.105  17.082 -0.3037 -0.3163  0.7984
14451TIP3    H164844   5.820   5.198  17.071 -1.9554 -0.1410 -0.3132
14451TIP3    H264845   5.761   5.098  17.167 -0.6799 -0.0115  0.6323
14452TIP3   OH264846   3.408   1.139  12.309  0.8732 -0.1152  0.3752
14452TIP3    H164847   3.426   1.201  12.380  2.5719 -0.5503  0.3688
14452TIP3    H264848   3.452   1.058  12.337 -2.0676 -1.6770  0.8331
14453TIP3   OH264849   3.165   1.246   1.033 -0.3374  0.0978 -0.6049
14453TIP3    H164850   3.077   1.266   1.064 -0.2550 -0.3318 -0.0902
14453TIP3    H264851   3.166   1.151   1.022  0.1796  0.0543 -0.2379
14454TIP3   OH264852   5.387   5.129   4.265 -0.5036 -0.0336  0.3721
14454TIP3    H164853   5.318   5.188   4.233 -1.1088 -0.5895  0.6428
14454TIP3    H264854   5.432   5.101   4.186  0.3572  1.4656  0.2914
14455TIP3   OH264855   2.644   0.920   5.554  0.1080  0.5989 -0.3020
14455TIP3    H164856   2.683   1.003   5.527  0.3598 -0.0409 -2.0625
14455TIP3    H264857   2.612   0.881   5.472  1.0981 -1.5959  0.2831
14456TIP3   OH264858   4.883   4.103   1.770  0.4657 -0.3136 -0.1585
14456TIP3    H164859   4.942   4.127   1.842  0.7376 -0.4053 -0.3500
14456TIP3    H264860   4.813   4.168   1.775  0.8652  0.1397 -0.2687
14457TIP3   OH264861   0.514   2.966   2.537 -0.8041 -0.3614  0.1312
14457TIP3    H164862   0.499   2.961   2.442 -0.8010 -0.9137  0.1583
14457TIP3    H264863   0.457   3.037   2.566 -0.7773 -0.1629 -0.2896
14458TIP3   OH264864   0.628   5.955  13.949 -0.0442 -0.7266  0.3123
14458TIP3    H164865   0.563   6.010  13.907 -1.0995 -1.9179  0.3217
14458TIP3    H264866   0.621   5.976  14.042  0.6987  0.2669  0.1593
14459TIP3   OH264867   5.224   2.231  13.319 -0.7539  0.5203  0.1635
14459TIP3    H164868   5.313   2.197  13.307 -0.4084  1.7508 -0.9859
14459TIP3    H264869   5.167   2.158  13.297 -0.0253  0.0991 -0.3621
14460TIP3   OH264870   5.760   5.939  14.824 -0.0805  0.0976  0.1801
14460TIP3    H164871   5.761   6.029  14.793  0.6886 -0.5762 -1.8787
14460TIP3    H264872   5.719   5.889  14.753  1.7795 -1.5309  0.1617
14461TIP3   OH264873   1.785   4.090   5.207  0.0148 -0.0218  0.2716
14461TIP3    H164874   1.877   4.090   5.233  0.0573  1.2883  0.1840
14461TIP3    H264875   1.778   4.160   5.142 -0.8863 -0.6504 -0.3257
14462TIP3   OH264876   6.630   3.217  16.483 -0.4241  0.2043 -0.1395
14462TIP3    H164877   6.562   3.157  16.451  1.2873 -1.8478 -0.1372
14462TIP3    H264878   6.634   3.200  16.577  0.6420 -0.2988 -0.2690
14463TIP3   OH264879   6.489   6.527   2.360  0.0529 -0.5611 -0.4136
14463TIP3    H164880   6.524   6.616   2.355 -0.7421 -0.2457 -0.5132
14463TIP3    H264881   6.462   6.507   2.271  0.1940 -0.8897 -0.3827
14464TIP3   OH264882   4.094   3.728   3.754  0.4804  0.4985 -0.1793
14464TIP3    H164883   4.082   3.804   3.697  0.5098  2.1362  1.8637
14464TIP3    H264884   4.149   3.761   3.825  0.8057 -1.5729  0.5853
14465TIP3   OH264885   5.757   5.707  11.126  0.1776 -0.3580 -0.1258
14465TIP3    H164886   5.842   5.745  11.149  0.0995 -0.0142 -0.3952
14465TIP3    H264887   5.777   5.640  11.060  0.1128  0.6583 -1.2116
14466TIP3   OH264888   4.747   1.592   4.593  0.4315 -0.0836 -0.7513
14466TIP3    H164889   4.676   1.648   4.560  0.2188  0.0683 -0.0509
14466TIP3    H264890   4.720   1.569   4.682  0.8292 -0.7790 -0.8056
14467TIP3   OH264891   5.169   0.164   0.173 -0.4125 -0.0350 -0.2682
14467TIP3    H164892   5.215   0.244   0.202 -3.1797  2.3976 -2.0436
14467TIP3    H264893   5.125   0.132   0.252  1.4903 -0.5070  0.6910
14468TIP3   OH264894   3.605   5.825   3.771  0.3521 -0.0624  0.3651
14468TIP3    H164895   3.665   5.763   3.729 -0.2830 -0.0054 -0.6612
14468TIP3    H264896   3.522   5.813   3.724  0.4843  2.2792 -0.5808
14469TIP3   OH264897   6.293   0.657  15.473  0.1718 -0.4819 -0.4806
14469TIP3    H164898   6.352   0.613  15.534  0.3451 -0.0503 -0.3345
14469TIP3    H264899   6.311   0.750  15.485 -0.4257 -0.3548 -0.5496
14470TIP3   OH264900   5.623   0.195  11.709  0.0927 -0.1669 -0.3067
14470TIP3    H164901   5.581   0.275  11.676 -0.6633 -0.4168  0.0164
14470TIP3    H264902   5.601   0.194  11.803 -0.3643 -1.0229 -0.4138
14471TIP3   OH264903   4.382   1.562   3.010  0.2704  0.5188 -0.0020
14471TIP3    H164904   4.362   1.632   2.947  0.8067  1.6165  0.9969
14471TIP3    H264905   4.468   1.529   2.982 -0.0171  0.2026 -0.5217
14472TIP3   OH264906   5.495   6.015  12.325  0.1923  0.2755 -0.1609
14472TIP3    H164907   5.513   6.061  12.407 -0.6162  0.9972 -0.3636
14472TIP3    H264908   5.404   5.988  12.333  0.4359 -0.6303 -0.3734
14473TIP3   OH264909   4.435   0.888   5.996 -0.0773  0.2454  0.4049
14473TIP3    H164910   4.350   0.879   6.040  0.2917 -0.5548  0.9766
14473TIP3    H264911   4.467   0.798   5.988  0.9629  0.5771  0.6922
14474TIP3   OH264912   6.329   6.027  10.729 -0.3244  0.6212 -0.1256
14474TIP3    H164913   6.321   6.109  10.681  2.1132  1.2657  0.4651
14474TIP3    H264914   6.388   5.973  10.675 -0.8235 -0.2293  0.1543
14475TIP3   OH264915   6.544   6.228   3.014 -0.3037 -0.2717  0.2646
14475TIP3    H164916   6.488   6.253   3.088  0.2380  1.1328  0.2352
14475TIP3    H264917   6.610   6.170   3.053 -0.5634 -0.2835  0.6972
14476TIP3   OH264918   2.878   3.310   3.402  0.6146  0.6297  0.0928
14476TIP3    H164919   2.806   3.253   3.430  0.2729  1.0241  0.0339
14476TIP3    H264920   2.836   3.394   3.383  1.0155  0.7108 -0.4672
14477TIP3   OH264921   1.146   4.078   2.329  0.5370  0.0678  0.2937
14477TIP3    H164922   1.057   4.061   2.298 -0.3506 -0.0539  2.7325
14477TIP3    H264923   1.137   4.155   2.386  1.5400 -1.2848  2.3680
14478TIP3   OH264924   2.376   4.385   2.088 -0.0116 -0.6721  0.0930
14478TIP3    H164925   2.323   4.314   2.124 -2.3064  0.4017 -0.9809
14478TIP3    H264926   2.322   4.423   2.019  0.7508  2.6245  1.1248
14479TIP3   OH264927   6.500   2.887   1.209 -0.1621  0.0260 -0.2143
14479TIP3    H164928   6.548   2.917   1.286  0.4881  0.2700 -0.7069
14479TIP3    H264929   6.566   2.879   1.141 -0.6924 -0.4253 -0.6861
14480TIP3   OH264930   6.046   3.446  12.474  0.3260  0.0123 -0.0888
14480TIP3    H164931   6.098   3.469  12.551 -1.7131  1.1169  1.0342
14480TIP3    H264932   6.005   3.528  12.448 -0.7018 -0.7826 -1.0615
14481TIP3   OH264933   3.559   0.964   3.236 -0.3113  0.4900  0.7073
14481TIP3    H164934   3.475   0.957   3.189 -0.9075 -1.5695  1.9777
14481TIP3    H264935   3.622   0.987   3.168 -1.3513 -1.1605 -0.8928
14482TIP3   OH264936   2.746   2.397  16.330  0.1436  0.0404 -0.2900
14482TIP3    H164937   2.661   2.400  16.286 -0.0229  0.0914  0.0382
14482TIP3    H264938   2.752   2.480  16.377  0.0669 -0.2626  0.2620
14483TIP3   OH264939   1.155   1.637   4.512 -0.2074  0.0423 -0.4226
14483TIP3    H164940   1.124   1.712   4.462  0.4024 -0.2919 -1.3273
14483TIP3    H264941   1.194   1.579   4.446  3.2398  0.8630  0.6680
14484TIP3   OH264942   1.618   2.705   4.030  0.0235  0.2905 -0.3484
14484TIP3    H164943   1.644   2.650   3.956 -1.3465 -0.3302 -0.3936
14484TIP3    H264944   1.557   2.769   3.993 -1.6121 -0.7694  0.4117
14485TIP3   OH264945   3.813   0.385   4.562  0.2418  0.3794  0.2774
14485TIP3    H164946   3.721   0.392   4.590  0.3311 -0.1604  0.7211
14485TIP3    H264947   3.812   0.411   4.470 -0.4144  0.0510  0.1872
14486TIP3   OH264948   0.640   3.175   1.499  0.5494  0.2286 -0.1569
14486TIP3    H164949   0.589   3.242   1.544  1.3072  0.6885  0.0303
14486TIP3    H264950   0.692   3.134   1.568  0.2241 -0.4409 -0.2970
14487TIP3   OH264951   6.290   1.438   4.566 -0.3258 -0.7820  0.1359
14487TIP3    H164952   6.306   1.404   4.654  0.4725 -0.5011  0.1115
14487TIP3    H264953   6.221   1.382   4.531 -1.1642 -0.4412  1.1904
14488TIP3   OH264954   0.344   5.943   4.755  0.0085  0.3511 -0.3375
14488TIP3    H164955   0.368   6.018   4.701 -0.4529  1.0067  0.3350
14488TIP3    H264956   0.299   5.982   4.830  1.4316 -0.4429  0.9881
14489TIP3   OH264957   4.195   2.034  10.937 -0.0992  0.1023  0.8109
14489TIP3    H164958   4.124   2.077  10.891  1.5677  0.0886 -2.0097
14489TIP3    H264959   4.168   2.033  11.029 -2.3634  2.7226  0.2816
14490TIP3   OH264960   3.848   4.380   5.168  0.5304  0.4658 -0.5127
14490TIP3    H164961   3.804   4.310   5.216 -0.1847  0.8882 -0.5307
14490TIP3    H264962   3.859   4.345   5.079  1.8530 -0.3144 -0.0625
14491TIP3   OH264963   4.606   3.491  16.105  0.4688  0.1625 -0.0246
14491TIP3    H164964   4.610   3.566  16.165  1.9910  1.9514 -2.1584
14491TIP3    H264965   4.697   3.480  16.076  0.0179 -1.5960 -0.8759
14492TIP3   OH264966   1.552   5.132   6.316 -0.4601 -0.0209 -0.4019
14492TIP3    H164967   1.549   5.221   6.351 -0.2803  0.6721 -2.0592
14492TIP3    H264968   1.489   5.133   6.243 -1.1395 -1.5235  0.1237
14493TIP3   OH264969   4.237   3.828  13.607  0.2100  0.5584 -0.1261
14493TIP3    H164970   4.170   3.872  13.660  2.1601  2.3233  1.0529
14493TIP3    H264971   4.279   3.766  13.667 -0.3092 -0.5015 -0.8394
14494TIP3   OH264972   5.763   5.398  13.413 -0.1949 -0.1732 -0.0666
14494TIP3    H164973   5.730   5.474  13.366 -0.5285 -0.3091 -0.0525
14494TIP3    H264974   5.846   5.427  13.452  1.2212 -0.6552 -2.4876
14495TIP3   OH264975   4.546   3.741   5.503 -0.4766  0.4607 -0.2992
14495TIP3    H164976   4.620   3.759   5.445 -0.2825  0.0777 -0.1726
14495TIP3    H264977   4.471   3.736   5.445 -0.2279 -0.2686 -0.5598
14496TIP3   OH264978   1.169   4.753  13.792 -0.0978 -0.0662 -0.1456
14496TIP3    H164979   1.184   4.784  13.882  1.5806  0.2697 -0.5105
14496TIP3    H264980   1.205   4.665  13.791  2.1173  0.7758 -1.0596
14497TIP3   OH264981   2.129   5.999  12.782 -0.3123  0.8348 -0.3012
14497TIP3    H164982   2.125   6.008  12.687  0.9315  0.3501 -0.4224
14497TIP3    H264983   2.046   5.958  12.806 -1.4296  2.6085 -0.9465
14498TIP3   OH264984   4.152   5.932   5.126 -0.1656  0.1280  0.8070
14498TIP3    H164985   4.217   5.893   5.185 -0.6240 -0.5888  0.8493
14498TIP3    H264986   4.122   6.010   5.173  0.5864  0.4113  0.8308
14499TIP3   OH264987   1.456   3.600  12.345 -0.1869 -0.2849 -0.4112
14499TIP3    H164988   1.394   3.656  12.298 -0.8406  0.4806  1.2717
14499TIP3    H264989   1.400   3.549  12.404  0.6172 -1.1352 -0.3706
14500TIP3   OH264990   1.123   1.007  15.656  0.1031  0.0571  0.2280
14500TIP3    H164991   1.131   0.934  15.594 -0.4763  1.5662 -1.7225
14500TIP3    H264992   1.047   0.985  15.709  0.7372 -1.3787  0.5909
14501TIP3   OH264993   1.372   2.993  11.530 -0.0198  0.2387 -0.1217
14501TIP3    H164994   1.342   2.909  11.566 -0.5606 -0.2445 -1.6237
14501TIP3    H264995   1.309   3.013  11.461 -0.7563  2.6516  1.1603
14502TIP3   OH264996   6.730   3.805   3.141 -0.0816 -0.2307  0.2897
14502TIP3    H164997   6.684   3.884   3.113  1.2035  0.0975 -1.0146
14502TIP3    H264998   6.686   3.734   3.094 -0.1806 -0.0901  0.1671
14503TIP3   OH264999   2.492   3.014  12.584 -0.0616 -0.0340  0.8785
14503TIP3    H165000   2.483   3.007  12.679 -0.7993 -1.4825  0.7258
14503TIP3    H265001   2.446   2.938  12.550  2.7759 -1.2748 -0.5106
14504TIP3   OH265002   5.669   3.500   2.405  0.2958  0.4473  0.2975
14504TIP3    H165003   5.676   3.405   2.414 -2.2025  0.3279  1.6102
14504TIP3    H265004   5.602   3.513   2.339 -1.5113  1.2039  2.1700
14505TIP3   OH265005   5.730   3.225  14.082 -0.2646  0.1154  0.0347
14505TIP3    H165006   5.683   3.191  14.006 -0.9082 -1.1847  0.9916
14505TIP3    H265007   5.821   3.234  14.052 -0.7396  0.9017 -1.2687
14506TIP3   OH265008   5.462   5.348  12.555  1.3468 -0.2544 -0.4085
14506TIP3    H165009   5.457   5.261  12.517  1.5594  0.2710 -1.7028
14506TIP3    H265010   5.449   5.408  12.481 -1.3471  0.8375  0.8001
14507TIP3   OH265011   1.803   6.530  15.904  0.5770  0.2735 -0.1685
14507TIP3    H165012   1.858   6.478  15.963 -2.2377 -3.5734 -0.4964
14507TIP3    H265013   1.845   6.522  15.819  2.4465  2.3356  0.4840
14508TIP3   OH265014   6.283   1.836  12.428  0.0985  0.1722  0.3505
14508TIP3    H165015   6.267   1.836  12.334 -0.5934  0.5797  0.4628
14508TIP3    H265016   6.215   1.778  12.464  0.9995 -0.8223  0.5059
14509TIP3   OH265017   2.472   5.442  13.683  0.3737 -0.3858  0.2579
14509TIP3    H165018   2.497   5.511  13.621  2.2349  0.0830  1.4328
14509TIP3    H265019   2.552   5.392  13.697  0.4129  0.3097  3.2054
14510TIP3   OH265020   6.473   2.796   6.021  0.1668  0.4428  0.0415
14510TIP3    H165021   6.426   2.795   5.938  0.9382  0.5211 -0.4049
14510TIP3    H265022   6.556   2.840   6.001  0.3928  0.3957  0.8365
14511TIP3   OH265023   3.989   0.943   5.020  0.6201 -0.0497  0.2150
14511TIP3    H165024   3.983   0.950   5.115 -0.7745 -1.3756  0.2640
14511TIP3    H265025   4.035   1.022   4.993  0.6509  0.5667  1.9504
14512TIP3   OH265026   5.663   3.050   5.209  0.1645  0.4264  0.1981
14512TIP3    H165027   5.630   2.960   5.209  1.0637  0.0830  0.6988
14512TIP3    H265028   5.591   3.101   5.246 -0.1289 -0.1795  0.4855
14513TIP3   OH265029   3.695   3.457   1.159 -0.0295  0.2031 -0.2509
14513TIP3    H165030   3.765   3.520   1.175  0.2793  0.3081 -1.8712
14513TIP3    H265031   3.631   3.473   1.229  0.2636  1.9809 -0.3644
14514TIP3   OH265032   2.065   5.354  14.893  0.3228  0.1755 -0.4332
14514TIP3    H165033   2.074   5.427  14.832 -1.8268  0.4155 -0.5296
14514TIP3    H265034   2.015   5.391  14.966 -0.5262 -1.1193 -0.3419
14515TIP3   OH265035   2.539   3.875   2.499 -0.1804 -0.0100  0.2572
14515TIP3    H165036   2.448   3.845   2.495  0.2802 -1.4238 -0.6962
14515TIP3    H265037   2.536   3.967   2.472 -1.4105  0.2171  1.1046
14516TIP3   OH265038   3.299   0.091  16.502 -0.1803  0.0172 -0.1057
14516TIP3    H165039   3.253   0.046  16.573 -0.3103 -0.0206 -0.2134
14516TIP3    H265040   3.235   0.154  16.469  0.8598  2.3181  1.8912
14517TIP3   OH265041   1.547   0.447  14.117  0.1070 -0.2204  0.5997
14517TIP3    H165042   1.627   0.453  14.065  0.1782  1.5010  0.8307
14517TIP3    H265043   1.477   0.461  14.054  0.1407  0.7749  0.7597
14518TIP3   OH265044   1.690   3.725  15.143 -0.1629 -0.1491 -0.2746
14518TIP3    H165045   1.652   3.738  15.230  0.4278 -1.9755  0.3091
14518TIP3    H265046   1.763   3.787  15.139 -0.5788  0.3864  0.2839
14519TIP3   OH265047   0.956   0.408   0.134  0.0104 -0.8067  0.4909
14519TIP3    H165048   1.012   0.349   0.084 -2.0159 -2.1025 -0.3496
14519TIP3    H265049   0.994   0.409   0.222  3.0207  0.6754 -0.6716
14520TIP3   OH265050   5.636   2.184  11.948  0.1994 -0.7126 -0.0091
14520TIP3    H165051   5.711   2.188  12.007  0.6328  1.2009 -0.6051
14520TIP3    H265052   5.674   2.162  11.863  0.3455  1.5429 -0.5924
14521TIP3   OH265053   3.751   4.022   6.013 -0.5546 -0.3191 -0.4023
14521TIP3    H165054   3.709   3.942   5.982 -0.7966 -0.2680 -0.2074
14521TIP3    H265055   3.811   3.993   6.082 -2.0233 -0.1446  1.0253
14522TIP3   OH265056   0.464   6.634  13.472  0.1883 -0.1998 -0.3503
14522TIP3    H165057   0.438   6.714  13.426  0.9806  1.3193  1.6904
14522TIP3    H265058   0.455   6.656  13.565  3.3725 -1.4154  0.3636
14523TIP3   OH265059   5.547   2.987  11.361 -0.1769  0.0607  0.5620
14523TIP3    H165060   5.500   2.994  11.277 -2.4259 -1.1659  1.6199
14523TIP3    H265061   5.628   3.037  11.347 -1.3892  1.6055 -1.6741
14524TIP3   OH265062   2.460   4.587  12.980 -0.2037 -0.0825  0.0798
14524TIP3    H165063   2.429   4.666  13.024 -1.6878 -0.1451 -0.7902
14524TIP3    H265064   2.404   4.579  12.903  0.3832 -1.5962 -0.2242
14525TIP3   OH265065   5.356   3.412  17.029 -0.2185 -0.4467 -0.5932
14525TIP3    H165066   5.326   3.401  17.119  3.1482  1.2993  0.9025
14525TIP3    H265067   5.312   3.491  16.998  1.4434  1.2229  1.0318
14526TIP3   OH265068   1.523   0.967   3.182  0.0646  0.1611 -0.1337
14526TIP3    H165069   1.592   0.948   3.246 -2.0357  1.4893  2.7418
14526TIP3    H265070   1.568   0.971   3.098  2.9048 -2.3170  1.1084
14527TIP3   OH265071   4.373   3.533   1.822  0.1055  0.5449 -0.0947
14527TIP3    H165072   4.438   3.583   1.871  1.2771 -0.3197 -0.7110
14527TIP3    H265073   4.424   3.484   1.758 -1.2799  0.7468 -1.4070
14528TIP3   OH265074   5.019   4.186   1.984 -0.0983  0.3168  0.1521
14528TIP3    H165075   4.975   4.243   2.046 -0.2535  0.5308 -0.1486
14528TIP3    H265076   5.065   4.122   2.038 -0.0614  0.6247  0.4900
14529TIP3   OH265077   2.822   1.707   2.592 -0.6033  0.4097 -0.1433
14529TIP3    H165078   2.807   1.795   2.560 -0.9969  0.2562 -0.3903
14529TIP3    H265079   2.852   1.719   2.682  1.7689  0.9068 -0.9350
14530TIP3   OH265080   3.945   1.170  14.012 -0.2133  0.1638 -0.5595
14530TIP3    H165081   4.009   1.125  14.066 -0.6236 -0.2231 -0.3854
14530TIP3    H265082   3.878   1.104  13.993 -1.1105  0.8197  0.1640
14531TIP3   OH265083   0.883   4.660  16.705  0.6746  0.0128 -0.1981
14531TIP3    H165084   0.950   4.661  16.638  2.3784  2.5374  1.3854
14531TIP3    H265085   0.924   4.618  16.780 -0.3406 -0.5308  0.0792
14532TIP3   OH265086   0.009   4.657  15.640  0.1617 -1.0119 -0.2467
14532TIP3    H165087   0.033   4.721  15.573  0.6070 -1.7327 -0.7834
14532TIP3    H265088   0.083   4.658  15.701  0.3212 -1.2514 -0.4338
14533TIP3   OH265089   3.119   3.375  15.185 -0.2707 -0.2120  0.1779
14533TIP3    H165090   3.095   3.447  15.127 -0.1562 -0.7745 -0.5805
14533TIP3    H265091   3.200   3.340  15.147  0.7065  0.4239  1.5871
14534TIP3   OH265092   6.411   2.204   2.443 -0.1520  0.4332 -0.2436
14534TIP3    H165093   6.331   2.253   2.428 -0.0127  0.8486  0.3539
14534TIP3    H265094   6.460   2.255   2.508  0.4032 -0.0277 -0.2838
14535TIP3   OH265095   0.175   2.719  17.001 -0.4197  0.2708  0.9108
14535TIP3    H165096   0.110   2.653  17.025 -1.9991  1.0596 -0.9547
14535TIP3    H265097   0.127   2.782  16.949  1.0274  2.9674  2.6021
14536TIP3   OH265098   0.075   2.691   4.918 -0.0936 -0.0594 -0.6081
14536TIP3    H165099   0.105   2.666   5.005 -2.1335  0.8734  0.4524
14536TIP3    H265100   0.146   2.666   4.859  0.2190 -3.3329  0.9426
14537TIP3   OH265101   4.146   1.550  12.690 -0.4674 -0.2647 -0.0196
14537TIP3    H165102   4.231   1.542  12.646 -0.4895 -2.0126  0.1679
14537TIP3    H265103   4.167   1.551  12.783 -0.6194 -0.2440  0.0148
14538TIP3   OH265104   3.752   4.800  11.980 -0.1309 -0.0834  0.2534
14538TIP3    H165105   3.775   4.888  11.949 -0.5822 -0.3620 -0.9453
14538TIP3    H265106   3.684   4.815  12.046  0.9059  0.5364  1.2144
14539TIP3   OH265107   3.411   3.747   2.682  0.6048 -0.4659 -0.5073
14539TIP3    H165108   3.412   3.740   2.777 -0.0366 -2.5129 -0.5940
14539TIP3    H265109   3.371   3.665   2.653 -1.5349  1.1433 -2.4541
14540TIP3   OH265110   2.656   0.951  17.026 -0.3645 -0.2463  0.2448
14540TIP3    H165111   2.708   0.880  16.987  0.9494  1.2549 -0.8977
14540TIP3    H265112   2.719   1.001  17.078 -1.3048  0.0026  1.1725
14541TIP3   OH265113   6.657   3.675  15.897 -1.0444  0.7498 -0.2418
14541TIP3    H165114   6.684   3.759  15.860 -0.5893  1.2419  1.1206
14541TIP3    H265115   6.577   3.695  15.946 -1.4177  0.2066 -0.6225
14542TIP3   OH265116   3.303   0.023   0.211 -0.3074 -0.0935  0.1368
14542TIP3    H165117   3.388   0.053   0.180 -0.5930  2.1096  1.2383
14542TIP3    H265118   3.321  -0.017   0.296 -0.2718 -0.5068 -0.0620
14543TIP3   OH265119   4.659   1.091  17.240  0.1974 -0.3243  0.2087
14543TIP3    H165120   4.630   1.037  17.167 -0.6807  0.1442  0.1829
14543TIP3    H265121   4.577   1.118  17.283  0.6795 -0.2042  1.0768
14544TIP3   OH265122   2.020   5.418   6.077  0.3497 -0.1049 -0.1126
14544TIP3    H165123   1.983   5.497   6.038  0.8819 -0.2675 -0.9698
14544TIP3    H265124   2.114   5.427   6.065  0.3606 -1.3817 -1.2512
14545TIP3   OH265125   4.519   5.852  11.842 -0.0653  0.3170  0.0410
14545TIP3    H165126   4.491   5.765  11.814  0.1103 -0.1728  1.3041
14545TIP3    H265127   4.613   5.853  11.829 -0.0258  0.1988  0.3035
14546TIP3   OH265128   2.327   5.340   1.583 -0.2814 -0.4305 -0.0245
14546TIP3    H165129   2.293   5.329   1.495 -0.5884  1.1464 -0.1472
14546TIP3    H265130   2.369   5.426   1.582 -0.1635 -0.4396  1.3205
14547TIP3   OH265131   6.816   4.671   3.439  0.3607  0.1422  0.1215
14547TIP3    H165132   6.884   4.693   3.502  1.0871  1.5253 -1.0903
14547TIP3    H265133   6.762   4.750   3.433 -0.0812 -0.1923 -0.5252
14548TIP3   OH265134   4.974   3.699  13.757  0.5748  0.0581 -0.1421
14548TIP3    H165135   4.983   3.773  13.698 -1.1586  0.2185 -0.2709
14548TIP3    H265136   4.894   3.718  13.807  0.0602 -1.7111 -0.2175
14549TIP3   OH265137   5.105   5.975  13.425  0.2011  0.3036 -0.0139
14549TIP3    H165138   5.174   5.931  13.376 -0.1906 -2.3029  1.6048
14549TIP3    H265139   5.150   6.023  13.494  0.4440 -0.9151  0.6835
14550TIP3   OH265140   4.517   4.610  14.673  0.1193 -0.0686 -0.1669
14550TIP3    H165141   4.549   4.522  14.693 -0.0701 -0.2238 -0.5249
14550TIP3    H265142   4.431   4.615  14.714  0.6936  0.4407  1.0132
14551TIP3   OH265143   3.171   1.321  14.210 -0.2136  0.4214 -0.0789
14551TIP3    H165144   3.128   1.248  14.165 -0.6750  1.0864 -0.7435
14551TIP3    H265145   3.136   1.400  14.167  1.3686  1.0033 -0.3788
14552TIP3   OH265146   6.786   5.694  10.237  0.1802 -0.1090  0.5041
14552TIP3    H165147   6.816   5.611  10.275 -2.4442 -1.3629  0.0300
14552TIP3    H265148   6.727   5.730  10.303 -2.0150 -0.7943 -0.9767
14553TIP3   OH265149   5.285   2.184   2.230 -0.3642  0.4791  0.0936
14553TIP3    H165150   5.234   2.245   2.283  1.7656  1.1656  1.4766
14553TIP3    H265151   5.308   2.234   2.152 -1.0527  0.4381 -0.1469
14554TIP3   OH265152   5.639   1.535  14.049 -0.3587 -0.1034 -0.2267
14554TIP3    H165153   5.558   1.485  14.055 -0.9782  0.8745 -0.3397
14554TIP3    H265154   5.632   1.584  13.967  0.3591 -0.0298 -0.2535
14555TIP3   OH265155   1.184   5.919   2.410 -0.2742  0.0080 -0.5120
14555TIP3    H165156   1.182   5.850   2.476  2.1250  0.4084  0.0608
14555TIP3    H265157   1.098   5.961   2.416  0.3057  0.9696  3.4070
14556TIP3   OH265158   2.886   4.850  17.197  0.0698 -0.7082  0.2102
14556TIP3    H165159   2.853   4.838  17.286  0.2331 -1.9623  0.1207
14556TIP3    H265160   2.958   4.913  17.206  0.4298 -1.2287  1.0581
14557TIP3   OH265161   4.083   1.292  14.790  0.4138  0.2369 -0.3748
14557TIP3    H165162   4.099   1.309  14.697  1.5116  3.5691  0.2834
14557TIP3    H265163   3.993   1.321  14.804  0.3728  0.0848 -0.3258
14558TIP3   OH265164   6.510   1.485   1.333 -0.1619 -0.2877  0.3441
14558TIP3    H165165   6.582   1.422   1.342  0.0078 -0.0285  0.8251
14558TIP3    H265166   6.550   1.561   1.292 -0.1040 -0.0517  0.8311
14559TIP3   OH265167   0.559   4.184   5.569 -0.1255  0.2589  0.3454
14559TIP3    H165168   0.598   4.139   5.644 -1.0892 -2.1372 -0.5159
14559TIP3    H265169   0.612   4.157   5.494  0.5114  2.2247  0.0096
14560TIP3   OH265170   6.038   3.728  15.061 -0.1295  0.0254  0.4575
14560TIP3    H165171   6.085   3.810  15.048 -2.2923  1.2351 -0.2068
14560TIP3    H265172   6.043   3.713  15.156  1.8650 -0.1208  0.3718
14561TIP3   OH265173   3.194   1.821   5.964  0.1987  0.2254 -0.5768
14561TIP3    H165174   3.141   1.848   6.038  0.4166 -0.5168 -0.1454
14561TIP3    H265175   3.168   1.730   5.947 -0.7033  0.7407 -2.1629
14562TIP3   OH265176   6.689   0.284   3.024 -0.1258  0.5796  0.1606
14562TIP3    H165177   6.674   0.189   3.021 -1.1034  0.7212  0.3458
14562TIP3    H265178   6.780   0.295   2.994  1.0611 -0.6535  2.9218
14563TIP3   OH265179   6.471   5.847   5.748 -0.2085  0.1565  0.1452
14563TIP3    H165180   6.446   5.755   5.753  1.4914 -0.3784 -0.4850
14563TIP3    H265181   6.447   5.883   5.833 -2.0939 -0.5315 -0.0568
14564TIP3   OH265182   0.736   6.760   2.120  0.5104 -0.3875  0.2839
14564TIP3    H165183   0.762   6.822   2.189  1.6054 -0.7139  0.1852
14564TIP3    H265184   0.808   6.697   2.116 -0.9542 -2.2096  0.9693
14565TIP3   OH265185   4.078   3.844  15.336  0.1613  0.1387  0.0685
14565TIP3    H165186   4.113   3.835  15.247  0.1558 -1.9523  0.2310
14565TIP3    H265187   4.114   3.770  15.384 -0.3151  0.9002  1.6633
14566TIP3   OH265188   3.832   4.263  13.177 -0.1024  0.1947 -0.1904
14566TIP3    H165189   3.781   4.266  13.258 -1.0557  0.3525 -0.7774
14566TIP3    H265190   3.886   4.184  13.185 -2.4414 -1.5862 -0.6959
14567TIP3   OH265191   5.591   3.436   6.044 -0.6696  0.2855  0.9718
14567TIP3    H165192   5.637   3.353   6.059 -0.0877  0.5400  0.6605
14567TIP3    H265193   5.642   3.500   6.094 -1.1282  0.4569  1.2280
14568TIP3   OH265194   2.249   4.097   3.693 -0.0582 -0.2549 -0.1514
14568TIP3    H165195   2.333   4.136   3.718 -0.5816  0.5081  0.5023
14568TIP3    H265196   2.252   4.092   3.597  0.4843  0.3621 -0.1759
14569TIP3   OH265197   0.307   5.937  13.075 -0.1384  0.3017  0.4734
14569TIP3    H165198   0.391   5.904  13.109  0.0913 -0.1612 -0.5102
14569TIP3    H265199   0.279   5.871  13.011 -0.6221  1.0779 -0.1396
14570TIP3   OH265200   0.259   5.583  13.307 -0.7489 -0.3534  0.4173
14570TIP3    H165201   0.260   5.596  13.402  0.4325  1.1514  0.2267
14570TIP3    H265202   0.325   5.515  13.291  0.7300  1.0026  0.5083
14571TIP3   OH265203   3.259   5.867   0.003 -0.4585 -0.0324 -0.2518
14571TIP3    H165204   3.233   5.958   0.016 -0.4770  0.3289 -2.5276
14571TIP3    H265205   3.176   5.821  -0.012 -0.3706 -0.2663 -0.0262
14572TIP3   OH265206   5.815   1.695  15.076 -0.7078  0.5762 -0.2063
14572TIP3    H165207   5.892   1.702  15.020 -1.3638  0.6030 -1.1275
14572TIP3    H265208   5.845   1.726  15.161 -0.1918  2.4567 -1.0139
14573TIP3   OH265209   1.719   5.823  16.685  0.7750 -0.4576 -0.4283
14573TIP3    H165210   1.648   5.881  16.710  0.5728 -0.6710 -0.5054
14573TIP3    H265211   1.770   5.811  16.765  0.9243 -0.0239 -0.4566
14574TIP3   OH265212   0.857   3.025   4.192 -0.2454 -0.4117  0.7573
14574TIP3    H165213   0.843   3.119   4.201 -1.3059 -0.2234 -2.0213
14574TIP3    H265214   0.780   2.993   4.145  1.5532 -2.0397 -1.3392
14575TIP3   OH265215   5.536   4.754  11.244  0.1238  0.6287  0.0514
14575TIP3    H165216   5.541   4.661  11.224 -3.4649  0.8053 -2.5635
14575TIP3    H265217   5.471   4.761  11.313 -0.9498  1.2605 -0.9951
14576TIP3   OH265218   3.951   3.817  12.333 -0.2263  0.5324  0.1441
14576TIP3    H165219   3.902   3.898  12.321 -0.0020  0.6114 -0.2579
14576TIP3    H265220   4.041   3.840  12.312 -0.2930 -0.0220 -0.8042
14577TIP3   OH265221   4.869   2.223  13.210 -0.6356 -0.1027  0.2483
14577TIP3    H165222   4.950   2.262  13.177 -0.5382  0.5438  1.1816
14577TIP3    H265223   4.831   2.178  13.135  0.3288  0.0238 -0.3325
14578TIP3   OH265224   4.796   4.602  10.781 -0.0451 -0.7699 -0.0577
14578TIP3    H165225   4.761   4.683  10.819  0.5977  0.0032 -1.0741
14578TIP3    H265226   4.718   4.555  10.752 -0.3529  0.2268 -0.9066
14579TIP3   OH265227   4.569   3.462  13.331  0.0616 -0.2467 -0.1649
14579TIP3    H165228   4.479   3.437  13.348 -0.6851  2.2441 -0.0274
14579TIP3    H265229   4.581   3.543  13.381  1.2973  1.2680 -2.7175
14580TIP3   OH265230   2.873   2.876   5.033 -0.2306  0.1139 -0.4169
14580TIP3    H165231   2.795   2.825   5.013 -0.5167  0.3643  0.0444
14580TIP3    H265232   2.934   2.811   5.069 -0.2530 -0.0656 -0.6970
14581TIP3   OH265233   0.290   3.957   2.506  0.3163  0.2854  0.0957
14581TIP3    H165234   0.281   4.047   2.475  1.7740  0.7161  0.8654
14581TIP3    H265235   0.370   3.957   2.559  1.7618 -1.9776 -1.8553
14582TIP3   OH265236   4.400   2.300   5.409  0.1449  0.2861 -0.0877
14582TIP3    H165237   4.462   2.328   5.342  0.9830  0.0714  0.5861
14582TIP3    H265238   4.390   2.375   5.466 -1.8040  1.0277 -1.3050
14583TIP3   OH265239   5.590   5.143  11.436  0.9852 -0.2159  0.7304
14583TIP3    H165240   5.635   5.223  11.464  1.4052  0.1676 -0.9634
14583TIP3    H265241   5.654   5.096  11.383  0.5243 -1.3751  1.1745
14584TIP3   OH265242   5.554   0.503  15.885 -0.3152  0.7456 -0.2164
14584TIP3    H165243   5.507   0.462  15.812  1.1978 -0.5629 -0.4999
14584TIP3    H265244   5.646   0.499  15.860  0.4828 -1.6072  2.5780
14585TIP3   OH265245   0.373   2.592  15.551 -0.1055 -0.3899  0.6091
14585TIP3    H165246   0.284   2.622  15.570  0.1500 -0.2895  1.7270
14585TIP3    H265247   0.421   2.672  15.532  0.0819 -0.2866  1.4815
14586TIP3   OH265248   1.255   2.431   5.252 -0.2392  0.1789 -0.5185
14586TIP3    H165249   1.208   2.407   5.172 -1.3121 -0.5882  0.3216
14586TIP3    H265250   1.203   2.394   5.323  1.0593  0.2416  0.5091
14587TIP3   OH265251   2.850   5.707   4.899  0.1569  0.0906  0.4095
14587TIP3    H165252   2.943   5.726   4.912  0.8351 -1.8219 -1.1024
14587TIP3    H265253   2.844   5.680   4.808 -1.2244 -3.1386  1.3222
14588TIP3   OH265254   2.341   3.998   1.345 -0.1801 -0.0130 -0.3381
14588TIP3    H165255   2.331   4.049   1.426 -1.1876  0.0209 -0.4697
14588TIP3    H265256   2.347   4.064   1.276 -1.4358 -0.0523 -0.5037
14589TIP3   OH265257   4.882   0.879   0.675 -0.4963 -0.1300 -0.9146
14589TIP3    H165258   4.922   0.843   0.595 -1.6099 -1.8354 -0.7589
14589TIP3    H265259   4.921   0.830   0.746 -2.6437 -1.7459 -0.7472
14590TIP3   OH265260   0.223   4.832   4.313 -0.2818  0.5725  0.6571
14590TIP3    H165261   0.177   4.854   4.394 -1.2091 -0.1866  0.3499
14590TIP3    H265262   0.155   4.804   4.253  0.2599  2.2213 -0.8003
14591TIP3   OH265263   5.094   3.425  10.288 -0.2526  0.3468  0.6784
14591TIP3    H165264   5.063   3.348  10.335  1.7176 -0.3616  0.9460
14591TIP3    H265265   5.172   3.394  10.241 -0.7425  1.6307 -1.0942
14592TIP3   OH265266   0.055   3.452   2.116  0.0925  0.1278  0.1675
14592TIP3    H165267   0.110   3.451   2.037  0.1119 -4.1981  0.0055
14592TIP3    H265268   0.116   3.475   2.186  0.7303  1.1447 -0.6752
14593TIP3   OH265269   5.269   0.425   5.307  0.3643  0.0493 -0.5046
14593TIP3    H165270   5.250   0.484   5.380  1.4799 -0.1610 -0.0263
14593TIP3    H265271   5.183   0.392   5.280 -0.4721  2.8905 -1.6877
14594TIP3   OH265272   2.485   2.187  14.325 -0.2303  0.4704  0.4480
14594TIP3    H165273   2.566   2.150  14.290 -0.0710  1.5066 -0.3168
14594TIP3    H265274   2.448   2.117  14.379  0.3182 -0.6163 -0.5426
14595TIP3   OH265275   0.689   4.571  15.570 -0.4459 -0.4737 -0.5376
14595TIP3    H165276   0.752   4.578  15.642 -0.1760  1.8414 -0.9261
14595TIP3    H265277   0.734   4.611  15.495 -1.5431 -0.8661 -1.4322
14596TIP3   OH265278   3.867   1.113   3.954 -0.0625 -0.7828 -0.5245
14596TIP3    H165279   3.950   1.090   3.914 -1.5479 -2.3775 -2.9432
14596TIP3    H265280   3.849   1.042   4.016  0.1817 -0.6352 -0.2817
14597TIP3   OH265281   1.497   6.508  15.290  0.1890  0.7606 -0.0345
14597TIP3    H165282   1.464   6.434  15.341 -0.5160 -0.0027 -1.5383
14597TIP3    H265283   1.497   6.477  15.199  0.5092  2.3818 -0.6263
14598TIP3   OH265284   1.550   2.219  11.721 -0.2488  0.0315 -0.1376
14598TIP3    H165285   1.639   2.235  11.690  0.0057 -1.4824 -0.2703
14598TIP3    H265286   1.529   2.131  11.688 -1.8910  0.4686 -0.3329
14599TIP3   OH265287   2.361   3.646   5.511  0.1304 -0.2918 -0.0568
14599TIP3    H165288   2.303   3.572   5.490 -0.2638  0.4061 -1.5131
14599TIP3    H265289   2.314   3.723   5.481  1.5228  0.3568 -0.6282
14600TIP3   OH265290   3.245   2.398  15.475  0.3968  0.6141  0.1119
14600TIP3    H165291   3.189   2.327  15.505  0.4292  0.4063 -0.3124
14600TIP3    H265292   3.317   2.354  15.429 -0.1965  0.9651 -1.1951
14601TIP3   OH265293   5.427   6.299  13.585  0.1888  0.5518  0.0991
14601TIP3    H165294   5.514   6.267  13.609  0.2393  0.8787  0.3622
14601TIP3    H265295   5.443   6.380  13.537  0.0052  1.0381  0.8375
14602TIP3   OH265296   1.100   6.506  14.574 -0.7143  0.3036 -0.5560
14602TIP3    H165297   1.113   6.416  14.544 -0.3243 -0.0559  0.6488
14602TIP3    H265298   1.088   6.556  14.493  0.2919 -0.6289 -1.3225
14603TIP3   OH265299   1.519   4.365  17.126 -0.0034  0.1496 -0.1294
14603TIP3    H165300   1.432   4.386  17.158  0.5029  2.1851  0.0697
14603TIP3    H265301   1.530   4.421  17.049  1.5485  0.8511  0.5565
14604TIP3   OH265302   4.719   5.926  12.453  0.1051  0.3918 -0.2310
14604TIP3    H165303   4.708   5.858  12.520  0.8016  0.6119  0.1135
14604TIP3    H265304   4.767   5.996  12.497 -2.6456  2.1768  0.1362
14605TIP3   OH265305   1.547   0.202   0.405  0.3479  0.0277  0.2556
14605TIP3    H165306   1.632   0.229   0.370  0.1710  0.9673  0.5144
14605TIP3    H265307   1.569   0.142   0.475  0.7461 -0.8831 -0.6214
14606TIP3   OH265308   6.755   4.244  11.683  0.0677  0.4933  0.2375
14606TIP3    H165309   6.673   4.235  11.633  0.5685 -1.3253 -0.3545
14606TIP3    H265310   6.727   4.264  11.772 -1.1876 -2.0606  0.5084
14607TIP3   OH265311   2.454   3.342  11.780 -0.7112  0.3042 -0.0051
14607TIP3    H165312   2.493   3.290  11.710  0.0415  1.3489 -0.3988
14607TIP3    H265313   2.370   3.301  11.797  0.0016 -1.2499 -0.0299
14608TIP3   OH265314   1.693   4.328   3.567 -0.2217 -0.1457 -0.1006
14608TIP3    H165315   1.622   4.265   3.564 -0.5769  0.1309  1.3384
14608TIP3    H265316   1.751   4.296   3.637 -0.9059  1.5612  1.3279
14609TIP3   OH265317   3.612   0.022  13.101 -0.1163 -0.8418  0.1806
14609TIP3    H165318   3.579  -0.047  13.159  2.1536 -2.4595 -0.2633
14609TIP3    H265319   3.577  -0.001  13.015 -0.1768 -0.8614  0.2103
14610TIP3   OH265320   4.059   4.060  16.929 -0.1311  0.5676  0.6330
14610TIP3    H165321   4.133   4.022  16.977  2.5157  2.7083 -1.4024
14610TIP3    H265322   4.009   3.984  16.899  2.7032 -1.2231 -0.0390
14611TIP3   OH265323   0.681   0.642   0.222  0.8088 -0.0822 -0.3503
14611TIP3    H165324   0.746   0.699   0.183 -0.1408  1.1687 -0.1750
14611TIP3    H265325   0.659   0.579   0.154 -1.8462  2.8830 -2.4889
14612TIP3   OH265326   1.611   0.110  13.291 -0.2949  0.0618 -0.3262
14612TIP3    H165327   1.659   0.168  13.233 -0.1744  0.7645  0.4620
14612TIP3    H265328   1.600   0.029  13.241  1.1089  0.1257 -0.7598
14613TIP3   OH265329   3.266   0.773   2.193 -0.3543  0.4428 -0.0360
14613TIP3    H165330   3.217   0.708   2.143  0.2540 -0.3554  0.3864
14613TIP3    H265331   3.230   0.857   2.165 -0.4954 -0.0214 -1.3021
14614TIP3   OH265332   2.716   1.560   2.950 -0.0979  0.1385  0.0645
14614TIP3    H165333   2.763   1.643   2.951 -1.4008  0.9346  2.1585
14614TIP3    H265334   2.783   1.494   2.970  0.4962  1.0027  1.0302
14615TIP3   OH265335   1.745   4.254  16.875 -0.3426 -0.3179 -0.0519
14615TIP3    H165336   1.714   4.203  16.950  0.4332 -0.3124  0.2919
14615TIP3    H265337   1.675   4.249  16.811 -1.2568  0.1102  0.8827
14616TIP3   OH265338   5.410   2.015   3.651  0.2432  0.5476 -0.4512
14616TIP3    H165339   5.480   1.951   3.664 -1.1523 -1.5012 -2.1896
14616TIP3    H265340   5.451   2.087   3.604  1.5857  0.2916  0.2905
14617TIP3   OH265341   2.118   3.808  13.967  0.1475  0.0855  0.2949
14617TIP3    H165342   2.047   3.756  14.005  0.3137 -0.1746  0.2578
14617TIP3    H265343   2.117   3.787  13.874 -0.6455  1.1874  0.0402
14618TIP3   OH265344   2.337   6.137  15.806 -0.1170  0.4059 -0.5858
14618TIP3    H165345   2.251   6.130  15.849 -0.9355  0.5129 -2.1311
14618TIP3    H265346   2.349   6.231  15.795  0.7475  0.4586  0.6297
14619TIP3   OH265347   3.563   6.769  13.950 -0.3342  0.5584 -0.4063
14619TIP3    H165348   3.620   6.845  13.960  1.6303 -0.8208 -0.5221
14619TIP3    H265349   3.543   6.741  14.039  2.0067 -0.9038 -0.2635
14620TIP3   OH265350   5.506   5.313  13.804  0.3509 -0.3626  0.0517
14620TIP3    H165351   5.458   5.322  13.722  1.1812 -1.5166 -0.5746
14620TIP3    H265352   5.457   5.368  13.866 -2.3576 -2.1899 -0.2968
14621TIP3   OH265353   0.266   5.599   4.470  0.0534 -0.4839  0.4286
14621TIP3    H165354   0.285   5.691   4.489  0.5549 -0.7221  1.1496
14621TIP3    H265355   0.225   5.566   4.551  0.6617 -1.1031  0.4955
14622TIP3   OH265356   4.741   6.419   6.019 -0.0030 -0.3218  0.2158
14622TIP3    H165357   4.727   6.499   5.967 -2.9140  0.1942  1.5644
14622TIP3    H265358   4.780   6.357   5.958  0.4049  1.4881 -1.4534
14623TIP3   OH265359   3.426   1.198   5.231 -0.3676  0.4643 -0.3331
14623TIP3    H165360   3.407   1.152   5.149  0.5508 -0.7247  0.0798
14623TIP3    H265361   3.492   1.143   5.274  2.2304  3.0816 -0.6190
14624TIP3   OH265362   6.457   3.608   2.392  0.4523  0.3285  0.1489
14624TIP3    H165363   6.538   3.638   2.351  1.0242 -1.5672 -0.2474
14624TIP3    H265364   6.393   3.606   2.320  0.7887 -0.6422 -0.1440
14625TIP3   OH265365   1.327   6.494  13.593  0.3058  0.2730  0.2544
14625TIP3    H165366   1.293   6.463  13.677  1.3967  0.4647  0.7818
14625TIP3    H265367   1.291   6.434  13.528  0.6989 -0.8185  1.0334
14626TIP3   OH265368   2.219   5.844  15.974  0.4524 -0.1593  0.0437
14626TIP3    H165369   2.156   5.915  15.960  0.2294 -0.1805  0.8929
14626TIP3    H265370   2.171   5.781  16.028 -0.3120 -2.2428 -2.8170
14627TIP3   OH265371   1.349   5.915   0.444 -0.5124  0.2127 -0.0839
14627TIP3    H165372   1.282   5.914   0.512  1.5460  1.8882  2.1321
14627TIP3    H265373   1.385   5.826   0.443 -1.9128 -0.3708 -0.4728
14628TIP3   OH265374   6.390   1.617  15.837 -0.5725  0.4297 -0.0972
14628TIP3    H165375   6.367   1.648  15.924  1.0677 -1.6932  1.1890
14628TIP3    H265376   6.310   1.575  15.804 -1.0646  0.8336  0.5602
14629TIP3   OH265377   4.140   5.183  13.309  0.3057 -0.0762 -0.1755
14629TIP3    H165378   4.179   5.251  13.254 -1.4977 -0.1233 -1.6220
14629TIP3    H265379   4.131   5.107  13.251  0.0900 -0.7566  0.7272
14630TIP3   OH265380   1.154   4.122  16.273 -0.3153 -0.0033 -0.0266
14630TIP3    H165381   1.177   4.081  16.356 -0.7435  0.5149  0.3528
14630TIP3    H265382   1.204   4.203  16.271 -1.1943  0.5674  0.2821
14631TIP3   OH265383   1.106   1.975  11.500 -0.2651 -0.6216  0.0348
14631TIP3    H165384   1.098   1.898  11.556  0.2635 -0.4386  0.3601
14631TIP3    H265385   1.034   1.966  11.438  0.5581 -2.0553 -0.7569
14632TIP3   OH265386   5.543   0.775   2.296  0.2975  0.2696  0.5540
14632TIP3    H165387   5.580   0.715   2.230  1.0281 -0.0387  1.2323
14632TIP3    H265388   5.449   0.775   2.278 -0.0573 -2.6895  1.7846
14633TIP3   OH265389   2.492   3.585   3.348 -0.3357  0.5655 -0.1257
14633TIP3    H165390   2.431   3.589   3.274  0.3874  0.7524 -0.7248
14633TIP3    H265391   2.478   3.499   3.387 -0.5685  0.3806 -0.6187
14634TIP3   OH265392   3.425   3.413   3.340 -0.1527  0.4094  0.4432
14634TIP3    H165393   3.425   3.498   3.296 -0.5788  0.3998  0.4206
14634TIP3    H265394   3.333   3.385   3.338 -0.1968  0.4519  1.4183
14635TIP3   OH265395   3.789   1.904   3.108  0.3539 -0.2019 -0.0355
14635TIP3    H165396   3.793   1.916   3.013 -1.8768 -0.1716 -0.1694
14635TIP3    H265397   3.850   1.969   3.143 -0.3011  1.2019 -1.3795
14636TIP3   OH265398   2.864   5.816   5.354  0.3386 -0.3586  0.5510
14636TIP3    H165399   2.825   5.833   5.268  1.8873  2.0681  0.2102
14636TIP3    H265400   2.793   5.780   5.406 -0.9576 -0.8200 -1.4003
14637TIP3   OH265401   2.751   6.334  16.286  0.2175 -0.0862  0.9951
14637TIP3    H165402   2.729   6.419  16.248  0.1450 -0.9616 -1.0285
14637TIP3    H265403   2.776   6.354  16.376 -0.3396  2.0018  0.7351
14638TIP3   OH265404   5.814   3.744   0.413 -0.0163 -0.1712  0.2374
14638TIP3    H165405   5.759   3.678   0.457 -1.6607  1.4089  0.6536
14638TIP3    H265406   5.769   3.761   0.330 -0.5312  1.5678  0.8379
14639TIP3   OH265407   0.058   1.692   2.674 -0.1349  0.0812  0.1406
14639TIP3    H165408   0.136   1.724   2.630  1.0643 -2.0805  0.5613
14639TIP3    H265409   0.007   1.650   2.606 -0.5527  0.7537  0.0240
14640TIP3   OH265410   3.397   2.084   3.490  0.0992  0.1565 -0.2157
14640TIP3    H165411   3.319   2.089   3.435 -0.6924  0.1351  0.8828
14640TIP3    H265412   3.445   2.164   3.471  0.3100 -0.2612 -1.5925
14641TIP3   OH265413   1.513   0.034   0.620  0.1125  0.7093 -0.0489
14641TIP3    H165414   1.564  -0.007   0.690  0.8428 -0.0456 -0.9960
14641TIP3    H265415   1.471  -0.039   0.574  0.6158  1.0743 -1.1318
14642TIP3   OH265416   1.619   3.496   4.866  0.3535  0.6333  0.0239
14642TIP3    H165417   1.532   3.527   4.892  0.0715  0.9268 -1.1876
14642TIP3    H265418   1.676   3.521   4.939 -0.7976 -0.8137  1.4970
14643TIP3   OH265419   3.628   1.301  13.201 -0.2116 -0.6006 -0.1128
14643TIP3    H165420   3.609   1.265  13.114 -1.4207 -0.1499 -0.0554
14643TIP3    H265421   3.659   1.389  13.184  0.1193 -0.7142 -0.1094
14644TIP3   OH265422   6.174   3.979  15.041  0.4075 -0.2195  0.6322
14644TIP3    H165423   6.140   4.062  15.075  1.5078 -0.2532  1.9359
14644TIP3    H265424   6.269   3.985  15.053  0.6727 -1.0052 -0.8235
14645TIP3   OH265425   1.242   2.851  15.763 -1.1886  0.1234 -0.1190
14645TIP3    H165426   1.321   2.895  15.794 -0.6334 -0.9361  0.0117
14645TIP3    H265427   1.266   2.816  15.677 -1.5637 -0.0654 -0.1483
14646TIP3   OH265428   3.772   1.959   4.368  0.5278  0.7760  0.1135
14646TIP3    H165429   3.679   1.982   4.361  0.8289  2.2467  0.6792
14646TIP3    H265430   3.791   1.911   4.287 -0.4331  1.5269 -0.5793
14647TIP3   OH265431   4.179   5.444  16.387 -0.2349 -1.0297 -0.1584
14647TIP3    H165432   4.132   5.369  16.351  1.0163 -1.6226 -0.6151
14647TIP3    H265433   4.237   5.407  16.454 -1.7116 -0.0833  1.7593
14648TIP3   OH265434   0.500   6.699   5.623 -0.2738 -0.3652  0.4348
14648TIP3    H165435   0.409   6.709   5.593  0.4407  2.0002 -1.2267
14648TIP3    H265436   0.505   6.757   5.699 -0.3809 -1.2965  1.1706
14649TIP3   OH265437   6.793   0.220   0.422 -0.0613  0.1964 -0.0472
14649TIP3    H165438   6.863   0.279   0.452 -0.0614  0.9638 -1.4379
14649TIP3    H265439   6.799   0.144   0.479  0.3112  1.3076  1.4480
14650TIP3   OH265440   2.582   0.346  12.883  0.2071 -0.4033 -0.7907
14650TIP3    H165441   2.670   0.310  12.897 -0.0751 -0.3985  1.3268
14650TIP3    H265442   2.536   0.330  12.965 -2.4865 -2.2629 -2.4891
14651TIP3   OH265443   4.687   2.384  15.601 -0.2078  0.0652  0.1382
14651TIP3    H165444   4.677   2.432  15.683 -1.3637 -2.4312  1.5824
14651TIP3    H265445   4.597   2.367  15.572  0.1646 -0.9669 -0.4587
14652TIP3   OH265446   0.650   4.428   1.966 -0.3471  0.3590  0.8158
14652TIP3    H165447   0.615   4.438   2.054  0.0874  2.3091  0.8123
14652TIP3    H265448   0.731   4.378   1.978 -1.5443 -1.6010  1.1652
14653TIP3   OH265449   0.568   4.487   1.490 -0.8848 -0.1977 -0.0712
14653TIP3    H165450   0.551   4.396   1.467 -2.4481 -0.2178  1.0256
14653TIP3    H265451   0.494   4.513   1.545  0.0160  1.4447  0.4544
14654TIP3   OH265452   5.699   2.631   5.145  0.0093 -0.3984  0.0135
14654TIP3    H165453   5.730   2.553   5.191 -0.5477 -0.8221 -0.3250
14654TIP3    H265454   5.752   2.635   5.066  0.2079 -0.2874  0.1493
14655TIP3   OH265455   3.073   3.461  16.836  0.1090 -0.0957  0.6471
14655TIP3    H165456   3.095   3.371  16.809 -1.2988  0.1017 -1.3783
14655TIP3    H265457   3.113   3.516  16.768 -1.8037  0.5613 -0.0141
14656TIP3   OH265458   4.371   4.963   1.126 -0.4768 -0.0355  0.3304
14656TIP3    H165459   4.373   4.894   1.192 -0.6536 -0.0843  0.2860
14656TIP3    H265460   4.431   4.933   1.058  1.6172  1.1542  1.5823
14657TIP3   OH265461   3.183   2.693  15.045  0.8471  0.1930 -0.5803
14657TIP3    H165462   3.232   2.620  15.083  0.7687  0.6746  0.4713
14657TIP3    H265463   3.107   2.652  15.004  0.6815 -0.2959  0.2080
14658TIP3   OH265464   3.818   1.486   2.971  0.1656  0.5725  0.1105
14658TIP3    H165465   3.892   1.524   3.018 -0.3949  0.8271  0.8021
14658TIP3    H265466   3.856   1.449   2.892  0.8476  1.8480 -0.1854
14659TIP3   OH265467   0.963   5.497  13.063  0.1553 -0.1325  0.3272
14659TIP3    H165468   0.988   5.579  13.106  1.9337  0.0862 -0.9804
14659TIP3    H265469   0.896   5.523  13.000  2.2314  0.8101 -1.6254
14660TIP3   OH265470   2.075   3.379  13.208 -0.0724 -0.5709  0.6848
14660TIP3    H165471   2.106   3.422  13.129  0.1922 -1.1801  0.4486
14660TIP3    H265472   2.010   3.439  13.245  0.5478  0.1858  0.5583
14661TIP3   OH265473   5.115   5.088  11.173 -0.3257 -0.1284  0.2418
14661TIP3    H165474   5.204   5.120  11.183 -0.8094  1.4720 -0.2354
14661TIP3    H265475   5.095   5.044  11.255  0.3413  0.9324  0.9835
14662TIP3   OH265476   4.600   5.910  13.594  0.7381 -0.2320  0.4021
14662TIP3    H165477   4.588   5.904  13.499 -1.1297  1.5043  0.4505
14662TIP3    H265478   4.646   5.830  13.617  0.7740 -0.9605 -1.8955
14663TIP3   OH265479   4.345   3.609   0.267 -0.4096 -0.0429  0.1950
14663TIP3    H165480   4.256   3.591   0.238 -0.2357  0.1560 -0.4895
14663TIP3    H265481   4.354   3.704   0.258 -0.2833 -0.0004  0.7248
14664TIP3   OH265482   1.608   0.468  12.458 -0.6734  0.3329 -0.2247
14664TIP3    H165483   1.677   0.486  12.393  1.0535  1.0609  1.6779
14664TIP3    H265484   1.652   0.416  12.526 -2.8938 -2.0309 -0.4657
14665TIP3   OH265485   3.200   2.836   0.419  0.1367 -0.2695  0.3602
14665TIP3    H165486   3.274   2.783   0.450  2.2282  2.3183  0.2493
14665TIP3    H265487   3.211   2.839   0.324 -1.3621 -1.4766  0.1185
14666TIP3   OH265488   5.187   4.943  10.963 -0.0758  0.5576  0.3207
14666TIP3    H165489   5.144   4.995  11.031 -0.0931  1.6343 -0.4926
14666TIP3    H265490   5.133   4.865  10.955  0.1125  0.2582  1.7699
14667TIP3   OH265491   6.408   2.464  15.675  0.3757  0.2315  0.1796
14667TIP3    H165492   6.461   2.482  15.597  0.3854  0.8625  0.3223
14667TIP3    H265493   6.394   2.550  15.714 -0.6316  0.0606  0.2249
14668TIP3   OH265494   6.616   6.092  13.019 -0.1845  0.2183  0.1420
14668TIP3    H165495   6.654   6.156  12.961 -2.2575  1.1908 -0.2477
14668TIP3    H265496   6.651   6.113  13.106 -1.4153  2.4769  0.1727
14669TIP3   OH265497   1.603   3.719   3.380  0.4056  0.0549  0.4216
14669TIP3    H165498   1.662   3.644   3.372  1.0240  0.4769  0.9201
14669TIP3    H265499   1.515   3.680   3.378  0.5146 -0.3661 -3.2120
14670TIP3   OH265500   2.435   4.325  15.727 -0.2169  0.4072 -0.1382
14670TIP3    H165501   2.495   4.263  15.767  0.7056  1.6116  0.3970
14670TIP3    H265502   2.424   4.393  15.793  0.3657  1.8234 -1.4512
14671TIP3   OH265503   5.765   3.506   3.514 -0.2103  0.4907 -0.4522
14671TIP3    H165504   5.708   3.442   3.472  0.4790 -1.8618  1.9082
14671TIP3    H265505   5.708   3.557   3.570 -0.2173 -1.6971  1.7184
14672TIP3   OH265506   5.507   1.411   2.880  0.8307 -0.3926 -0.4030
14672TIP3    H165507   5.445   1.346   2.846  0.0534  0.8295 -1.4110
14672TIP3    H265508   5.529   1.379   2.968  0.2790 -1.8705 -0.7658
14673TIP3   OH265509   4.193   4.578   4.827  0.0665 -0.3411 -0.0849
14673TIP3    H165510   4.116   4.634   4.832  0.1663  0.0772 -2.1853
14673TIP3    H265511   4.216   4.578   4.734  1.6867 -1.6974  0.2728
14674TIP3   OH265512   1.427   0.962   5.573  0.4010  0.1424 -0.1429
14674TIP3    H165513   1.385   1.007   5.646 -1.0759  2.4316 -2.2410
14674TIP3    H265514   1.457   1.032   5.515  1.1926 -1.5544 -1.9209
14675TIP3   OH265515   0.783   0.564   1.833  0.0182 -0.3825  0.1689
14675TIP3    H165516   0.741   0.621   1.898  3.1522  3.4427 -0.7793
14675TIP3    H265517   0.712   0.538   1.774 -1.7152  2.4122  0.8297
14676TIP3   OH265518   4.049   3.408  12.462  0.4540  0.3335 -0.4050
14676TIP3    H165519   4.045   3.387  12.369 -1.0855 -0.7953 -0.1266
14676TIP3    H265520   4.141   3.397  12.485  1.1643  2.1425 -2.0825
14677TIP3   OH265521   6.747   3.263   1.265 -0.1395 -0.0728 -0.3653
14677TIP3    H165522   6.810   3.222   1.206  1.1986  0.1942  0.8174
14677TIP3    H265523   6.765   3.356   1.260  0.6021 -0.1029  1.0622
14678TIP3   OH265524   6.409   0.769  14.589  0.4414 -0.3473  0.3787
14678TIP3    H165525   6.471   0.823  14.638 -0.6362  2.8143 -1.3979
14678TIP3    H265526   6.346   0.832  14.553 -0.7206 -2.7857 -2.2919
14679TIP3   OH265527   1.815   6.463   0.747 -0.4253 -0.2462 -0.6132
14679TIP3    H165528   1.876   6.482   0.818 -2.1355 -0.0594  0.8864
14679TIP3    H265529   1.848   6.513   0.672 -0.1375  1.9508  0.8821
14680TIP3   OH265530   3.494   2.526  14.999  0.0946  0.4221  0.2641
14680TIP3    H165531   3.540   2.509  14.917  0.6461 -2.8896  1.1237
14680TIP3    H265532   3.560   2.570  15.054  0.6445  0.0958 -0.1214
14681TIP3   OH265533   3.967   2.489   1.646 -0.0712 -0.1363  0.6243
14681TIP3    H165534   4.006   2.564   1.691  0.3829  0.3994 -0.5925
14681TIP3    H265535   4.013   2.413   1.680 -1.9100 -0.1481  3.3842
14682TIP3   OH265536   1.649   3.191  11.267  0.4355  0.1988  0.0979
14682TIP3    H165537   1.736   3.161  11.292 -0.1778 -1.5027  0.3161
14682TIP3    H265538   1.620   3.129  11.201 -0.2462  1.3080 -0.6674
14683TIP3   OH265539   0.903   6.515   2.673 -0.5590 -0.1980 -0.2052
14683TIP3    H165540   0.937   6.431   2.702  1.7503  0.6886 -0.1097
14683TIP3    H265541   0.827   6.531   2.729 -0.2915 -1.6241  0.6148
14684TIP3   OH265542   0.482   6.634   1.818 -0.3553  0.0461 -0.1970
14684TIP3    H165543   0.467   6.706   1.757  0.0769  0.6404  0.3814
14684TIP3    H265544   0.463   6.555   1.767  1.4088  0.4327 -1.5873
14685TIP3   OH265545   4.936   1.274   2.287 -0.0287  0.6565  0.3423
14685TIP3    H165546   4.910   1.185   2.262  1.2621 -0.0613  1.4111
14685TIP3    H265547   4.958   1.317   2.204  1.1002 -0.6430 -0.0785
14686TIP3   OH265548   2.992   5.959  15.091 -0.0667  0.0137 -0.4190
14686TIP3    H165549   2.919   5.992  15.039  0.0123 -1.4108 -1.4915
14686TIP3    H265550   3.027   6.036  15.136 -0.7997  1.1080 -1.6643
14687TIP3   OH265551   1.725   0.489   1.238  0.1437 -0.4345 -0.1469
14687TIP3    H165552   1.731   0.478   1.143 -1.0289  1.4847 -0.4923
14687TIP3    H265553   1.667   0.418   1.267 -1.7870  0.5735 -1.3077
14688TIP3   OH265554   6.649   3.552   5.118  0.0807  0.2146  0.9510
14688TIP3    H165555   6.581   3.486   5.131 -1.3233  1.2909 -0.5096
14688TIP3    H265556   6.727   3.503   5.096 -0.4552 -1.0161  1.6804
14689TIP3   OH265557   0.522   6.002   5.243 -0.5888 -0.1164 -0.0728
14689TIP3    H165558   0.542   6.091   5.272 -0.7185  0.6717 -2.2096
14689TIP3    H265559   0.486   6.013   5.154  2.0283 -2.4600 -1.5878
14690TIP3   OH265560   5.797   2.920  14.722 -0.3245 -0.4297 -0.2200
14690TIP3    H165561   5.819   2.972  14.799 -0.3973 -0.3119 -0.2777
14690TIP3    H265562   5.702   2.911  14.727 -0.1329 -2.3793  0.9598
14691TIP3   OH265563   4.455   1.364   5.390  0.0202  0.3596  0.0633
14691TIP3    H165564   4.431   1.337   5.479  0.5509  0.8748  0.3672
14691TIP3    H265565   4.533   1.418   5.402 -0.7602  1.6672 -0.5671
14692TIP3   OH265566   2.471   1.446  14.678 -0.2111  0.2336 -0.3367
14692TIP3    H165567   2.413   1.434  14.753  0.9003 -0.2180  0.4738
14692TIP3    H265568   2.522   1.365  14.674  1.2100  1.1052 -0.2859
14693TIP3   OH265569   2.335   4.897  16.460 -0.4193  0.1344  0.1333
14693TIP3    H165570   2.401   4.843  16.503  0.7614  0.4429 -1.2135
14693TIP3    H265571   2.263   4.836  16.442 -0.7316 -0.1055  2.0263
14694TIP3   OH265572   1.374   3.320   0.084  0.1416  0.6446 -0.1659
14694TIP3    H165573   1.388   3.254   0.016  0.8092  3.4617 -3.0491
14694TIP3    H265574   1.461   3.336   0.121  0.4577  1.5695 -1.2464
14695TIP3   OH265575   6.074   6.200   2.989 -0.0864 -0.0437 -0.4074
14695TIP3    H165576   6.116   6.160   2.914 -0.7955 -1.7860  0.0706
14695TIP3    H265577   5.980   6.195   2.970 -0.3061 -0.9383  0.7405
14696TIP3   OH265578   3.157   2.717   1.846 -0.9543  0.1066 -0.0406
14696TIP3    H165579   3.163   2.637   1.897  1.3121  1.9424  2.8227
14696TIP3    H265580   3.075   2.757   1.874 -1.0688 -0.1891  0.0528
14697TIP3   OH265581   2.600   3.696   0.634  0.3153  0.0357 -0.1515
14697TIP3    H165582   2.614   3.727   0.723  0.0033  0.0867 -0.1169
14697TIP3    H265583   2.677   3.725   0.585 -0.1003  1.1194 -0.1906
14698TIP3   OH265584   3.634   4.653  11.760  0.2541  0.4491  0.1774
14698TIP3    H165585   3.667   4.694  11.680 -0.2652  0.3663 -0.0870
14698TIP3    H265586   3.655   4.715  11.830 -0.3644  1.0985 -0.1920
14699TIP3   OH265587   1.522   4.071   2.442 -0.2643 -0.3879 -0.0072
14699TIP3    H165588   1.517   4.112   2.356  0.3660 -1.0408 -0.3709
14699TIP3    H265589   1.514   3.977   2.424  0.9557 -0.6154  0.5263
14700TIP3   OH265590   5.651   4.807   0.553  0.1544 -0.5127 -0.1704
14700TIP3    H165591   5.700   4.748   0.610 -2.2240 -1.1043  1.4276
14700TIP3    H265592   5.610   4.869   0.612 -1.2473 -0.2491 -1.3579
14701TIP3   OH265593   1.557   4.471   4.833  0.5633 -0.3462 -0.3693
14701TIP3    H165594   1.519   4.409   4.770 -1.8851  1.7207 -1.0977
14701TIP3    H265595   1.582   4.546   4.779  1.8472  0.0102  0.6995
14702TIP3   OH265596   1.477   1.672   4.393  0.0878 -1.0948 -0.2711
14702TIP3    H165597   1.404   1.650   4.335  0.7756  0.0361 -1.6466
14702TIP3    H265598   1.485   1.767   4.387 -1.0715 -0.6159  3.3344
14703TIP3   OH265599   6.104   4.653   5.896 -0.9739  0.2002 -0.6067
14703TIP3    H165600   6.143   4.610   5.820  0.5681  2.7586 -1.3915
14703TIP3    H265601   6.027   4.697   5.862 -0.2408  1.4103 -0.7431
14704TIP3   OH265602   4.179   6.479   2.724  0.2470 -0.3550  0.7670
14704TIP3    H165603   4.112   6.428   2.678  0.9609 -1.3789  0.8295
14704TIP3    H265604   4.246   6.496   2.658  0.4143 -0.2481  0.9624
14705TIP3   OH265605   0.128   4.038  13.684  0.1806 -0.1557  0.3380
14705TIP3    H165606   0.136   3.952  13.642 -2.0803  0.0840 -0.7462
14705TIP3    H265607   0.041   4.036  13.724  0.0162  1.6895  0.1271
14706TIP3   OH265608   6.446   2.893  12.728 -0.5746 -0.3470 -0.3817
14706TIP3    H165609   6.479   2.962  12.785 -1.9989 -1.4967  2.0168
14706TIP3    H265610   6.371   2.934  12.683 -1.4618 -0.2648  1.0794
14707TIP3   OH265611   3.798   5.250   5.131 -0.0622  0.1670 -0.0181
14707TIP3    H165612   3.778   5.160   5.106 -0.0613 -0.2024  1.2179
14707TIP3    H265613   3.893   5.258   5.121 -0.1613  0.3156 -0.9500
14708TIP3   OH265614   4.475   6.024   3.882 -0.4473 -0.1579  0.7968
14708TIP3    H165615   4.403   6.008   3.944 -1.6991  0.8044 -0.3423
14708TIP3    H265616   4.444   6.097   3.829  0.3106 -1.3454 -1.3701
14709TIP3   OH265617   3.582   6.391  15.339  0.1536  0.0936  0.0162
14709TIP3    H165618   3.492   6.421  15.323  0.5721  1.2522 -0.2512
14709TIP3    H265619   3.581   6.299  15.313 -1.4685 -0.5110  2.0056
14710TIP3   OH265620   4.067   3.847  13.382 -0.2284 -0.1034  0.4154
14710TIP3    H165621   4.128   3.852  13.455  0.6221 -3.8703  0.1571
14710TIP3    H265622   3.987   3.810  13.420 -1.0005  1.1263  0.0252
14711TIP3   OH265623   2.562   2.801  15.144  0.2330 -0.3499 -0.3892
14711TIP3    H165624   2.521   2.733  15.090  0.6951 -0.7870 -0.2015
14711TIP3    H265625   2.549   2.771  15.234  0.4349 -0.1876 -0.3058
14712TIP3   OH265626   4.026   4.468  15.027 -0.1004  0.1847  0.0547
14712TIP3    H165627   3.992   4.445  15.114 -1.8020  0.1215 -0.5937
14712TIP3    H265628   3.958   4.524  14.989  1.5365  1.8945 -0.4755
14713TIP3   OH265629   6.439   5.440   4.602  0.0525  0.6295 -0.3515
14713TIP3    H165630   6.362   5.433   4.658  0.9768  0.6121  0.9428
14713TIP3    H265631   6.513   5.417   4.658  0.9122 -0.4799 -1.8709
14714TIP3   OH265632   3.279   2.659  14.474  1.4142 -0.0129  0.4403
14714TIP3    H165633   3.212   2.671  14.541 -1.6256 -1.0689 -2.1683
14714TIP3    H265634   3.293   2.746  14.438 -1.4274 -0.1338 -1.3378
14715TIP3   OH265635   2.746   6.373   0.214  0.3293  0.6660  0.3033
14715TIP3    H165636   2.652   6.386   0.226  0.3167  0.6452  0.2311
14715TIP3    H265637   2.752   6.300   0.152  0.4045 -0.2754  1.3790
14716TIP3   OH265638   4.750   4.441  14.095  0.0155  0.3472 -0.5164
14716TIP3    H165639   4.763   4.530  14.127  0.0855 -0.1425  0.8525
14716TIP3    H265640   4.714   4.393  14.169  0.4404 -0.8938 -1.0819
14717TIP3   OH265641   1.993   0.074  13.278 -0.6923  0.0370 -0.6859
14717TIP3    H165642   2.080   0.050  13.309 -0.0726  0.9640 -1.6385
14717TIP3    H265643   1.933   0.023  13.332  0.4848 -2.5996 -1.6790
14718TIP3   OH265644   5.356   2.332  14.873  0.4879 -0.5390 -0.1403
14718TIP3    H165645   5.291   2.332  14.942 -0.1470 -0.4296 -0.7302
14718TIP3    H265646   5.330   2.261  14.814  0.9738 -0.5824 -0.3114
14719TIP3   OH265647   3.031   2.796   1.577 -0.2030  0.3588  0.4144
14719TIP3    H165648   3.082   2.783   1.657 -0.6800  0.3509  0.7246
14719TIP3    H265649   2.973   2.721   1.573  0.7824 -0.3666 -0.7067
14720TIP3   OH265650   3.655   1.133  11.210 -0.4276 -0.2353 -0.0642
14720TIP3    H165651   3.598   1.073  11.163 -1.2563  1.8590 -1.9038
14720TIP3    H265652   3.598   1.207  11.233  1.0353  0.9047  0.0478
14721TIP3   OH265653   6.206   5.104  13.301 -0.0016 -0.2141  0.1409
14721TIP3    H165654   6.176   5.186  13.263 -1.5824 -0.5348  0.6135
14721TIP3    H265655   6.193   5.115  13.395  1.6460 -0.2920  0.3980
14722TIP3   OH265656   0.068   1.311  11.084  0.4895  0.2216  0.3183
14722TIP3    H165657   0.069   1.319  11.179 -1.3713 -2.9446  0.7810
14722TIP3    H265658   0.064   1.216  11.068  1.4025  0.5987 -2.9608
14723TIP3   OH265659   3.196   3.575  14.195  0.2539 -0.1456  0.1860
14723TIP3    H165660   3.199   3.665  14.161  1.5808  0.3164  1.3882
14723TIP3    H265661   3.104   3.550  14.191 -0.7759  2.5792  2.9982
14724TIP3   OH265662   2.918   5.938  11.771 -0.4583 -0.2877  0.0828
14724TIP3    H165663   2.938   6.027  11.742 -1.3389  0.2192  0.9801
14724TIP3    H265664   2.833   5.918  11.733 -0.0579 -0.9426 -0.5037
14725TIP3   OH265665   1.680   2.506   4.640 -0.0259  0.0080  0.1721
14725TIP3    H165666   1.715   2.444   4.576 -0.5439 -0.5906  0.4614
14725TIP3    H265667   1.588   2.518   4.614  0.3140  1.4235 -0.4685
14726TIP3   OH265668   3.752   0.548  16.532  0.7521 -0.2596 -0.3999
14726TIP3    H165669   3.806   0.478  16.568 -0.9260 -1.0439  0.7378
14726TIP3    H265670   3.671   0.505  16.506  0.6792  0.8525 -2.2068
14727TIP3   OH265671   3.952   3.060  16.731  0.0343  0.0555 -0.1674
14727TIP3    H165672   4.020   3.088  16.670  3.0664 -1.6708  2.0783
14727TIP3    H265673   3.922   2.976  16.696 -1.0523  0.8591 -1.2106
14728TIP3   OH265674   2.468   5.750  13.075  0.1132  0.1097  0.2847
14728TIP3    H165675   2.508   5.832  13.048  1.6168 -1.2128 -1.8126
14728TIP3    H265676   2.539   5.686  13.073 -1.0797 -1.3387  1.4518
14729TIP3   OH265677   2.992   5.643   6.550 -0.0098 -0.0494 -0.0543
14729TIP3    H165678   2.984   5.554   6.584 -0.4878 -0.3112 -0.8414
14729TIP3    H265679   3.079   5.647   6.511 -0.5107 -0.6093 -1.2534
14730TIP3   OH265680   3.648   2.082   0.091  0.2227 -0.0248  0.1688
14730TIP3    H165681   3.555   2.091   0.115  0.1436 -1.2479  0.4100
14730TIP3    H265682   3.695   2.109   0.170  0.0387 -0.5022  0.4484
14731TIP3   OH265683   4.506   5.254  14.734 -0.0019  0.2004 -0.2681
14731TIP3    H165684   4.591   5.214  14.755  0.0006  0.1286 -0.4147
14731TIP3    H265685   4.510   5.271  14.640  0.4798  1.6953  0.0004
14732TIP3   OH265686   1.338   2.519   4.312  0.4163  0.4901  0.3785
14732TIP3    H165687   1.404   2.535   4.380  0.6140  1.8983 -0.1077
14732TIP3    H265688   1.388   2.499   4.233  0.2200  0.1503  0.3376
14733TIP3   OH265689   5.188   5.603   3.379  0.3377  0.3923 -0.5044
14733TIP3    H165690   5.187   5.550   3.299  1.2631 -1.8940  0.9029
14733TIP3    H265691   5.127   5.675   3.361 -1.3543 -1.3926 -2.3610
14734TIP3   OH265692   3.164   3.940   5.342 -0.0664  0.0360 -0.5652
14734TIP3    H165693   3.231   3.872   5.352 -0.0722  0.0418 -0.4827
14734TIP3    H265694   3.083   3.892   5.325 -0.1514 -0.0013 -0.0870
14735TIP3   OH265695   0.977   5.430  15.234  0.2889  0.3661  0.5847
14735TIP3    H165696   0.912   5.499  15.221 -0.3798 -0.4624 -0.7011
14735TIP3    H265697   1.005   5.407  15.145 -0.2088 -1.6388  0.9032
14736TIP3   OH265698   0.941   6.793  16.892  0.5395 -0.7328 -0.2793
14736TIP3    H165699   0.898   6.715  16.856 -0.2656 -0.4348  0.0316
14736TIP3    H265700   0.875   6.834  16.947  1.0221  0.0679 -0.2830
14737TIP3   OH265701   5.828   0.469  15.836 -0.1598  0.3361  0.1666
14737TIP3    H165702   5.882   0.517  15.773 -1.1347 -0.5729 -1.4226
14737TIP3    H265703   5.868   0.488  15.921  0.5406  2.5117 -0.5733
14738TIP3   OH265704   3.474   4.983  11.300  0.5165 -0.0797 -0.1448
14738TIP3    H165705   3.393   4.958  11.256 -1.7976  3.8839  1.3858
14738TIP3    H265706   3.507   5.058  11.249  2.1802 -0.3772  0.4195
14739TIP3   OH265707   4.464   2.039  14.017 -0.3719  0.5431 -0.5523
14739TIP3    H165708   4.497   2.128  14.022 -0.8218  0.6556  0.8631
14739TIP3    H265709   4.378   2.043  14.059 -0.2460 -0.6193 -0.1530
14740TIP3   OH265710   3.623   1.674   3.652  0.4954  0.0098  0.1811
14740TIP3    H165711   3.577   1.758   3.645 -1.9442 -1.3922 -2.2954
14740TIP3    H265712   3.602   1.642   3.740 -1.3684  0.4978 -0.0479
14741TIP3   OH265713   2.908   3.447  14.133 -0.3922 -0.2607 -0.1701
14741TIP3    H165714   2.837   3.453  14.198 -0.3422  1.9021 -0.2283
14741TIP3    H265715   2.873   3.493  14.056  0.4720 -0.6145 -0.7824
14742TIP3   OH265716   2.599   4.837  14.038 -0.3495  0.5301 -0.7921
14742TIP3    H165717   2.601   4.784  13.959  0.2167  1.0514 -1.1325
14742TIP3    H265718   2.507   4.865  14.045 -0.8178 -1.0170 -0.2316
14743TIP3   OH265719   0.976   4.290   0.873 -0.4120  0.3845  0.0204
14743TIP3    H165720   1.064   4.262   0.844 -0.6251  0.0584 -0.3356
14743TIP3    H265721   0.992   4.353   0.943  0.1112 -1.7101  1.9116
14744TIP3   OH265722   5.585   5.471   1.650 -0.5119  0.0804 -0.2638
14744TIP3    H165723   5.588   5.548   1.592 -0.3155 -0.7175 -1.3451
14744TIP3    H265724   5.556   5.400   1.593 -0.3765 -0.7174  0.6522
14745TIP3   OH265725   6.728   4.651   4.263 -0.4379  0.1497 -0.2313
14745TIP3    H165726   6.770   4.629   4.346  0.0873  0.2709 -0.4667
14745TIP3    H265727   6.721   4.747   4.264 -0.3871  0.1540 -0.3509
14746TIP3   OH265728   6.219   5.120   0.406  0.1777  0.3152 -0.1318
14746TIP3    H165729   6.264   5.125   0.490 -1.0979  0.5493  0.5621
14746TIP3    H265730   6.146   5.181   0.414  0.0166  0.3226 -1.4059
14747TIP3   OH265731   4.175   0.401   4.287  0.0872 -0.3659  0.4435
14747TIP3    H165732   4.149   0.343   4.358  0.4546  0.6858  1.4687
14747TIP3    H265733   4.144   0.358   4.207  0.9993 -2.3181  1.0982
14748TIP3   OH265734   2.309   4.499  15.522 -0.2393 -0.1767  0.2274
14748TIP3    H165735   2.311   4.433  15.591  2.0330 -0.4713 -0.0204
14748TIP3    H265736   2.386   4.480  15.469 -0.9310  1.1497 -1.3416
14749TIP3   OH265737   5.778   4.603   1.459  0.1062  0.2551  0.7344
14749TIP3    H165738   5.776   4.562   1.546  0.7027 -1.5633 -0.0541
14749TIP3    H265739   5.870   4.604   1.435 -0.2347 -2.1832 -1.1052
14750TIP3   OH265740   0.826   4.809   5.935 -0.0185  0.0077 -0.4841
14750TIP3    H165741   0.785   4.726   5.957 -0.3018 -0.0864 -1.3556
14750TIP3    H265742   0.771   4.847   5.868  0.0204  0.9860  0.0167
14751TIP3   OH265743   3.424   3.357  13.745 -0.2255  0.1321 -0.1208
14751TIP3    H165744   3.489   3.425  13.731  1.2105 -1.1422  0.1128
14751TIP3    H265745   3.471   3.287  13.789 -1.7174 -0.9115 -0.0966
14752TIP3   OH265746   0.649   2.995   3.175 -0.0011  0.1722 -0.1269
14752TIP3    H165747   0.595   2.963   3.247 -0.4770 -1.1320 -1.0399
14752TIP3    H265748   0.673   2.917   3.126  1.5198  0.8843 -0.5818
14753TIP3   OH265749   6.789   1.147   4.298 -0.7482 -0.7629  0.3141
14753TIP3    H165750   6.855   1.148   4.368 -0.1031 -2.5043 -0.2077
14753TIP3    H265751   6.711   1.110   4.339 -1.2840  0.8584  0.8102
14754TIP3   OH265752   5.699   2.712  12.183  0.2079  0.3438  0.3217
14754TIP3    H165753   5.746   2.629  12.173 -2.1538 -1.7577  4.1003
14754TIP3    H265754   5.607   2.690  12.169 -0.3135  3.0321 -1.2271
14755TIP3   OH265755   5.429   3.832   1.567 -0.7551 -0.0208  0.6301
14755TIP3    H165756   5.370   3.905   1.585 -0.1157  0.0565  2.7896
14755TIP3    H265757   5.465   3.809   1.653  0.2089 -1.8983 -0.2080
14756TIP3   OH265758   2.098   2.787   1.504 -0.0593  0.1982 -0.3635
14756TIP3    H165759   2.138   2.821   1.584  2.0742  2.2042 -2.1454
14756TIP3    H265760   2.026   2.848   1.486 -1.0316 -0.6951  0.3608
14757TIP3   OH265761   4.710   2.460   0.517 -0.3368 -0.2341 -0.1864
14757TIP3    H165762   4.803   2.449   0.537 -0.2161 -0.9657 -1.0595
14757TIP3    H265763   4.706   2.460   0.421 -1.1715  0.3860 -0.1631
14758TIP3   OH265764   5.920   1.775  14.107  0.3597 -0.1910 -0.4768
14758TIP3    H165765   5.948   1.691  14.071  0.1817 -0.1508 -0.7078
14758TIP3    H265766   5.847   1.802  14.051  0.2518 -0.0049 -0.2492
14759TIP3   OH265767   5.779   0.179  13.296  0.0001  0.9681  0.5124
14759TIP3    H165768   5.698   0.230  13.291 -0.6525  0.0335  1.2207
14759TIP3    H265769   5.789   0.158  13.388  0.1280 -0.3776  0.2116
14760TIP3   OH265770   0.606   3.048   0.525 -0.1028  0.0804 -0.1045
14760TIP3    H165771   0.553   3.084   0.454 -0.2051  0.5214  0.1889
14760TIP3    H265772   0.546   2.990   0.572  0.4048 -1.5046 -1.3268
14761TIP3   OH265773   3.862   3.440  14.438 -0.2265  0.1509 -0.0581
14761TIP3    H165774   3.922   3.446  14.512 -2.8200 -2.6511  2.5378
14761TIP3    H265775   3.788   3.495  14.462 -1.0992 -0.7812 -0.5266
14762TIP3   OH265776   6.624   1.243  14.205  0.2549 -0.5831  0.1611
14762TIP3    H165777   6.693   1.223  14.142 -0.9688  0.4639 -1.6133
14762TIP3    H265778   6.669   1.258  14.287  1.9766 -1.4642 -0.5774
14763TIP3   OH265779   4.364   4.270  14.810  0.0943  0.3807  0.2063
14763TIP3    H165780   4.269   4.268  14.807  0.0955  0.4630  0.1116
14763TIP3    H265781   4.386   4.248  14.901 -0.0277  0.8602  0.3529
14764TIP3   OH265782   1.864   5.599  16.260 -0.1538 -0.1204 -0.5650
14764TIP3    H165783   1.781   5.556  16.239 -1.8887  1.9562  1.4756
14764TIP3    H265784   1.838   5.684  16.295  2.7573 -0.0241  1.7278
14765TIP3   OH265785   0.701   1.692   1.249 -0.3809  0.2349  0.7410
14765TIP3    H165786   0.790   1.727   1.245 -0.5024  0.4625 -0.0873
14765TIP3    H265787   0.712   1.607   1.292  0.2223  0.3077  0.7490
14766TIP3   OH265788   2.778   3.468   1.200 -0.4055  0.3590  1.1125
14766TIP3    H165789   2.862   3.427   1.219  0.5746  2.1758  0.9865
14766TIP3    H265790   2.781   3.489   1.106 -0.8730  0.7017  1.1646
14767TIP3   OH265791   5.242   5.661   1.656  0.5170 -0.1877  0.3509
14767TIP3    H165792   5.147   5.654   1.666  0.6212 -0.0678  1.5339
14767TIP3    H265793   5.261   5.614   1.575 -0.6672  0.6437 -0.4486
14768TIP3   OH265794   3.290   6.515  16.761  0.3070  0.4303 -0.1828
14768TIP3    H165795   3.339   6.595  16.780 -0.6572  1.4915 -1.8505
14768TIP3    H265796   3.245   6.494  16.842  1.1264  1.1693  0.4866
14769TIP3   OH265797   2.626   4.417   2.461 -0.0076  0.2469 -0.7442
14769TIP3    H165798   2.537   4.405   2.496 -0.1333 -0.2387 -1.2121
14769TIP3    H265799   2.635   4.511   2.449 -0.3159  0.3334 -0.3148
14770TIP3   OH265800   5.535   2.505  16.403  0.4315  0.7420 -0.6799
14770TIP3    H165801   5.523   2.416  16.368 -1.0153  0.6950 -0.1269
14770TIP3    H265802   5.525   2.561  16.326  1.2698  0.4561 -1.0191
14771TIP3   OH265803   4.930   6.175  14.000 -0.2548 -0.3174  0.3744
14771TIP3    H165804   4.888   6.167  13.914 -3.0959 -0.0158  1.6099
14771TIP3    H265805   4.972   6.091  14.015 -0.8954 -0.8531 -0.7380
14772TIP3   OH265806   6.194   1.724   2.645 -0.3893 -0.3431 -0.6854
14772TIP3    H165807   6.106   1.735   2.680 -0.0325 -0.1800  0.2007
14772TIP3    H265808   6.251   1.725   2.722  0.3870 -0.4717 -1.2383
14773TIP3   OH265809   1.484   2.156   2.272  0.5060  0.0351  0.1948
14773TIP3    H165810   1.508   2.173   2.363 -1.7946 -1.4416  1.1801
14773TIP3    H265811   1.546   2.089   2.243  1.3212  0.5906  0.5973
14774TIP3   OH265812   1.508   5.985  16.807  0.6359  0.2673  0.3761
14774TIP3    H165813   1.469   5.962  16.891 -2.1480 -0.0672 -0.9252
14774TIP3    H265814   1.474   6.072  16.788  2.9386  1.2847  0.4713
14775TIP3   OH265815   1.633   2.287  14.083 -0.0336  0.2040  0.3802
14775TIP3    H165816   1.616   2.341  14.006  0.9602 -0.3879 -0.2753
14775TIP3    H265817   1.558   2.304  14.141 -0.6906  0.8222 -0.6113
14776TIP3   OH265818   0.144   1.975   2.877  0.6589 -0.1243 -0.2610
14776TIP3    H165819   0.120   1.902   2.934 -1.6219 -0.0926 -1.0896
14776TIP3    H265820   0.076   2.041   2.892  1.0499  0.6367 -1.6478
14777TIP3   OH265821   0.405   3.714   6.146  0.5339 -0.1601 -0.5187
14777TIP3    H165822   0.412   3.649   6.076 -0.5255 -0.8145 -0.0439
14777TIP3    H265823   0.436   3.668   6.224  2.7886  0.9160 -0.7223
14778TIP3   OH265824   3.258   6.004  15.194  0.1403  0.0412  0.2820
14778TIP3    H165825   3.193   6.068  15.223  0.2916  0.0549  0.6030
14778TIP3    H265826   3.286   6.034  15.108 -0.0652  0.1960  0.2693
14779TIP3   OH265827   2.368   5.629  11.972 -0.2596  0.1504 -0.3180
14779TIP3    H165828   2.316   5.705  11.947 -0.7379 -0.3177 -0.7826
14779TIP3    H265829   2.402   5.595  11.889  1.4371  0.8949  0.0388
14780TIP3   OH265830   4.905   2.652   3.248  0.0014  0.2616  0.2634
14780TIP3    H165831   4.828   2.601   3.224  0.0391 -0.2971  1.2331
14780TIP3    H265832   4.897   2.733   3.199 -1.5288  0.4716  0.7894
14781TIP3   OH265833   0.399   3.206   3.986 -0.3334 -0.2079  0.1841
14781TIP3    H165834   0.442   3.243   4.064 -1.3514  0.3992  0.4813
14781TIP3    H265835   0.345   3.278   3.953  0.2893 -0.3824 -1.2501
14782TIP3   OH265836   5.547   4.084  16.928 -0.3545 -0.0498  0.4638
14782TIP3    H165837   5.470   4.094  16.872  0.5018 -2.2759 -1.3092
14782TIP3    H265838   5.574   4.173  16.949 -2.7724  0.7998  0.2782
14783TIP3   OH265839   0.423   5.823   4.532 -0.4458 -0.8703  0.2325
14783TIP3    H165840   0.412   5.831   4.627  0.1772  1.4404  0.1554
14783TIP3    H265841   0.516   5.800   4.521 -0.2256  0.0347  0.1546
14784TIP3   OH265842   1.028   4.316   4.565 -0.5222  0.4748  0.0095
14784TIP3    H165843   0.988   4.374   4.500 -0.2570  1.2043  0.4859
14784TIP3    H265844   1.094   4.370   4.609 -1.7748  0.5144  1.9968
14785TIP3   OH265845   5.706   1.868  13.441  0.6356 -0.3073 -0.0202
14785TIP3    H165846   5.679   1.861  13.350 -1.3042  1.0155  0.4020
14785TIP3    H265847   5.739   1.781  13.463 -0.6848 -1.2144 -1.4243
14786TIP3   OH265848   1.036   5.009   5.735  0.3990 -0.0404 -0.7640
14786TIP3    H165849   1.087   5.090   5.729  0.6493 -0.1444 -0.0967
14786TIP3    H265850   0.965   5.020   5.672  1.3224  0.0491 -1.8151
14787TIP3   OH265851   1.440   4.723   0.124  0.2935 -0.0327 -0.1988
14787TIP3    H165852   1.521   4.697   0.079 -0.2340  0.5051 -1.4814
14787TIP3    H265853   1.461   4.807   0.165 -0.1084  0.9642 -1.9761
14788TIP3   OH265854   2.385   4.980  13.398 -0.1791  0.0268  0.1523
14788TIP3    H165855   2.378   4.995  13.304 -0.5815 -0.4500  0.0942
14788TIP3    H265856   2.427   5.058  13.433 -0.4934  0.4286 -0.3574
14789TIP3   OH265857   4.327   1.711  16.308 -0.0547 -0.2872  0.4232
14789TIP3    H165858   4.273   1.633  16.299 -0.3262 -0.1441  0.7557
14789TIP3    H265859   4.352   1.713  16.400  1.8829 -1.2213 -0.0490
14790TIP3   OH265860   4.341   3.438   6.262  0.8515  0.0736 -0.2250
14790TIP3    H165861   4.412   3.470   6.318  1.3626 -2.0208  0.4044
14790TIP3    H265862   4.295   3.373   6.316 -1.0007  0.7375 -0.9455
14791TIP3   OH265863   1.146   6.261   4.027  0.0165 -0.0028 -0.2159
14791TIP3    H165864   1.096   6.257   3.946 -0.7886 -0.2861  0.2847
14791TIP3    H265865   1.234   6.233   4.002 -0.0135  0.6833 -1.1419
14792TIP3   OH265866   0.642   3.574  17.014 -0.0953 -0.7624  0.2918
14792TIP3    H165867   0.650   3.535  16.927  0.2322  0.1702 -0.1180
14792TIP3    H265868   0.727   3.557  17.055  0.3171  0.1281 -0.1613
14793TIP3   OH265869   4.240   3.643   2.341 -0.4520  0.4082  0.2707
14793TIP3    H165870   4.320   3.671   2.386  0.0179  0.3603 -0.5235
14793TIP3    H265871   4.227   3.709   2.273 -1.0221  0.3391  0.3058
14794TIP3   OH265872   4.115   4.317   5.045 -0.6370  1.0195  0.4552
14794TIP3    H165873   4.207   4.341   5.055 -0.9972  1.6348  2.6946
14794TIP3    H265874   4.079   4.322   5.133 -2.1646 -2.0010  0.1209
14795TIP3   OH265875   3.763   6.522  12.355 -0.2547 -0.5072  0.2892
14795TIP3    H165876   3.741   6.445  12.303  0.3695  0.4310 -1.4529
14795TIP3    H265877   3.758   6.595  12.293  1.5348  0.5432  1.2854
14796TIP3   OH265878   4.267   0.754   3.526 -0.2886  0.2408 -0.3510
14796TIP3    H165879   4.334   0.780   3.589 -0.2153  0.4347 -0.5083
14796TIP3    H265880   4.283   0.660   3.513 -0.4601  0.1451  0.1038
14797TIP3   OH265881   5.514   4.268  13.482 -0.7982 -0.2715  0.1506
14797TIP3    H165882   5.486   4.343  13.430 -1.7957 -0.9574 -0.3324
14797TIP3    H265883   5.433   4.223  13.505 -0.3600 -0.1749  2.0526
14798TIP3   OH265884   0.809   5.135   5.219 -0.2584 -0.3868  0.1367
14798TIP3    H165885   0.811   5.231   5.211 -0.1040 -0.4488 -0.6803
14798TIP3    H265886   0.727   5.110   5.178  1.1786 -0.8278 -2.7758
14799TIP3   OH265887   1.287   1.043  16.320  0.2452  1.1106  0.2341
14799TIP3    H165888   1.354   1.022  16.255 -0.3720 -0.0852 -0.0435
14799TIP3    H265889   1.334   1.086  16.391  1.5111 -0.8370  0.6159
14800TIP3   OH265890   3.929   3.887   4.916  0.1772 -0.1272  0.1878
14800TIP3    H165891   3.926   3.841   5.000  1.2240 -1.0921 -0.2796
14800TIP3    H265892   4.005   3.945   4.923 -0.7768  1.1006  0.5467
14801TIP3   OH265893   1.672   5.026  15.712  0.0459 -0.6901 -0.0419
14801TIP3    H165894   1.734   5.005  15.643 -1.0189 -1.3699 -0.8214
14801TIP3    H265895   1.707   4.982  15.790  0.3054 -1.4427 -0.5715
14802TIP3   OH265896   5.365   4.555   0.703  0.0501 -0.0839 -0.4671
14802TIP3    H165897   5.421   4.561   0.626  0.0965 -0.3510 -0.4575
14802TIP3    H265898   5.300   4.624   0.692 -0.9477 -1.1493 -1.5623
14803TIP3   OH265899   2.337   5.710  16.572 -0.3132  0.5249 -0.5157
14803TIP3    H165900   2.304   5.664  16.495  0.5925 -1.1407  0.0379
14803TIP3    H265901   2.261   5.719  16.629 -0.2622 -1.8302  0.0584
14804TIP3   OH265902   3.749   3.714  13.948  0.2566 -0.4314 -0.0135
14804TIP3    H165903   3.823   3.725  13.889  0.3479  0.4088  0.2373
14804TIP3    H265904   3.762   3.628  13.988  1.5637  0.0347  0.6397
14805TIP3   OH265905   1.789   2.816   1.754  0.0281  0.2512 -0.3881
14805TIP3    H165906   1.785   2.724   1.728 -0.6413 -0.6440  2.4468
14805TIP3    H265907   1.881   2.839   1.747  0.7002 -1.5698  1.4376
14806TIP3   OH265908   4.980   3.358   3.746  0.3587  0.0482 -0.6820
14806TIP3    H165909   5.051   3.353   3.811  0.7099  0.9315 -0.9805
14806TIP3    H265910   5.024   3.350   3.662 -0.2319 -2.4140 -0.8298
14807TIP3   OH265911   3.770   0.696   4.476  0.1175  0.2591  0.0971
14807TIP3    H165912   3.675   0.704   4.487  0.0083 -0.8896  0.1110
14807TIP3    H265913   3.782   0.612   4.432  1.1519  0.3054  0.2614
14808TIP3   OH265914   6.598   2.664   4.794  0.2953 -0.5491  1.1600
14808TIP3    H165915   6.680   2.713   4.793 -0.9092  1.5846  0.3513
14808TIP3    H265916   6.536   2.720   4.840 -1.0631 -1.4832  0.5770
14809TIP3   OH265917   1.643   1.950  15.861 -0.1738  0.2259 -0.2597
14809TIP3    H165918   1.708   1.912  15.921  0.2420  0.4552 -0.5569
14809TIP3    H265919   1.601   2.019  15.912  1.0731  1.2817 -0.6254
14810TIP3   OH265920   3.816   3.895  14.139  0.4869  0.1769  0.3289
14810TIP3    H165921   3.872   3.860  14.209  3.2704  0.3157 -1.6479
14810TIP3    H265922   3.789   3.818  14.090 -0.0690  0.2051  0.5910
14811TIP3   OH265923   1.997   4.448   0.132 -0.0687  0.2072 -0.3260
14811TIP3    H165924   1.942   4.499   0.073  0.5748  0.7224 -0.5026
14811TIP3    H265925   1.964   4.359   0.125 -1.5848  0.6785  0.4128
14812TIP3   OH265926   5.888   1.520   0.444 -0.0394  0.4921  0.8331
14812TIP3    H165927   5.863   1.452   0.382 -0.6129  0.6436  0.8927
14812TIP3    H265928   5.965   1.562   0.404 -2.1994  2.6869 -1.3852
14813TIP3   OH265929   4.093   1.191  15.205  0.0959  0.0275  0.0812
14813TIP3    H165930   4.084   1.283  15.232 -1.4011  0.0105 -0.2665
14813TIP3    H265931   4.150   1.194  15.128 -0.0538  0.6769 -0.0072
14814TIP3   OH265932   4.748   1.752   5.263  0.0663  0.4393 -0.1492
14814TIP3    H165933   4.662   1.727   5.227 -0.1047 -0.3453  0.7747
14814TIP3    H265934   4.730   1.832   5.312 -0.3047 -0.1582  0.7029
14815TIP3   OH265935   5.089   6.148  10.411  0.1276 -0.8964  0.0025
14815TIP3    H165936   5.017   6.093  10.379 -0.7859 -0.6628  1.5655
14815TIP3    H265937   5.164   6.121  10.359 -1.2314 -0.5877 -2.2500
14816TIP3   OH265938   3.695   4.371  12.366  0.3382 -0.0277 -0.4913
14816TIP3    H165939   3.641   4.309  12.317 -0.1794 -0.1901  0.2866
14816TIP3    H265940   3.697   4.450  12.311 -1.1153  0.1658 -0.2859
14817TIP3   OH265941   6.762   2.819   3.032 -0.3451  0.3390  0.4461
14817TIP3    H165942   6.777   2.725   3.047  0.1201  0.4567  0.7354
14817TIP3    H265943   6.693   2.843   3.095  0.1691  0.3852  1.0006
14818TIP3   OH265944   5.196   0.333  13.478 -0.6334 -0.2955 -0.0344
14818TIP3    H165945   5.178   0.269  13.547  2.3648 -1.3307 -0.0624
14818TIP3    H265946   5.236   0.407  13.524 -0.4076 -0.1595 -0.4441
14819TIP3   OH265947   3.077   3.040   3.947 -0.6317 -0.3674 -0.4809
14819TIP3    H165948   2.988   3.039   3.983 -0.0566 -2.0581  1.0557
14819TIP3    H265949   3.079   2.965   3.887 -0.1275 -0.6612 -0.1107
14820TIP3   OH265950   1.120   0.546  13.195 -0.0994  0.0151 -0.1589
14820TIP3    H165951   1.097   0.455  13.176 -1.8048  0.5712 -0.9348
14820TIP3    H265952   1.165   0.541  13.280  0.6906 -1.6278 -0.6124
14821TIP3   OH265953   3.156   6.004   0.725 -0.3489  0.1298  0.2187
14821TIP3    H165954   3.175   6.097   0.711 -0.8079  0.4040  1.3055
14821TIP3    H265955   3.076   6.004   0.777  1.0030 -0.8001  2.4287
14822TIP3   OH265956   3.339   1.693  13.297 -0.4629 -0.0943 -0.2686
14822TIP3    H165957   3.290   1.710  13.377  1.0931  2.4313  0.2609
14822TIP3    H265958   3.326   1.772  13.244  1.8329  0.0861 -0.6831
14823TIP3   OH265959   2.252   1.287   0.180 -0.2432  0.3801  0.3765
14823TIP3    H165960   2.313   1.232   0.130  2.0127  3.0482 -0.0481
14823TIP3    H265961   2.168   1.276   0.136  0.5997 -1.0926 -0.9583
14824TIP3   OH265962   1.742   3.903   2.131 -0.3847 -0.0442  0.0148
14824TIP3    H165963   1.792   3.854   2.066 -0.2656 -1.6487  1.2674
14824TIP3    H265964   1.782   3.991   2.129  3.0492 -1.3896  1.4177
14825TIP3   OH265965   3.992   6.338   4.655  0.3383  0.2567 -0.0975
14825TIP3    H165966   4.058   6.364   4.719  0.1919  0.5278 -0.0590
14825TIP3    H265967   3.988   6.411   4.594  1.3616 -0.5054 -1.1277
14826TIP3   OH265968   1.900   0.240  15.947 -0.0412  0.0604 -0.1673
14826TIP3    H165969   1.976   0.294  15.925  0.8945 -0.4424  1.6552
14826TIP3    H265970   1.842   0.298  15.995  0.3178 -0.1578  0.5488
14827TIP3   OH265971   6.437   2.836   0.300  0.1006 -0.2104  0.1861
14827TIP3    H165972   6.482   2.848   0.384 -1.7218  1.9697  0.9864
14827TIP3    H265973   6.505   2.847   0.234  1.0946  1.0369  1.3500
14828TIP3   OH265974   1.606   3.293   6.143  0.5210  0.4291  0.2737
14828TIP3    H165975   1.657   3.212   6.147  0.0350  0.1144  0.2290
14828TIP3    H265976   1.649   3.352   6.205  0.9637  0.1854  0.2022
14829TIP3   OH265977   1.639   3.990  14.527 -0.1094 -0.3910 -0.0723
14829TIP3    H165978   1.672   4.022  14.443  0.9061 -0.4978  0.2699
14829TIP3    H265979   1.601   4.067  14.569 -0.6727 -0.3473 -0.6460
14830TIP3   OH265980   2.038   3.483   6.482 -0.2505  0.3722  0.4481
14830TIP3    H165981   1.951   3.461   6.516 -0.4535  0.4651 -0.0031
14830TIP3    H265982   2.095   3.481   6.559 -0.4690 -0.6545  0.6047
14831TIP3   OH265983   2.647   2.612  11.922 -0.5388 -0.2305  0.3456
14831TIP3    H165984   2.634   2.601  12.017 -2.5919  1.3827  0.3049
14831TIP3    H265985   2.576   2.561  11.883  0.8802 -1.7029 -0.4134
14832TIP3   OH265986   4.827   3.206  11.046 -0.2049 -0.2764 -0.0475
14832TIP3    H165987   4.815   3.115  11.018  0.7069 -0.6016  0.5502
14832TIP3    H265988   4.743   3.248  11.029 -0.7458 -1.3111 -0.0259
14833TIP3   OH265989   2.138   0.821  13.237  0.3606 -0.4075 -0.5702
14833TIP3    H165990   2.083   0.772  13.176 -1.7221  0.6575  0.3611
14833TIP3    H265991   2.152   0.905  13.194 -0.1200 -0.0908 -0.1177
14834TIP3   OH265992   2.145   3.526   0.159 -0.2400  0.1670  0.6421
14834TIP3    H165993   2.096   3.445   0.145  0.9225 -0.6667  1.2282
14834TIP3    H265994   2.110   3.586   0.094 -2.4586 -0.1759  1.4167
14835TIP3   OH265995   5.222   0.383  16.694  0.6859  0.3693 -0.0708
14835TIP3    H165996   5.221   0.382  16.790 -1.2563  2.0394  0.0037
14835TIP3    H265997   5.312   0.404  16.670  1.0510  0.5743  1.4195
14836TIP3   OH265998   5.221   1.486   5.387 -0.2337  0.2123 -0.2365
14836TIP3    H165999   5.143   1.542   5.390 -0.3706 -0.0016  1.4503
14836TIP3    H266000   5.200   1.419   5.323 -0.9529  0.8512 -0.6805
14837TIP3   OH266001   6.373   0.190   0.855 -0.4934 -0.0753 -0.0590
14837TIP3    H166002   6.461   0.200   0.819 -0.2302  2.2147  1.0241
14837TIP3    H266003   6.386   0.151   0.941 -0.4438  0.8265  0.3559
14838TIP3   OH266004   5.768   0.905  14.263 -0.2344  0.1480 -0.1748
14838TIP3    H166005   5.676   0.883  14.248  0.0857 -0.5498 -1.2403
14838TIP3    H266006   5.792   0.957  14.186 -0.2572  2.0531  1.0387
14839TIP3   OH266007   6.414   1.376  16.678 -0.1733  0.2519  0.2471
14839TIP3    H166008   6.412   1.464  16.716  0.2981  1.0651 -1.4833
14839TIP3    H266009   6.327   1.341  16.696 -0.7202  1.4695  0.1224
14840TIP3   OH266010   3.406   6.734  16.854 -0.7345  0.0193  0.0382
14840TIP3    H166011   3.424   6.741  16.948  2.1855 -0.0551 -0.3981
14840TIP3    H266012   3.483   6.774  16.813 -2.1911  0.5590 -2.3505
14841TIP3   OH266013   4.933   2.233  16.763 -0.4208  0.4021  0.2166
14841TIP3    H166014   5.014   2.182  16.751  0.8771  2.5468 -0.7537
14841TIP3    H266015   4.908   2.216  16.853  0.4126 -1.2495  0.1908
14842TIP3   OH266016   3.473   4.834   1.617  0.3467 -0.5611  0.1886
14842TIP3    H166017   3.564   4.840   1.589  0.3781  0.9298  0.5048
14842TIP3    H266018   3.438   4.758   1.570  1.6688 -0.9861 -0.1496
14843TIP3   OH266019   1.934   2.933  14.922 -0.0673  0.6185  0.1797
14843TIP3    H166020   1.863   2.886  14.966  0.1081  0.8159  0.6847
14843TIP3    H266021   2.005   2.934  14.987  0.3371  0.5674 -0.2556
14844TIP3   OH266022   0.216   5.791   3.791  0.3038 -0.3301  0.1072
14844TIP3    H166023   0.178   5.793   3.703 -0.9665  1.0178  0.6480
14844TIP3    H266024   0.309   5.776   3.777  0.1301 -0.0296 -1.4745
14845TIP3   OH266025   6.597   6.085  10.264  0.1010  0.0834 -0.8088
14845TIP3    H166026   6.684   6.055  10.239  1.0547  0.0684  2.1465
14845TIP3    H266027   6.544   6.005  10.271  0.5023 -0.1518 -0.4155
14846TIP3   OH266028   6.508   1.104   1.817 -0.3187 -0.3390 -0.1970
14846TIP3    H166029   6.519   1.178   1.876 -1.8346 -0.3761  0.1654
14846TIP3    H266030   6.573   1.040   1.846  0.4861  0.5379 -0.0282
14847TIP3   OH266031   0.256   5.916   0.671  0.2990  0.0003  0.7110
14847TIP3    H166032   0.269   6.001   0.628  1.3711 -1.6114 -2.4657
14847TIP3    H266033   0.333   5.906   0.727  1.2730  0.2901 -0.5138
14848TIP3   OH266034   3.122   3.318  14.015 -0.3995  0.1142 -0.1148
14848TIP3    H166035   3.069   3.371  14.074  0.3455  1.1034 -0.3082
14848TIP3    H266036   3.176   3.382  13.968 -0.4896 -0.7071 -1.3673
14849TIP3   OH266037   3.178   2.943  12.232 -0.1064  0.2173 -0.3012
14849TIP3    H166038   3.248   3.002  12.203 -1.4578  1.7755 -0.5417
14849TIP3    H266039   3.224   2.866  12.264  1.7511  1.3353 -0.1115
14850TIP3   OH266040   1.937   5.965   2.897  0.3867  0.1000  0.3067
14850TIP3    H166041   1.955   5.927   2.983  1.5980  0.1307  0.0890
14850TIP3    H266042   1.887   6.044   2.916  0.8414  0.2328  1.0150
14851TIP3   OH266043   0.358   3.739   1.823  0.4997 -0.1024  0.1517
14851TIP3    H166044   0.305   3.811   1.857 -0.1965  0.9678 -2.8733
14851TIP3    H266045   0.397   3.775   1.743  2.2689 -2.2897 -0.0485
14852TIP3   OH266046   1.742   5.645   1.067 -0.6713 -0.2311  0.2302
14852TIP3    H166047   1.675   5.583   1.094 -1.1931  0.5452  0.7970
14852TIP3    H266048   1.778   5.677   1.150  0.2256 -0.4565 -0.0704
14853TIP3   OH266049   2.421   4.399   4.894 -0.0016  0.4798  0.0186
14853TIP3    H166050   2.489   4.372   4.955  0.5274  0.7672 -0.4278
14853TIP3    H266051   2.372   4.466   4.940  0.6606  0.9978 -0.0190
14854TIP3   OH266052   6.264   6.294  12.669  0.1771 -0.1186 -0.5218
14854TIP3    H166053   6.216   6.330  12.743  0.6543 -2.3571  0.9868
14854TIP3    H266054   6.327   6.363  12.644 -0.7677  1.1022  0.3760
14855TIP3   OH266055   6.258   5.842   0.675  0.4802  0.1007  0.3594
14855TIP3    H166056   6.192   5.792   0.722  0.2071  0.7184  0.6515
14855TIP3    H266057   6.267   5.797   0.591  0.2814 -0.4590  0.6316
14856TIP3   OH266058   2.973   6.202  16.523  0.0857 -0.1234 -0.3978
14856TIP3    H166059   2.992   6.293  16.548 -1.6827  0.5858 -1.4889
14856TIP3    H266060   2.881   6.202  16.498  0.5084 -1.8153 -2.2154
14857TIP3   OH266061   3.429   6.153   3.795 -0.6036  0.3576 -0.2197
14857TIP3    H166062   3.481   6.232   3.812 -0.2983  0.0625  0.2301
14857TIP3    H266063   3.342   6.175   3.827  0.2483 -0.6638  3.2410
14858TIP3   OH266064   4.903   3.145   1.867 -0.4475  0.7460 -0.1215
14858TIP3    H166065   4.891   3.056   1.900 -1.5991  0.1694 -1.9931
14858TIP3    H266066   4.921   3.197   1.946 -2.5948 -0.6369  1.3781
14859TIP3   OH266067   0.119   4.774   3.650 -0.6805 -0.9248  0.4373
14859TIP3    H166068   0.205   4.808   3.627 -0.0522 -0.6696  2.8349
14859TIP3    H266069   0.094   4.824   3.728 -1.8240 -2.7604  1.3158
14860TIP3   OH266070   3.550   6.506  15.581  0.3780  0.0911 -0.7423
14860TIP3    H166071   3.593   6.454  15.648 -0.4773 -0.8003 -0.8656
14860TIP3    H266072   3.584   6.471  15.498  1.9815  1.6616 -0.8111
14861TIP3   OH266073   4.997   0.606  13.359 -0.1015 -0.4742 -0.3889
14861TIP3    H166074   5.073   0.611  13.417  0.5360 -0.8645 -1.1807
14861TIP3    H266075   4.968   0.515  13.366 -1.2947 -0.0399  0.8818
14862TIP3   OH266076   0.603   5.749  11.869 -0.0294 -0.1157 -0.7323
14862TIP3    H166077   0.628   5.678  11.810  1.7787 -0.9601  0.9158
14862TIP3    H266078   0.555   5.705  11.940  0.6502  0.3512  0.0394
14863TIP3   OH266079   5.476   3.800   4.671 -0.3382  0.0364  0.3233
14863TIP3    H166080   5.540   3.741   4.712  0.0683 -0.4152 -0.8948
14863TIP3    H266081   5.437   3.847   4.744  0.9706 -0.0967  1.1565
14864TIP3   OH266082   5.543   6.092   4.505 -0.0720 -0.2607 -0.4849
14864TIP3    H166083   5.520   6.158   4.571  1.8600 -0.4970  0.4682
14864TIP3    H266084   5.526   6.136   4.421  0.3737  1.1554  0.1407
14865TIP3   OH266085   6.415   4.863   3.367 -0.7443 -0.4248 -0.1962
14865TIP3    H166086   6.500   4.833   3.400 -0.6629 -0.1748 -0.1751
14865TIP3    H266087   6.352   4.834   3.433 -0.4328  1.2057  0.8539
14866TIP3   OH266088   3.550   2.784  12.874  0.1083  0.0772  0.1468
14866TIP3    H166089   3.557   2.879  12.890 -0.1532  0.0898  0.1821
14866TIP3    H266090   3.509   2.750  12.953  2.2134 -0.3774  1.1297
14867TIP3   OH266091   5.317   1.110   5.346  0.6698 -0.1138 -0.0565
14867TIP3    H166092   5.309   1.034   5.288  0.3428 -1.0649  1.1634
14867TIP3    H266093   5.235   1.110   5.396  1.1322  0.3719  0.7335
14868TIP3   OH266094   6.770   5.077   6.177 -0.2882 -0.1763  0.6788
14868TIP3    H166095   6.720   5.035   6.248  0.1594  1.7873  2.2409
14868TIP3    H266096   6.730   5.164   6.168 -0.7656 -0.5841 -1.9999
14869TIP3   OH266097   4.900   3.773  15.380  0.3565 -0.1557  0.6357
14869TIP3    H166098   4.841   3.752  15.453 -1.0067  1.1594 -0.0457
14869TIP3    H266099   4.849   3.751  15.302  0.8343  0.8191  0.0401
14870TIP3   OH266100   3.779   5.424   4.331 -0.1777  0.3847 -0.0395
14870TIP3    H166101   3.794   5.375   4.412  1.6578  2.9425  1.3074
14870TIP3    H266102   3.851   5.398   4.274  0.4867  1.0208  0.4757
14871TIP3   OH266103   2.411   3.286  13.266  0.6699 -0.1180  0.3417
14871TIP3    H166104   2.368   3.205  13.295 -1.4437  0.8868  0.1887
14871TIP3    H266105   2.461   3.260  13.188  1.3901 -1.5824  1.2348
14872TIP3   OH266106   4.876   4.865   1.965 -0.2264 -0.6098  0.0235
14872TIP3    H166107   4.854   4.915   1.886  2.9562  1.6447  0.3725
14872TIP3    H266108   4.810   4.892   2.029 -0.0287  1.3055 -0.5207
14873TIP3   OH266109   2.125   4.695  12.738 -0.1826  0.0689  0.5794
14873TIP3    H166110   2.213   4.663  12.760  0.1464  0.4194 -0.1967
14873TIP3    H266111   2.067   4.626  12.770  0.3985 -0.3792  0.7092
14874TIP3   OH266112   5.441   2.867   3.522 -0.4652 -0.4259  0.5581
14874TIP3    H166113   5.386   2.812   3.578 -0.7624 -0.4978  0.2004
14874TIP3    H266114   5.503   2.807   3.482  0.0110 -0.3157  1.1156
14875TIP3   OH266115   2.480   4.106   6.381 -0.9441  0.0562 -0.1578
14875TIP3    H166116   2.503   4.187   6.426 -2.1003  1.1437 -1.4235
14875TIP3    H266117   2.564   4.066   6.358 -0.3550  0.4248  1.2641
14876TIP3   OH266118   3.546   0.142   4.920  0.5113 -0.3819  0.0865
14876TIP3    H166119   3.459   0.100   4.919  0.7891 -0.9703 -0.5628
14876TIP3    H266120   3.528   0.233   4.941 -0.2754 -0.4901 -0.0668
14877TIP3   OH266121   5.874   3.910  11.700 -0.6518  0.3993  0.2183
14877TIP3    H166122   5.780   3.898  11.687 -0.9191 -1.3614  2.8855
14877TIP3    H266123   5.896   3.849  11.771  2.5211  0.7365 -0.3267
14878TIP3   OH266124   0.491   1.067  11.937  0.4728  0.2318 -0.4321
14878TIP3    H166125   0.474   1.012  12.014  1.8423  0.5206  0.1065
14878TIP3    H266126   0.575   1.035  11.903  0.2756  0.6416 -1.3429
14879TIP3   OH266127   0.184   4.198  14.374  0.0085  0.1162 -0.2108
14879TIP3    H166128   0.156   4.260  14.306  1.2687 -0.5500 -1.3859
14879TIP3    H266129   0.113   4.134  14.379 -0.0215  0.0735 -1.0362
14880TIP3   OH266130   2.373   4.247   4.432  0.1180  0.3336  0.1905
14880TIP3    H166131   2.293   4.295   4.450  0.9068  1.1601  1.5993
14880TIP3    H266132   2.414   4.233   4.517  0.7123 -1.4786 -0.3244
14881TIP3   OH266133   5.815   4.680   3.331 -0.6379 -0.6309  0.2181
14881TIP3    H166134   5.893   4.659   3.280 -0.5618 -1.2342  0.5826
14881TIP3    H266135   5.782   4.761   3.291  0.3570 -0.1753  0.2740
14882TIP3   OH266136   2.667   3.305  13.116 -0.4454  0.2824 -0.0346
14882TIP3    H166137   2.678   3.315  13.022  2.1956 -0.3758  0.1275
14882TIP3    H266138   2.693   3.389  13.153 -2.3163  0.8406  0.1231
14883TIP3   OH266139   0.216   1.816  15.713 -0.1348  0.3908  0.5930
14883TIP3    H166140   0.303   1.777  15.705 -0.3718 -0.1238  0.4655
14883TIP3    H266141   0.171   1.791  15.633 -0.7245 -0.1850  1.0895
14884TIP3   OH266142   2.724   1.331  13.286  0.1268  0.3032  0.4736
14884TIP3    H166143   2.697   1.272  13.356  0.2422 -1.1377 -0.6650
14884TIP3    H266144   2.642   1.358  13.244  0.1286  0.3676  0.5096
14885TIP3   OH266145   1.713   3.439  15.169 -0.5201  0.0435 -0.5205
14885TIP3    H166146   1.621   3.427  15.143 -0.7337  1.3271 -0.4294
14885TIP3    H266147   1.725   3.534  15.171  0.9812 -0.1020 -1.0914
14886TIP3   OH266148   4.348   6.170   1.151 -0.8469  0.2018 -0.2874
14886TIP3    H166149   4.408   6.176   1.225  0.4396  0.5172 -1.3131
14886TIP3    H266150   4.262   6.186   1.189 -0.3686 -0.7973  1.3204
14887TIP3   OH266151   3.972   4.609  14.352 -0.0752 -0.2447 -0.5303
14887TIP3    H166152   4.058   4.615  14.311  0.1340 -1.1037 -0.2367
14887TIP3    H266153   3.990   4.584  14.443 -0.5975  0.2855 -0.2704
14888TIP3   OH266154   1.422   1.458   3.324 -0.1706 -0.0571 -0.3420
14888TIP3    H166155   1.421   1.365   3.345  0.7163  0.0864  0.3765
14888TIP3    H266156   1.339   1.492   3.358  0.8558  0.0147  2.2740
14889TIP3   OH266157   2.541   1.189  11.990 -1.0298 -0.3541 -0.5424
14889TIP3    H166158   2.490   1.114  12.019 -0.7167  0.5542  2.7609
14889TIP3    H266159   2.632   1.161  11.997 -0.9030  0.3204  0.9173
14890TIP3   OH266160   6.428   1.392  16.352  0.0473 -0.2024  0.2106
14890TIP3    H166161   6.439   1.305  16.390 -0.3718 -0.1524  0.4452
14890TIP3    H266162   6.337   1.394  16.322  0.6821 -0.7049 -1.9314
14891TIP3   OH266163   6.134   2.719   6.105 -0.0978 -0.0559  0.0419
14891TIP3    H166164   6.050   2.740   6.144 -0.3909  1.2170 -1.2184
14891TIP3    H266165   6.195   2.783   6.141 -0.2493  0.7530 -1.0986
14892TIP3   OH266166   5.594   2.566  12.656 -0.5690 -0.0114  0.0286
14892TIP3    H166167   5.589   2.592  12.748 -1.5297 -1.4792  0.4155
14892TIP3    H266168   5.554   2.640  12.608 -1.3665  0.1452  0.9134
14893TIP3   OH266169   6.381   3.859   2.535  0.0056 -0.0224 -0.0403
14893TIP3    H166170   6.300   3.900   2.507 -0.4622 -0.8722  0.0258
14893TIP3    H266171   6.367   3.765   2.518  0.6746 -0.2615  0.6902
14894TIP3   OH266172   1.296   2.778   4.282  0.2414  0.3874 -0.3952
14894TIP3    H166173   1.334   2.692   4.268 -0.1259  0.0653  0.5519
14894TIP3    H266174   1.357   2.839   4.239  0.5122 -0.3259 -1.0472
14895TIP3   OH266175   2.579   2.361  16.707 -0.1289 -0.1178  0.3672
14895TIP3    H166176   2.659   2.363  16.759 -0.1360  1.1957  0.3719
14895TIP3    H266177   2.528   2.436  16.739 -0.6353  0.0376 -0.7495
14896TIP3   OH266178   4.844   2.860  10.932  0.0045 -0.2417  0.2206
14896TIP3    H166179   4.925   2.857  10.982 -0.4619 -2.4326  0.9796
14896TIP3    H266180   4.870   2.893  10.846  1.8889 -1.6214  0.1839
14897TIP3   OH266181   3.612   3.193   5.228 -0.9683 -0.3906 -0.4530
14897TIP3    H166182   3.689   3.205   5.283 -1.2901 -1.5253  0.2825
14897TIP3    H266183   3.566   3.277   5.233 -0.1947  0.0366 -0.2722
14898TIP3   OH266184   5.252   1.066   0.801 -0.5123 -0.2399 -0.4633
14898TIP3    H166185   5.272   1.097   0.713  0.2689 -1.2322 -0.6553
14898TIP3    H266186   5.281   1.137   0.859  0.2390 -0.1455 -0.9449
14899TIP3   OH266187   2.747   3.279   0.199 -0.0340 -0.4829  0.0805
14899TIP3    H166188   2.741   3.269   0.104  0.7557 -0.5096  0.0252
14899TIP3    H266189   2.656   3.286   0.229 -0.2457  2.0435 -0.9415
14900TIP3   OH266190   4.114   0.741  11.565 -0.3343 -0.5099  0.5064
14900TIP3    H166191   4.122   0.836  11.574  1.9701 -0.7107  1.2656
14900TIP3    H266192   4.116   0.725  11.471  0.4739  0.1309  0.4086
14901TIP3   OH266193   5.313   0.893  14.030 -0.2925 -0.9175  0.3511
14901TIP3    H166194   5.277   0.812  13.995  0.5292 -0.9759 -0.4226
14901TIP3    H266195   5.330   0.947  13.952  2.6600 -1.4908  0.4807
14902TIP3   OH266196   4.499   6.348  12.176  0.3069  0.1250 -0.0227
14902TIP3    H166197   4.490   6.431  12.130 -2.4531 -0.4635 -0.7031
14902TIP3    H266198   4.579   6.310  12.139  1.5375  2.3441  0.1923
14903TIP3   OH266199   2.601   3.728  13.828  0.7252  0.4073  0.2024
14903TIP3    H166200   2.596   3.753  13.920 -0.5179  1.0957 -0.0296
14903TIP3    H266201   2.518   3.758  13.790  0.6779 -0.9641 -0.8762
14904TIP3   OH266202   3.208   4.320   2.795 -0.6437  0.0178  0.5081
14904TIP3    H166203   3.288   4.268   2.789  0.0155  1.0599 -0.0454
14904TIP3    H266204   3.234   4.398   2.845 -1.2170  0.5246  0.0345
14905TIP3   OH266205   6.537   6.005  17.071  0.4139 -0.2225  0.1253
14905TIP3    H166206   6.459   5.993  17.016  0.6451  1.6552 -0.6617
14905TIP3    H266207   6.591   6.067  17.023  0.6139  1.5636  2.4902
14906TIP3   OH266208   5.191   3.558   4.848 -0.0868  0.0665 -0.0954
14906TIP3    H166209   5.221   3.474   4.883  0.7501  1.0249  1.5863
14906TIP3    H266210   5.145   3.535   4.767  3.4773 -1.6914 -1.8681
14907TIP3   OH266211   0.316   2.848   3.148  0.2931 -0.0310  0.0634
14907TIP3    H166212   0.250   2.781   3.170 -0.4930  0.8585  0.5153
14907TIP3    H266213   0.359   2.815   3.070 -0.8975 -0.5186 -0.4192
14908TIP3   OH266214   2.499   1.984   6.398 -0.7396  0.1124  0.4965
14908TIP3    H166215   2.547   1.987   6.481 -0.1410  0.9074  0.1394
14908TIP3    H266216   2.413   1.949   6.421  0.1028 -1.6542  1.0953
14909TIP3   OH266217   1.253   1.023   1.995 -0.3346 -0.3726  1.2566
14909TIP3    H166218   1.212   1.107   2.017  0.5549  0.3150  0.4067
14909TIP3    H266219   1.224   1.005   1.905  1.7794  0.5336  0.3312
14910TIP3   OH266220   4.701   5.779  13.273  0.1111 -0.3817  0.2767
14910TIP3    H166221   4.613   5.810  13.252 -0.8652 -2.1594  1.4398
14910TIP3    H266222   4.702   5.688  13.243  1.5055 -0.4231  0.4054
14911TIP3   OH266223   3.929   3.375   6.309 -0.3815 -0.5355  0.0503
14911TIP3    H166224   3.844   3.371   6.265 -1.1880 -2.2358  1.6311
14911TIP3    H266225   3.908   3.397   6.399  1.1546  1.9058 -0.1112
14912TIP3   OH266226   5.907   1.317   4.193 -0.2870 -1.0457  0.1772
14912TIP3    H166227   5.888   1.375   4.120  1.3543 -0.0072  0.5094
14912TIP3    H266228   5.948   1.240   4.152 -0.1520 -0.8422 -0.0740
14913TIP3   OH266229   1.609   3.398   3.961 -0.4006  0.6783 -0.1323
14913TIP3    H166230   1.594   3.310   3.927  1.7022  1.0558 -2.2771
14913TIP3    H266231   1.651   3.384   4.046 -0.7064 -0.3606 -0.1412
14914TIP3   OH266232   4.194   0.932   3.184 -0.0798  0.0349 -0.1788
14914TIP3    H166233   4.262   0.969   3.239 -0.8779 -1.2473  1.7824
14914TIP3    H266234   4.240   0.893   3.110  1.0482  1.5076 -0.2843
14915TIP3   OH266235   5.820   6.090   1.738  0.1502 -0.0949  0.4565
14915TIP3    H166236   5.886   6.103   1.670  0.9460 -0.1857  1.1969
14915TIP3    H266237   5.870   6.074   1.818 -0.7678 -0.6136  0.9517
14916TIP3   OH266238   2.010   1.080  13.046  0.4446  0.8228  0.6605
14916TIP3    H166239   1.967   1.004  13.084 -0.2594  0.6550 -0.4446
14916TIP3    H266240   1.976   1.155  13.096  0.6703  0.4885  1.3331
14917TIP3   OH266241   3.924   0.674   0.868 -0.2501  0.5640  0.1293
14917TIP3    H166242   3.842   0.625   0.870  0.1583 -0.2022 -1.1369
14917TIP3    H266243   3.906   0.752   0.921 -1.8781  0.5423 -0.3392
14918TIP3   OH266244   1.753   1.054   0.769  0.0572 -0.1402  0.5655
14918TIP3    H166245   1.677   1.001   0.794 -0.1625 -0.0966  0.0130
14918TIP3    H266246   1.755   1.050   0.673  1.1256 -0.6426  0.5936
14919TIP3   OH266247   3.813   5.262   1.720  0.0039  0.2351 -0.0308
14919TIP3    H166248   3.772   5.198   1.662 -1.6665  1.3255 -0.1176
14919TIP3    H266249   3.742   5.320   1.745  1.1690  1.1445  1.2880
14920TIP3   OH266250   0.806   3.317  10.299 -0.1420 -0.4439 -0.0147
14920TIP3    H166251   0.741   3.386  10.314 -0.9375 -1.0620 -0.5753
14920TIP3    H266252   0.873   3.333  10.366 -0.9149  0.1320  0.6428
14921TIP3   OH266253   4.997   1.639   4.671  0.0931  0.4145 -0.1540
14921TIP3    H166254   5.010   1.731   4.648  2.5152 -0.1929 -1.5662
14921TIP3    H266255   4.903   1.625   4.659 -0.0926  2.3205 -1.4629
14922TIP3   OH266256   4.982   1.042   1.901  0.1187  0.7449  0.4960
14922TIP3    H166257   4.905   0.998   1.937  0.6139  1.4990  2.6178
14922TIP3    H266258   5.024   0.976   1.845 -1.9657  0.2887 -0.6374
14923TIP3   OH266259   6.792   6.635   1.374 -0.2266  0.2966 -0.2271
14923TIP3    H166260   6.768   6.647   1.282  0.5544 -1.1719 -0.6604
14923TIP3    H266261   6.885   6.656   1.378 -0.4407  1.1594  0.4106
14924TIP3   OH266262   2.956   4.765   1.568  0.2370  0.3548 -0.4584
14924TIP3    H166263   2.869   4.787   1.532 -1.3274 -2.3109  1.3588
14924TIP3    H266264   3.000   4.719   1.497 -1.0519 -0.9027 -0.4759
14925TIP3   OH266265   5.161   3.024   2.037 -0.1601 -0.1969  0.2414
14925TIP3    H166266   5.122   2.961   1.977 -0.0472 -1.8885  1.8518
14925TIP3    H266267   5.098   3.031   2.109  0.0586  1.1618  0.3257
14926TIP3   OH266268   0.718   3.466   0.650  0.2597  0.2096  0.0358
14926TIP3    H166269   0.743   3.498   0.736  1.2225 -1.0226  0.2342
14926TIP3    H266270   0.643   3.409   0.666 -0.7270  1.4035 -0.1835
14927TIP3   OH266271   5.415   2.619   4.336 -0.4708 -0.4304 -0.1055
14927TIP3    H166272   5.466   2.614   4.255 -0.0539 -1.9248  0.1986
14927TIP3    H266273   5.386   2.709   4.342  0.7422  0.0591 -1.1701
14928TIP3   OH266274   5.748   3.679  15.027 -1.0422  0.3791  0.4098
14928TIP3    H166275   5.814   3.624  14.984 -1.3776  0.5627 -0.3525
14928TIP3    H266276   5.765   3.667  15.121  0.6791  1.1672  0.2307
14929TIP3   OH266277   5.960   4.536   2.598  0.5445 -0.4541  0.0265
14929TIP3    H166278   5.868   4.551   2.622  0.2878 -1.3658 -0.3316
14929TIP3    H266279   6.008   4.547   2.681 -0.0186 -1.0210  0.4405
14930TIP3   OH266280   1.404   6.426   5.947  0.4429 -0.2363 -0.5979
14930TIP3    H166281   1.377   6.508   5.989  2.2957  0.0070  0.2322
14930TIP3    H266282   1.432   6.370   6.020 -0.3515 -1.4641 -1.1944
14931TIP3   OH266283   6.151   5.586  15.425  0.0549 -0.1796  0.4853
14931TIP3    H166284   6.100   5.646  15.480  1.3933 -0.1277  1.7236
14931TIP3    H266285   6.206   5.538  15.487 -0.2233 -1.9539 -0.5885
14932TIP3   OH266286   6.303   3.984  13.248  0.2693  0.2932  0.0465
14932TIP3    H166287   6.309   4.013  13.340  1.2331 -0.5150  0.2407
14932TIP3    H266288   6.209   3.975  13.233  0.0758  0.9194  0.8030
14933TIP3   OH266289   6.386   1.269   2.295  0.2677 -0.0663 -0.0208
14933TIP3    H166290   6.345   1.355   2.285  2.7377  1.1814 -0.1483
14933TIP3    H266291   6.312   1.209   2.310 -1.4666  2.2586  1.5419
14934TIP3   OH266292   3.420   2.106  15.567 -0.0393 -0.0131  0.0110
14934TIP3    H166293   3.423   2.167  15.493  1.0530  1.3312  1.1087
14934TIP3    H266294   3.361   2.037  15.538 -0.7452  1.1796 -1.5831
14935TIP3   OH266295   5.837   4.886  16.749 -0.2400 -0.0633  0.7233
14935TIP3    H166296   5.911   4.924  16.701 -0.5957 -0.0821  0.1488
14935TIP3    H266297   5.791   4.962  16.786  0.2598 -0.0733  1.3786
14936TIP3   OH266298   3.342   3.085  16.009 -0.4942 -0.0599  0.8016
14936TIP3    H166299   3.300   3.019  15.954  1.9710 -1.4755  0.4626
14936TIP3    H266300   3.307   3.069  16.097 -0.1058 -1.7331  0.6846
14937TIP3   OH266301   6.397   3.085   2.966 -0.2631 -0.0890  0.5655
14937TIP3    H166302   6.320   3.106   2.913 -0.1209  1.9494  1.0919
14937TIP3    H266303   6.470   3.129   2.922  0.4251 -1.0691  0.6868
14938TIP3   OH266304   2.860   3.828   5.029 -0.2874  0.0347 -0.0234
14938TIP3    H166305   2.944   3.785   5.040  0.1570  0.8741 -0.0563
14938TIP3    H266306   2.869   3.911   5.075 -0.8382  0.4522 -0.6443
14939TIP3   OH266307   3.684   6.606  11.259 -0.2455 -0.2456  0.2004
14939TIP3    H166308   3.732   6.663  11.198 -1.7745 -2.4430 -3.3835
14939TIP3    H266309   3.595   6.640  11.258 -0.2040 -0.0074  1.7625
14940TIP3   OH266310   1.155   3.070  16.742 -0.1106 -0.0388 -0.0708
14940TIP3    H166311   1.153   3.126  16.664  0.3031 -1.2357 -0.9870
14940TIP3    H266312   1.101   3.116  16.806  2.9661  3.1640  0.5102
14941TIP3   OH266313   1.239   6.588  12.741 -0.6394 -0.0266  0.1056
14941TIP3    H166314   1.249   6.599  12.647  1.3767 -0.3401  0.2269
14941TIP3    H266315   1.329   6.580  12.774 -1.2703  0.4158  2.1009
14942TIP3   OH266316   6.145   4.141  12.518  0.0540  0.3461  0.1692
14942TIP3    H166317   6.201   4.097  12.454 -1.3053  0.2023 -0.9465
14942TIP3    H266318   6.181   4.114  12.603  0.6995 -1.0003 -0.5027
14943TIP3   OH266319   5.262   2.641   0.702  0.1482  0.1440  0.0911
14943TIP3    H166320   5.217   2.580   0.644  0.6268  0.8596 -1.0478
14943TIP3    H266321   5.355   2.625   0.688  0.2833  1.1156 -0.2126
14944TIP3   OH266322   1.012   2.520   2.116 -0.2050 -0.1221 -0.0143
14944TIP3    H166323   1.098   2.561   2.115 -0.9935  1.5933 -0.3952
14944TIP3    H266324   0.972   2.549   2.199 -0.2181 -1.3775  0.4428
14945TIP3   OH266325   1.940   1.945   6.658 -0.8814  0.1816  0.1739
14945TIP3    H166326   2.006   1.891   6.702 -1.4208 -0.2895  0.4116
14945TIP3    H266327   1.862   1.937   6.712 -0.7603  1.8751  0.6889
14946TIP3   OH266328   1.921   4.695  11.523  0.4126 -0.3086  0.1393
14946TIP3    H166329   1.983   4.719  11.592  0.5475 -1.0293  0.2729
14946TIP3    H266330   1.965   4.626  11.474  0.5766  0.6054 -1.0535
14947TIP3   OH266331   2.892   2.642   6.093 -0.1474  0.2365  0.0371
14947TIP3    H166332   2.814   2.697   6.095 -0.2270  0.1578 -0.6584
14947TIP3    H266333   2.877   2.576   6.161 -1.8850 -1.3672 -1.7262
14948TIP3   OH266334   1.367   4.640  12.562 -0.5120 -0.0512  0.1832
14948TIP3    H166335   1.377   4.700  12.636 -0.4243 -0.7358  0.7359
14948TIP3    H266336   1.274   4.620  12.559 -0.3252 -1.1620  1.0408
14949TIP3   OH266337   1.386   1.814   3.556  1.0915  0.1023 -0.8402
14949TIP3    H166338   1.465   1.786   3.604  1.4211  0.3915 -1.2081
14949TIP3    H266339   1.353   1.734   3.516  0.9493 -0.0995 -0.3233
14950TIP3   OH266340   1.341   4.731   1.566  0.0712 -0.2552 -0.5436
14950TIP3    H166341   1.345   4.806   1.507  1.7130  0.0006 -0.1478
14950TIP3    H266342   1.247   4.718   1.581 -0.2533  1.9583 -0.3016
14951TIP3   OH266343   1.233   4.670   0.340  0.2153  0.1241 -0.2109
14951TIP3    H166344   1.265   4.596   0.289  1.4353  0.4175  0.0937
14951TIP3    H266345   1.292   4.676   0.415  1.1262  2.3032 -0.9940
14952TIP3   OH266346   4.399   3.156  15.376 -0.3303 -0.1300  0.5242
14952TIP3    H166347   4.444   3.224  15.426 -0.8626 -0.2203  1.1342
14952TIP3    H266348   4.325   3.202  15.336 -0.6670 -0.3359  0.9032
14953TIP3   OH266349   5.777   4.915  12.705 -0.6411 -0.4400 -0.1982
14953TIP3    H166350   5.775   4.979  12.777 -0.3382  0.0306 -0.6005
14953TIP3    H266351   5.846   4.947  12.647 -1.7042 -0.1067 -1.3303
14954TIP3   OH266352   4.934   5.255   0.616 -0.2632  0.2785 -0.1686
14954TIP3    H166353   4.981   5.216   0.542  2.0746  2.0827  0.2582
14954TIP3    H266354   4.926   5.185   0.680 -1.9234 -1.1893 -1.8864
14955TIP3   OH266355   5.242   6.104   3.480 -0.5309  0.1788  0.5495
14955TIP3    H166356   5.321   6.050   3.475  0.1450  1.1842 -0.0403
14955TIP3    H266357   5.171   6.042   3.498  0.4103 -0.7232  1.2620
14956TIP3   OH266358   0.171   0.368  12.577 -0.1246 -0.3814 -0.3318
14956TIP3    H166359   0.265   0.383  12.581 -0.2357  0.1719  0.3454
14956TIP3    H266360   0.135   0.451  12.543 -0.4296 -0.3183  0.1345
14957TIP3   OH266361   4.025   2.749   6.137 -0.3247 -0.6224  0.4515
14957TIP3    H166362   4.081   2.686   6.181  0.9670 -0.3809 -0.7577
14957TIP3    H266363   4.069   2.833   6.149 -0.7933 -0.3156  0.0718
14958TIP3   OH266364   1.862   4.177  14.176  0.1013  0.3441  0.3304
14958TIP3    H166365   1.887   4.268  14.194  2.6335 -0.2600  0.2570
14958TIP3    H266366   1.904   4.157  14.093 -1.0784 -0.6870 -0.0447
14959TIP3   OH266367   1.339   4.008  10.516  0.0018 -0.2902  0.1375
14959TIP3    H166368   1.426   3.985  10.549  0.4261 -0.4936 -1.0716
14959TIP3    H266369   1.309   4.078  10.574  0.7489 -0.5804  0.8899
14960TIP3   OH266370   0.637   1.668  13.631 -0.8458 -0.4568 -0.1734
14960TIP3    H166371   0.664   1.734  13.567  2.3351 -1.3904  0.0505
14960TIP3    H266372   0.636   1.715  13.715  1.8306 -0.6495  0.0572
14961TIP3   OH266373   0.086   1.828  16.371  0.4173  0.8557 -0.0520
14961TIP3    H166374   0.046   1.868  16.449  2.7210  2.0175  0.6142
14961TIP3    H266375   0.028   1.854  16.299 -0.8136  1.2389  1.0339
14962TIP3   OH266376   3.860   3.770  14.505  0.5006 -0.2246  0.3274
14962TIP3    H166377   3.876   3.838  14.571  1.9122 -0.1156 -0.1071
14962TIP3    H266378   3.946   3.731  14.490 -0.1437 -1.5207 -0.0791
14963TIP3   OH266379   4.575   2.115  12.811 -0.7143  0.4053  0.6692
14963TIP3    H166380   4.502   2.062  12.777  0.1522 -1.5381  1.6963
14963TIP3    H266381   4.649   2.094  12.754 -0.3706  0.5746  1.0500
14964TIP3   OH266382   2.690   4.197  10.864  0.5521 -0.1552 -0.1755
14964TIP3    H166383   2.736   4.120  10.898  0.6505  0.8672  2.2460
14964TIP3    H266384   2.758   4.263  10.855  0.0041  0.5811  0.8890
14965TIP3   OH266385   3.911   6.483  14.733 -0.2413 -0.1928 -0.0710
14965TIP3    H166386   3.816   6.477  14.722 -0.2727  0.8987 -0.5490
14965TIP3    H266387   3.923   6.503  14.826 -0.4332 -1.0369  0.1433
14966TIP3   OH266388   6.634   5.511  11.577 -0.3737 -0.3494 -0.4390
14966TIP3    H166389   6.625   5.447  11.506  1.4840 -1.5144  0.3118
14966TIP3    H266390   6.544   5.525  11.608 -0.9083 -2.0441 -1.1059
14967TIP3   OH266391   4.105   1.951   5.802 -0.2071  0.0548 -0.2610
14967TIP3    H166392   4.044   1.991   5.864 -1.1788 -1.2718 -0.3123
14967TIP3    H266393   4.111   1.859   5.829  0.8225 -0.1269 -1.0052
14968TIP3   OH266394   3.123   2.985   0.904 -0.1254  0.7700 -0.5223
14968TIP3    H166395   3.130   2.910   0.964  2.8970  0.0467 -1.6069
14968TIP3    H266396   3.093   2.946   0.822 -0.2709  1.0711 -0.6124
14969TIP3   OH266397   4.763   4.944   1.699 -0.2993  0.4996  0.3795
14969TIP3    H166398   4.841   4.999   1.693 -0.1252  0.5312  2.4107
14969TIP3    H266399   4.692   4.999   1.666  0.1035  1.4358  1.0533
14970TIP3   OH266400   3.995   0.379  14.254  0.0811 -0.0518  0.2612
14970TIP3    H166401   4.056   0.443  14.291 -1.2163  0.3350  1.9029
14970TIP3    H266402   4.050   0.309  14.221  1.4366  0.3615  1.5114
14971TIP3   OH266403   1.321   2.865  14.711  0.7974  0.3559 -0.9962
14971TIP3    H166404   1.261   2.791  14.710  1.8068 -0.5314  0.1329
14971TIP3    H266405   1.320   2.899  14.622 -3.8865  2.5516 -0.4267
14972TIP3   OH266406   5.213   4.973  13.562 -0.9428 -0.3245 -0.6323
14972TIP3    H166407   5.184   5.048  13.615 -1.0855 -1.5359  1.0846
14972TIP3    H266408   5.281   5.010  13.505 -2.8258  1.6517 -1.7492
14973TIP3   OH266409   0.702   2.552  15.617  0.1981 -0.2799 -0.0253
14973TIP3    H166410   0.744   2.625  15.571 -0.7185  0.9455  1.0303
14973TIP3    H266411   0.676   2.492  15.547  1.4705  0.1036 -0.8719
14974TIP3   OH266412   0.142   3.023   1.414 -0.4978 -0.0026  0.1530
14974TIP3    H166413   0.211   3.015   1.480 -0.2201  0.5831 -0.0586
14974TIP3    H266414   0.139   2.937   1.372 -0.8800 -0.4769  1.1198
14975TIP3   OH266415   0.551   2.094  11.343  0.3171  0.3287 -0.6259
14975TIP3    H166416   0.530   2.148  11.419 -2.0555 -1.3332  0.0324
14975TIP3    H266417   0.514   2.143  11.269 -0.3674  0.4051 -0.2499
14976TIP3   OH266418   3.010   5.201   3.707  0.5163 -0.2868 -0.1403
14976TIP3    H166419   2.955   5.181   3.782  1.2691  0.2456  0.5736
14976TIP3    H266420   3.099   5.204   3.742  0.9398 -0.5626 -1.1576
14977TIP3   OH266421   5.310   3.991   2.010  0.3717  0.3366 -0.8107
14977TIP3    H166422   5.350   4.008   1.925  2.1819 -1.6617 -0.4536
14977TIP3    H266423   5.232   3.940   1.989  0.7198 -0.0066 -1.2976
14978TIP3   OH266424   4.870   4.514  12.286  0.1349 -0.7442 -0.0385
14978TIP3    H166425   4.827   4.429  12.300 -0.7514 -0.3572 -0.3170
14978TIP3    H266426   4.798   4.573  12.260  0.4045  0.5562  1.9624
14979TIP3   OH266427   4.058   4.781  15.231  0.6656 -0.1665  0.2345
14979TIP3    H166428   4.049   4.686  15.238  1.1265 -0.1781  0.7089
14979TIP3    H266429   3.969   4.813  15.222  0.5579 -0.7244 -0.9816
14980TIP3   OH266430   2.185   0.506  16.590 -0.0854 -0.1454 -0.3525
14980TIP3    H166431   2.183   0.602  16.586  0.4938 -0.0716  0.7375
14980TIP3    H266432   2.262   0.486  16.643  0.5994 -1.2654 -1.6806
14981TIP3   OH266433   1.356   5.569   1.619  0.6308  0.1970 -0.1449
14981TIP3    H166434   1.265   5.588   1.596  0.8236  0.6430 -0.5681
14981TIP3    H266435   1.365   5.600   1.709  0.0626 -0.8850  0.2936
14982TIP3   OH266436   1.516   4.369  13.400  0.1086  0.2118  0.0957
14982TIP3    H166437   1.582   4.344  13.466 -1.6247 -0.2747  1.7461
14982TIP3    H266438   1.541   4.321  13.322  1.6178 -0.0848  0.7234
14983TIP3   OH266439   2.156   0.273   4.390  0.1479 -0.6833  0.7000
14983TIP3    H166440   2.238   0.267   4.341 -0.4242  0.2931 -0.4238
14983TIP3    H266441   2.093   0.225   4.337 -0.5082  0.4794  0.4058
14984TIP3   OH266442   0.037   1.577  14.001  0.2940  0.2608  0.1459
14984TIP3    H166443  -0.055   1.559  13.982  0.0677  0.9584  0.5381
14984TIP3    H266444   0.037   1.664  14.041  1.0813  0.1101  0.5078
14985TIP3   OH266445   1.428   1.760   5.139  0.1831  0.1519  0.2937
14985TIP3    H166446   1.446   1.696   5.070  1.3370 -0.2907  0.9691
14985TIP3    H266447   1.333   1.771   5.137  0.0417 -0.9783 -0.3813
14986TIP3   OH266448   1.642   4.320   6.415  0.2176 -0.4135 -0.4074
14986TIP3    H166449   1.585   4.392   6.442  0.4906 -0.8127  1.3218
14986TIP3    H266450   1.594   4.241   6.442  1.1684 -0.7806  0.2482
14987TIP3   OH266451   5.845   1.740   1.877 -0.3915 -0.0022 -0.5582
14987TIP3    H166452   5.855   1.730   1.782 -0.6721  0.7460 -0.6727
14987TIP3    H266453   5.781   1.673   1.901 -0.2646 -0.2440 -0.8865
14988TIP3   OH266454   0.685   0.706   4.190  0.2695  0.4629  0.7527
14988TIP3    H166455   0.698   0.679   4.281  1.4278 -0.0289  0.4692
14988TIP3    H266456   0.596   0.678   4.169  0.5902 -1.0326  1.2160
14989TIP3   OH266457   6.139   0.215  13.087  0.6248  0.1569 -0.1094
14989TIP3    H166458   6.154   0.124  13.065  0.6428 -0.2352  1.4221
14989TIP3    H266459   6.216   0.262  13.053  2.9085 -1.0544  2.9534
14990TIP3   OH266460   6.002   2.142   4.167 -0.1073  0.4300  0.1169
14990TIP3    H166461   5.975   2.233   4.157 -1.2452  0.2134  0.9295
14990TIP3    H266462   6.000   2.127   4.261  1.0788 -0.1526  0.0584
14991TIP3   OH266463   3.263   2.211   6.102 -0.0024  0.1202  0.2706
14991TIP3    H166464   3.305   2.132   6.069  0.4608  1.0882 -1.5942
14991TIP3    H266465   3.170   2.188   6.109 -0.0279 -0.3095 -1.2099
14992TIP3   OH266466   5.797   6.467  15.999  0.0168  0.3655 -0.2775
14992TIP3    H166467   5.866   6.530  15.979 -0.0478 -0.2615 -2.8048
14992TIP3    H266468   5.729   6.519  16.043  0.5102  1.8011 -1.1466
14993TIP3   OH266469   0.903   6.003   5.973 -0.7508  0.1167 -0.0730
14993TIP3    H166470   0.897   5.909   5.993  1.2007 -0.3759 -1.4738
14993TIP3    H266471   0.855   6.012   5.891 -1.2215  0.4325  0.2317
14994TIP3   OH266472   3.905   1.569   4.146 -0.8073  0.4537 -0.0604
14994TIP3    H166473   3.955   1.599   4.222 -0.0166  0.0090 -0.3903
14994TIP3    H266474   3.861   1.647   4.114 -0.2213  0.8853  0.1652
14995TIP3   OH266475   5.730   1.173   2.778  0.3671 -0.1188  0.2898
14995TIP3    H166476   5.669   1.116   2.823 -0.6705  0.6132 -0.1646
14995TIP3    H266477   5.744   1.132   2.693  0.5578 -0.3144  0.4146
14996TIP3   OH266478   3.849   0.651   1.895 -0.7024 -0.7637 -0.2348
14996TIP3    H166479   3.923   0.604   1.933 -1.2022 -2.6769 -1.4715
14996TIP3    H266480   3.824   0.599   1.818 -0.8008  1.9866 -2.2310
14997TIP3   OH266481   4.438   1.972  14.492 -0.2751  0.3111 -0.2637
14997TIP3    H166482   4.368   1.930  14.442  0.1487  0.0843 -0.6753
14997TIP3    H266483   4.507   1.906  14.498  0.1498  0.7314 -0.3857
14998TIP3   OH266484   5.222   1.139   0.146  0.5226 -0.3677  0.2611
14998TIP3    H166485   5.197   1.159   0.236 -0.6170 -0.2760 -0.0542
14998TIP3    H266486   5.309   1.178   0.136  1.4542 -1.8905  1.8267
14999TIP3   OH266487   6.463   5.517  13.627  0.0087 -0.2253 -0.3971
14999TIP3    H166488   6.428   5.444  13.678 -1.7539 -0.6911 -2.1390
14999TIP3    H266489   6.451   5.593  13.683  0.1634 -1.0032  0.7296
15000TIP3   OH266490   0.337   5.816   1.362  0.3259  0.1898  0.0875
15000TIP3    H166491   0.377   5.888   1.313 -0.4809  0.2973 -0.4350
15000TIP3    H266492   0.408   5.779   1.413  0.9882  0.6595 -0.4824
15001TIP3   OH266493   5.664   5.917   5.101 -0.1532 -0.0332 -0.1127
15001TIP3    H166494   5.669   6.009   5.073 -1.8719  0.1519  0.1061
15001TIP3    H266495   5.706   5.869   5.030  3.4890  1.0565  1.0366
15002TIP3   OH266496   0.253   1.325  14.140 -0.2335 -0.4147  0.3798
15002TIP3    H166497   0.243   1.303  14.048 -0.6406 -0.2182  0.3735
15002TIP3    H266498   0.343   1.359  14.147  0.3968 -1.9880  0.3901
15003TIP3   OH266499   5.414   6.523   4.426 -0.1430 -0.3834  0.1664
15003TIP3    H166500   5.383   6.613   4.429 -0.4377 -0.5105  1.6388
15003TIP3    H266501   5.437   6.503   4.517 -2.1524 -2.5039  0.2868
15004TIP3   OH266502   5.132   4.166   0.658 -0.2658  0.3908  0.3104
15004TIP3    H166503   5.178   4.172   0.741 -1.9696  2.8868  1.1719
15004TIP3    H266504   5.169   4.236   0.604  0.9162 -1.2796 -1.1556
15005TIP3   OH266505   6.520   0.018  14.855 -0.1514 -0.1285  0.2717
15005TIP3    H166506   6.463  -0.055  14.833 -1.5927  0.6743  1.1834
15005TIP3    H266507   6.578   0.027  14.779 -1.4303 -0.7852 -0.8248
15006TIP3   OH266508   3.348   5.765   0.291 -0.2456  0.5033 -0.5721
15006TIP3    H166509   3.315   5.742   0.378  0.4468  1.4747 -0.0359
15006TIP3    H266510   3.319   5.693   0.235 -1.1556  0.1185  0.3527
15007TIP3   OH266511   2.936   0.781   2.230  0.0521  0.8697 -0.2915
15007TIP3    H166512   2.853   0.741   2.253 -0.6598  1.4020 -1.8433
15007TIP3    H266513   2.959   0.743   2.145  0.7734  1.6299 -0.4530
15008TIP3   OH266514   4.424   3.752  15.837  0.5438  0.2029 -0.1063
15008TIP3    H166515   4.498   3.760  15.897  0.1266 -3.5540  1.2224
15008TIP3    H266516   4.443   3.673  15.787 -1.3572  0.6284 -1.6108
15009TIP3   OH266517   5.564   5.328   1.419 -0.5539  0.7640  0.5692
15009TIP3    H166518   5.472   5.344   1.398 -0.2186  0.6389 -1.2122
15009TIP3    H266519   5.608   5.332   1.334  1.1099  0.9511  1.4058
15010TIP3   OH266520   0.006   5.112   0.889 -0.1901  0.9249 -0.3900
15010TIP3    H166521  -0.036   5.195   0.910 -0.8470  0.4852  0.0809
15010TIP3    H266522  -0.032   5.086   0.805 -2.0695 -0.2154  0.7406
15011TIP3   OH266523   4.588   6.032  14.827 -0.2316 -0.6560 -0.3468
15011TIP3    H166524   4.544   5.947  14.830  1.6498 -1.7323 -1.5278
15011TIP3    H266525   4.635   6.038  14.910  1.5980 -1.9465 -1.2226
15012TIP3   OH266526   2.567   0.606  15.502  0.0018  0.4313  0.1826
15012TIP3    H166527   2.569   0.634  15.594 -0.8008 -1.4037  0.8114
15012TIP3    H266528   2.659   0.593  15.479  0.1729 -0.0328  1.0621
15013TIP3   OH266529   1.671   1.621  15.686 -0.2006  0.2115  0.4129
15013TIP3    H166530   1.657   1.603  15.779 -0.4173 -1.5222  0.0700
15013TIP3    H266531   1.643   1.542  15.641  2.1111  0.0998 -0.9816
15014TIP3   OH266532   6.602   3.080  13.279 -0.0363 -0.5472  0.5643
15014TIP3    H166533   6.655   3.160  13.270  0.9444 -1.2342 -0.0581
15014TIP3    H266534   6.519   3.110  13.315 -0.3783  1.0266 -1.3650
15015TIP3   OH266535   0.927   1.104   4.947 -0.2090  0.8452  0.5085
15015TIP3    H166536   0.837   1.114   4.916 -1.1027 -3.2687  1.1738
15015TIP3    H266537   0.928   1.149   5.032 -1.4301  1.4517  0.2284
15016TIP3   OH266538   1.212   0.310  15.428 -0.1197 -0.0332 -0.3151
15016TIP3    H166539   1.119   0.292  15.414 -0.4251  1.2383 -0.0385
15016TIP3    H266540   1.257   0.247  15.371 -1.0680 -2.1591  1.1442
15017TIP3   OH266541   0.125   5.480  14.035 -0.0088  0.5013  0.4707
15017TIP3    H166542   0.202   5.425  14.045 -1.2724 -1.0325  2.7901
15017TIP3    H266543   0.159   5.570  14.037  2.1744  0.0579 -4.0566
15018TIP3   OH266544   1.561   2.844  15.428 -0.3792  0.0263  0.1685
15018TIP3    H166545   1.609   2.761  15.429  0.6942  0.6343  0.8494
15018TIP3    H266546   1.470   2.819  15.442  0.0774 -0.9607  1.5754
15019TIP3   OH266547   5.811   3.784  12.600 -0.1759 -0.1021  0.0203
15019TIP3    H166548   5.763   3.702  12.592  0.1453 -0.2283 -0.6459
15019TIP3    H266549   5.854   3.779  12.685  0.8048 -1.1382 -0.5210
15020TIP3   OH266550   0.771   2.464  17.113 -0.3773  0.0822  0.4402
15020TIP3    H166551   0.854   2.471  17.066  0.4803 -0.3188  1.8340
15020TIP3    H266552   0.711   2.520  17.064  0.7211  0.4173 -0.5711
15021TIP3   OH266553   1.271   1.121   1.497  0.1282 -0.1649  0.7171
15021TIP3    H166554   1.366   1.120   1.480  0.4152  0.6598  2.1584
15021TIP3    H266555   1.235   1.066   1.427  1.3548  1.8072 -1.6447
15022TIP3   OH266556   6.601   1.929  13.697  0.3918  0.2291 -0.2456
15022TIP3    H166557   6.538   1.967  13.758 -1.4554 -2.8720 -0.0058
15022TIP3    H266558   6.551   1.914  13.617  1.0368 -1.4857 -0.3610
15023TIP3   OH266559   6.477   0.936   6.072 -0.1174 -0.4718  0.1811
15023TIP3    H166560   6.390   0.972   6.056  0.3100  0.2029 -0.7307
15023TIP3    H266561   6.464   0.869   6.140 -0.9261  1.4944  2.0796
15024TIP3   OH266562   0.298   2.058   5.337  0.3317  0.0475 -0.4388
15024TIP3    H166563   0.269   2.015   5.257  0.7170 -2.1762  0.5448
15024TIP3    H266564   0.228   2.042   5.400  0.5746  0.7296  0.0228
15025TIP3   OH266565   5.812   5.203  11.137 -0.4486  0.5460  0.7349
15025TIP3    H166566   5.798   5.123  11.187  0.0332  0.0766  0.1226
15025TIP3    H266567   5.885   5.183  11.079  0.0274  1.5938  0.9420
15026TIP3   OH266568   6.737   0.951   1.872 -0.3504  1.2840  0.3389
15026TIP3    H166569   6.767   0.939   1.782  0.9946 -1.3895  1.0188
15026TIP3    H266570   6.785   1.027   1.905  0.0886  1.5146 -0.8155
15027TIP3   OH266571   0.002   6.364  12.661  0.3422  0.4936  0.1604
15027TIP3    H166572   0.053   6.312  12.599  1.2805 -0.1378  1.4250
15027TIP3    H266573   0.065   6.391  12.728 -0.8229  0.2936  1.3892
15028TIP3   OH266574   5.153   1.312  13.720 -0.1615 -0.1319 -0.2380
15028TIP3    H166575   5.095   1.368  13.771  0.2229 -0.2887  0.3794
15028TIP3    H266576   5.142   1.343  13.630 -0.9160  0.0862 -0.0824
15029TIP3   OH266577   5.567   1.313   5.688 -0.6970 -0.4630  0.0209
15029TIP3    H166578   5.501   1.376   5.717 -0.2507 -0.6376  1.4902
15029TIP3    H266579   5.519   1.231   5.678 -0.9691 -0.2642 -0.3625
15030TIP3   OH266580   3.591   1.726  13.131  0.0294  0.0196 -0.6364
15030TIP3    H166581   3.518   1.669  13.153  0.2157 -0.3051 -0.8438
15030TIP3    H266582   3.606   1.778  13.210  0.2866 -0.6970 -0.1989
15031TIP3   OH266583   3.306   0.536   0.293  0.0802  0.1675 -0.5411
15031TIP3    H166584   3.241   0.604   0.276  1.4157  1.0948 -2.4181
15031TIP3    H266585   3.352   0.527   0.209 -0.6740 -3.8186 -0.7029
15032TIP3   OH266586   6.227   3.778  15.302 -0.4981 -0.2689  0.1482
15032TIP3    H166587   6.276   3.706  15.263  1.1079  1.6064 -1.5775
15032TIP3    H266588   6.213   3.752  15.393  3.6083 -1.0790  0.7420
15033TIP3   OH266589   1.329   2.028   5.636 -0.2386  0.5203 -0.1059
15033TIP3    H166590   1.240   1.993   5.632  0.0891 -0.4811  0.9632
15033TIP3    H266591   1.334   2.070   5.722  0.6502 -0.4062  0.3185
15034TIP3   OH266592   4.171   4.240   4.522  0.0275  0.2512 -0.6820
15034TIP3    H166593   4.118   4.316   4.498 -0.9254 -0.0169  0.4700
15034TIP3    H266594   4.140   4.170   4.465 -0.6528  0.1754 -0.2270
15035TIP3   OH266595   6.641   4.804   1.491  0.3053  0.1772  0.0356
15035TIP3    H166596   6.548   4.792   1.471  0.7775 -0.1916 -2.2154
15035TIP3    H266597   6.682   4.722   1.465  1.4972  1.0130 -0.8444
15036TIP3   OH266598   5.173   0.080   4.475 -0.0359  0.2014  0.2288
15036TIP3    H166599   5.267   0.071   4.465  0.1535  3.1671 -1.9435
15036TIP3    H266600   5.162   0.124   4.560  0.5194 -0.1743  0.4994
15037TIP3   OH266601   0.025   4.680  15.129 -0.1011  0.1938  0.6418
15037TIP3    H166602   0.069   4.618  15.072 -1.6243 -1.0282  0.7244
15037TIP3    H266603  -0.060   4.695  15.086 -1.1801 -0.5649  2.4015
15038TIP3   OH266604   2.285   2.939  16.629 -0.5143  0.8593  0.0496
15038TIP3    H166605   2.291   2.925  16.723 -1.1202 -0.2710 -0.0675
15038TIP3    H266606   2.356   3.002  16.610  1.7105 -1.2577  0.7973
15039TIP3   OH266607   3.709   0.168   5.530 -0.4436  0.1789 -0.2226
15039TIP3    H166608   3.777   0.184   5.596  1.2796  0.1981 -1.9245
15039TIP3    H266609   3.629   0.203   5.569  0.3333 -0.5239  2.1671
15040TIP3   OH266610   1.369   6.291   4.864  0.2958  0.3018 -0.6050
15040TIP3    H166611   1.412   6.223   4.812  0.1926  0.0234 -0.3290
15040TIP3    H266612   1.438   6.325   4.920  0.4519  0.7308 -1.0483
15041TIP3   OH266613   1.956   0.637  15.942  0.1667 -0.0842  0.2277
15041TIP3    H166614   2.008   0.622  15.864  1.7679  1.0214  1.0436
15041TIP3    H266615   1.933   0.549  15.972  0.5985 -0.5556 -0.7576
15042TIP3   OH266616   0.135   5.633   5.245  0.4119 -0.4339  0.0118
15042TIP3    H166617   0.062   5.572   5.256  0.2898 -0.6062 -1.5800
15042TIP3    H266618   0.114   5.706   5.304 -1.0028 -0.5267 -0.3484
15043TIP3   OH266619   0.128   3.161   0.252  0.0426  0.5051  0.2306
15043TIP3    H166620   0.036   3.137   0.245 -0.2723  1.9354 -1.1298
15043TIP3    H266621   0.128   3.237   0.311  0.5276 -0.2851  1.2723
15044TIP3   OH266622   3.105   5.459  13.458 -0.1027  0.8316  0.4279
15044TIP3    H166623   3.053   5.508  13.521  0.3550 -0.9443  2.2791
15044TIP3    H266624   3.130   5.379  13.504 -0.9204 -1.2530 -2.4590
15045TIP3   OH266625   4.120   5.597  10.968  0.0626 -0.3461  0.5121
15045TIP3    H166626   4.027   5.574  10.967  0.0070 -0.1207  0.4086
15045TIP3    H266627   4.143   5.605  10.875  0.0446  0.1571  0.5476
15046TIP3   OH266628   2.575   5.053   2.297 -0.1529 -0.2355 -0.0218
15046TIP3    H166629   2.547   5.108   2.224  0.1668 -1.7836 -1.3588
15046TIP3    H266630   2.671   5.055   2.293 -0.0930  0.8461  1.2999
15047TIP3   OH266631   3.377   2.451  13.245 -0.0685 -0.0921 -0.2795
15047TIP3    H166632   3.327   2.370  13.239  0.6830 -0.5061 -1.3349
15047TIP3    H266633   3.457   2.433  13.196  0.6732  0.8784  0.5338
15048TIP3   OH266634   4.339   0.040   4.694  0.2760 -0.4264  0.3716
15048TIP3    H166635   4.259  -0.012   4.703 -0.2051  0.3483  0.7164
15048TIP3    H266636   4.308   0.131   4.693  1.1120 -0.1393 -0.0336
15049TIP3   OH266637   3.059   0.809   1.954  0.3080  0.1553 -0.7626
15049TIP3    H166638   3.114   0.814   1.875  0.5964  0.7819 -0.5285
15049TIP3    H266639   3.005   0.887   1.949 -0.9148 -0.6856 -1.2314
15050TIP3   OH266640   6.435   3.057  16.380 -0.0551 -0.4803  0.9941
15050TIP3    H166641   6.483   3.019  16.307 -0.0264  1.5026 -0.0870
15050TIP3    H266642   6.377   2.987  16.410  0.2894 -1.4948 -0.5995
15051TIP3   OH266643   2.349   1.089   3.049  0.7854 -0.7006  0.2371
15051TIP3    H166644   2.298   1.045   3.117 -0.3746 -0.1438 -0.2585
15051TIP3    H266645   2.365   1.021   2.983  2.1687 -1.3228  1.1649
15052TIP3   OH266646   1.495   3.682   4.454  0.0005  1.0437 -0.0559
15052TIP3    H166647   1.538   3.634   4.382 -1.5272  1.5210 -1.3496
15052TIP3    H266648   1.406   3.696   4.423 -1.1251  0.1049  2.5185
15053TIP3   OH266649   2.483   6.727   2.082 -0.6340 -0.4473  0.3178
15053TIP3    H166650   2.442   6.813   2.074 -2.9588 -1.6287 -1.7436
15053TIP3    H266651   2.448   6.691   2.163 -0.0316  0.3123  0.9320
15054TIP3   OH266652   3.271   0.601   4.522 -0.1239  0.2191 -0.0374
15054TIP3    H166653   3.230   0.532   4.471  0.4745 -0.7074  0.7079
15054TIP3    H266654   3.209   0.619   4.593  0.2305 -0.3588  0.4210
15055TIP3   OH266655   4.975   5.367   1.642  0.1636 -0.2948 -0.4603
15055TIP3    H166656   4.985   5.278   1.676 -0.9499 -0.3353 -0.1943
15055TIP3    H266657   5.020   5.423   1.705  1.2759 -0.6945 -0.8738
15056TIP3   OH266658   2.035   6.331   3.799 -0.9111 -0.0146 -0.8658
15056TIP3    H166659   2.124   6.339   3.834 -0.4028 -0.8607 -1.9090
15056TIP3    H266660   1.998   6.419   3.807  0.4368  0.6360 -1.5059
15057TIP3   OH266661   0.468   5.312  10.875 -0.1776  0.1345  0.3671
15057TIP3    H166662   0.404   5.247  10.845 -0.5971  1.3683 -1.5259
15057TIP3    H266663   0.520   5.332  10.798 -1.7313  3.9634  0.0767
15058TIP3   OH266664   4.076   5.724  11.731 -0.0356 -0.1003 -0.1069
15058TIP3    H166665   4.156   5.670  11.728 -0.7114 -1.0904 -1.4176
15058TIP3    H266666   4.108   5.814  11.732  1.1167 -0.4875 -0.3970
15059TIP3   OH266667   2.531   3.488  16.213  0.0887  0.4380 -0.3606
15059TIP3    H166668   2.597   3.491  16.144  0.7597  1.2981  0.2900
15059TIP3    H266669   2.454   3.531  16.175  0.5002  1.0359 -0.5326
15060TIP3   OH266670   2.105   5.940   5.816 -0.2752  0.5853 -0.1205
15060TIP3    H166671   2.135   5.861   5.860 -0.8231 -0.9053 -2.2229
15060TIP3    H266672   2.015   5.951   5.845 -0.0677  0.6901  0.4930
15061TIP3   OH266673   6.458   6.389  11.052  0.0855 -0.2318 -0.1978
15061TIP3    H166674   6.504   6.368  11.133  1.4796  0.4986 -0.7756
15061TIP3    H266675   6.415   6.307  11.027 -1.8668 -0.0521  2.1641
15062TIP3   OH266676   4.316   6.211   4.551 -0.3790  0.2906  0.6559
15062TIP3    H166677   4.252   6.143   4.576 -0.0612 -0.5971 -0.8169
15062TIP3    H266678   4.306   6.278   4.618 -1.6668 -0.5964  1.4169
15063TIP3   OH266679   1.891   4.752   4.476 -0.4564 -0.0874  0.0339
15063TIP3    H166680   1.835   4.796   4.412 -0.2988  0.8433  0.5231
15063TIP3    H266681   1.944   4.691   4.424 -1.2321 -0.2786 -0.5510
15064TIP3   OH266682   5.945   6.330  15.163 -0.1330  0.5318  0.1149
15064TIP3    H166683   5.917   6.416  15.132  0.1413  0.7917  0.5702
15064TIP3    H266684   5.897   6.317  15.245  1.6166  1.3517  1.3471
15065TIP3   OH266685   5.694   3.839   6.387  0.0355 -0.1647  0.0608
15065TIP3    H166686   5.601   3.854   6.373  0.4618  1.9547 -0.8529
15065TIP3    H266687   5.735   3.925   6.375  2.0511 -0.9140  1.0274
15066TIP3   OH266688   0.370   3.947   5.130 -0.2943  0.0166  0.4133
15066TIP3    H166689   0.390   3.949   5.223  2.2578  0.0648 -0.0628
15066TIP3    H266690   0.354   4.038   5.106  0.4007  0.1776  0.5563
15067TIP3   OH266691   0.099   1.564  16.414  0.5677 -0.4089  0.7478
15067TIP3    H166692   0.102   1.659  16.408 -1.1636 -0.3612 -0.1393
15067TIP3    H266693   0.009   1.545  16.440  0.4480 -1.8403 -0.5544
15068TIP3   OH266694   2.934   0.739   5.933  0.4643 -0.1208  0.0153
15068TIP3    H166695   2.857   0.689   5.906 -1.1719  1.5437  1.2734
15068TIP3    H266696   2.950   0.800   5.862  0.4496 -0.2710 -0.1174
15069TIP3   OH266697   5.905   3.711  12.844 -0.0407 -0.1412  0.3474
15069TIP3    H166698   5.849   3.728  12.920  0.7725 -0.0060  0.9260
15069TIP3    H266699   5.994   3.729  12.875  0.2483  0.5786 -0.8186
15070TIP3   OH266700   1.821   4.819  14.879  0.1693  0.2862 -0.1853
15070TIP3    H166701   1.835   4.833  14.973 -0.4371  0.5196 -0.1194
15070TIP3    H266702   1.871   4.888  14.836  0.1182  0.4318 -0.0115
15071TIP3   OH266703   6.646   1.815   1.575 -0.2347 -0.8262 -0.0968
15071TIP3    H166704   6.653   1.902   1.536 -1.2466 -1.4019 -1.6871
15071TIP3    H266705   6.736   1.782   1.578 -0.0363 -0.4529 -1.3029
15072TIP3   OH266706   0.954   3.833   6.596  0.3162  0.4897  0.2505
15072TIP3    H166707   0.861   3.844   6.614  0.1724 -0.6292  0.2427
15072TIP3    H266708   0.993   3.809   6.680  0.3487 -0.4484 -0.0171
15073TIP3   OH266709   2.094   6.621   2.366  0.2084 -0.4042  0.1484
15073TIP3    H166710   2.092   6.710   2.400 -0.6430 -0.3082 -0.1270
15073TIP3    H266711   2.024   6.576   2.412 -0.6290 -0.4072 -1.0858
15074TIP3   OH266712   5.302   6.645  13.721  0.0522 -0.1558 -0.7244
15074TIP3    H166713   5.217   6.657  13.677 -0.1118  1.6907  0.0318
15074TIP3    H266714   5.291   6.565  13.772 -1.3245  0.1799 -0.4611
15075TIP3   OH266715   5.945   5.925   5.608 -0.3280 -0.1618 -0.5852
15075TIP3    H166716   5.858   5.926   5.648 -0.0253  1.7707  0.1417
15075TIP3    H266717   6.006   5.931   5.682  0.5280 -2.5102 -1.0017
15076TIP3   OH266718   5.412   4.413  14.994 -0.4287 -0.0577  0.1071
15076TIP3    H166719   5.350   4.436  14.925 -0.5669  0.0584  0.2710
15076TIP3    H266720   5.422   4.318  14.986 -1.2721 -0.1946  0.6224
15077TIP3   OH266721   3.857   4.832   0.157 -0.0864  0.0388 -0.7999
15077TIP3    H166722   3.806   4.754   0.136 -2.4253  0.9228  1.1196
15077TIP3    H266723   3.895   4.814   0.243  1.4560  0.0790 -1.4521
15078TIP3   OH266724   1.572   5.149   4.810 -0.0615  0.2125  0.2829
15078TIP3    H166725   1.565   5.245   4.807 -0.6815  0.1804  0.6102
15078TIP3    H266726   1.663   5.131   4.785 -0.0286  0.8699 -0.0902
15079TIP3   OH266727   4.608   3.886  14.074  0.6097  0.0423  0.2418
15079TIP3    H166728   4.694   3.886  14.032  0.9665  1.2780  0.9022
15079TIP3    H266729   4.547   3.908  14.003  1.0065  0.5036  0.0374
15080TIP3   OH266730   4.242   6.266   1.835  0.6031  0.4287 -0.8731
15080TIP3    H166731   4.290   6.203   1.889  0.2281 -0.0458 -1.0922
15080TIP3    H266732   4.282   6.259   1.748  0.9370  0.9051 -0.7662
15081TIP3   OH266733   6.138   4.706   0.181  0.0134 -0.8034 -0.1296
15081TIP3    H166734   6.063   4.762   0.159  0.6132 -0.0498 -0.2861
15081TIP3    H266735   6.189   4.758   0.243  0.5672 -1.1965 -0.2519
15082TIP3   OH266736   3.615   3.652  12.531  0.1168 -0.3990 -0.5665
15082TIP3    H166737   3.605   3.723  12.595  0.7168 -0.3545 -0.5169
15082TIP3    H266738   3.708   3.654  12.507 -0.1001 -0.4151 -1.4428
15083TIP3   OH266739   2.424   3.797   3.512 -0.8325  0.2675 -0.5885
15083TIP3    H166740   2.338   3.815   3.474 -0.4711  1.0200 -1.0665
15083TIP3    H266741   2.453   3.717   3.468 -1.4375 -0.1960 -0.1607
15084TIP3   OH266742   2.126   6.374   3.141  0.1300 -0.2062 -0.8241
15084TIP3    H166743   2.150   6.435   3.210  1.9018 -0.7348 -0.9282
15084TIP3    H266744   2.181   6.297   3.156 -2.1593 -1.9157 -0.5689
15085TIP3   OH266745   5.113   1.963   1.218 -0.1697  0.2239  0.1107
15085TIP3    H166746   5.073   1.884   1.256 -1.2353 -0.1490 -1.6683
15085TIP3    H266747   5.102   2.030   1.286 -0.5683 -0.7893  1.0891
15086TIP3   OH266748   1.261   3.349  11.274  0.9128 -0.0761 -0.4188
15086TIP3    H166749   1.318   3.281  11.238  1.9274  0.1815  0.6254
15086TIP3    H266750   1.246   3.321  11.364 -1.1417 -0.4480 -0.8374
15087TIP3   OH266751   4.166   4.600   4.223  0.0374  0.1456 -0.1419
15087TIP3    H166752   4.230   4.572   4.289 -0.9118  0.3827  0.8937
15087TIP3    H266753   4.220   4.625   4.148  1.1945  0.5859  0.7983
15088TIP3   OH266754   0.574   5.860  15.259  0.2243  0.1006  0.2359
15088TIP3    H166755   0.577   5.922  15.186 -0.5773 -0.4113 -0.2482
15088TIP3    H266756   0.482   5.831  15.262  0.3413 -0.2022  1.1758
15089TIP3   OH266757   6.365   3.123  15.398  0.3154  0.3665  0.5707
15089TIP3    H166758   6.358   3.182  15.323  0.7391  1.0939  1.0917
15089TIP3    H266759   6.318   3.044  15.371  0.5067  0.5971 -0.4794
15090TIP3   OH266760   2.126   3.269   0.543  0.0451  0.0371 -0.4174
15090TIP3    H166761   2.175   3.327   0.601 -0.9039  2.5039 -1.9247
15090TIP3    H266762   2.041   3.260   0.586  0.2118 -0.3001 -0.1538
15091TIP3   OH266763   5.199   4.978   5.759 -0.2787  0.1613 -0.2395
15091TIP3    H166764   5.251   4.925   5.699  0.5285  0.3894  0.2402
15091TIP3    H266765   5.170   4.916   5.826 -1.3118 -0.1251 -0.9279
15092TIP3   OH266766   4.623   3.237  12.342 -0.2405  0.2227  0.5213
15092TIP3    H166767   4.561   3.309  12.329 -0.7386 -0.4039 -0.7554
15092TIP3    H266768   4.569   3.164  12.372  0.2904  0.3992  1.9983
15093TIP3   OH266769   1.321   4.162   5.856 -0.0092 -0.2901  0.1650
15093TIP3    H166770   1.249   4.176   5.918  1.5486  1.2981  1.7759
15093TIP3    H266771   1.395   4.136   5.911  1.4085  1.0464 -0.9996
15094TIP3   OH266772   3.685   4.665   1.483 -0.1207 -0.0918 -0.7024
15094TIP3    H166773   3.772   4.702   1.464 -0.5567  0.6551 -1.2802
15094TIP3    H266774   3.683   4.656   1.578 -0.0734  1.5865 -0.5089
15095TIP3   OH266775   5.207   4.018  14.690 -0.5970 -0.2001 -0.0356
15095TIP3    H166776   5.255   3.936  14.683  1.8175  1.1758 -0.7797
15095TIP3    H266777   5.129   4.005  14.637 -0.1702 -1.9460 -0.2888
15096TIP3   OH266778   3.196   2.665   3.778  0.4724 -0.6765  0.2825
15096TIP3    H166779   3.234   2.736   3.830  4.9939 -1.1400 -1.9566
15096TIP3    H266780   3.240   2.586   3.809  2.2859 -1.1439 -3.0422
15097TIP3   OH266781   0.187   6.515  13.914  0.4290 -0.0871  0.0635
15097TIP3    H166782   0.174   6.441  13.974 -1.0356  0.2515  0.2159
15097TIP3    H266783   0.116   6.507  13.851  0.6499  0.8222 -0.3094
15098TIP3   OH266784   4.288   3.185   5.456 -0.6214 -0.8407 -0.2730
15098TIP3    H166785   4.280   3.280   5.453  0.1443 -0.7461  0.2227
15098TIP3    H266786   4.245   3.160   5.538 -1.6531 -1.0274 -0.8612
15099TIP3   OH266787   4.456   3.223   2.317  0.1690  0.1386  0.3436
15099TIP3    H166788   4.550   3.213   2.330  0.1981  0.8094  0.7273
15099TIP3    H266789   4.430   3.287   2.384 -0.9522 -1.6964  1.7525
15100TIP3   OH266790   4.355   5.351  16.576 -0.1164 -0.9793  0.6203
15100TIP3    H166791   4.443   5.313  16.579  0.7105  0.8087  0.3424
15100TIP3    H266792   4.354   5.416  16.647 -1.3825 -1.2879  0.9124
15101TIP3   OH266793   3.959   0.422  12.360 -0.1596 -0.1642  0.1472
15101TIP3    H166794   3.910   0.379  12.430 -1.4309  1.9709  0.6636
15101TIP3    H266795   4.031   0.466  12.405 -0.5167  0.5539  0.0325
15102TIP3   OH266796   3.742   3.524   3.088  0.1796 -0.2109 -0.2545
15102TIP3    H166797   3.715   3.472   3.163  0.1584 -0.7506 -0.6303
15102TIP3    H266798   3.837   3.523   3.090  0.2291 -2.1793 -1.5359
15103TIP3   OH266799   2.129   5.374   1.788 -0.3304 -0.0381 -0.6166
15103TIP3    H166800   2.206   5.375   1.730  0.0104  1.0129 -0.1670
15103TIP3    H266801   2.054   5.377   1.728 -0.0373 -1.1278 -1.0604
15104TIP3   OH266802   0.228   6.736  13.613 -0.1285 -0.0096 -0.2592
15104TIP3    H166803   0.184   6.685  13.681  2.1019 -0.8295  0.6679
15104TIP3    H266804   0.253   6.818  13.656  0.8990 -0.3453 -0.1924
15105TIP3   OH266805   2.457   2.796  14.691 -0.0333  0.4163  0.5540
15105TIP3    H166806   2.378   2.743  14.674  1.3319 -1.5352 -0.1280
15105TIP3    H266807   2.468   2.848  14.612  0.5868 -0.9962 -0.3195
15106TIP3   OH266808   2.681   5.169  15.214  0.1900  0.0743 -0.2762
15106TIP3    H166809   2.703   5.092  15.268 -0.6113  0.1788  0.2147
15106TIP3    H266810   2.765   5.198  15.178  0.6070 -0.5688  0.1578
15107TIP3   OH266811   2.199   1.462   4.277  0.3789 -0.1255  0.5860
15107TIP3    H166812   2.234   1.492   4.360  0.3051 -0.2864  0.6770
15107TIP3    H266813   2.243   1.516   4.211 -0.5997  0.9726  0.8042
15108TIP3   OH266814   6.400   3.775  15.990  0.6676  0.3549  0.2604
15108TIP3    H166815   6.310   3.744  15.983  0.5853  0.6215  0.1064
15108TIP3    H266816   6.421   3.768  16.083  0.4132  0.4896  0.3277
15109TIP3   OH266817   4.329   2.889   3.448 -0.0059 -0.5270 -0.1560
15109TIP3    H166818   4.280   2.811   3.474  0.0529 -0.0505  1.4569
15109TIP3    H266819   4.339   2.939   3.528 -0.5197  1.4366 -1.2670
15110TIP3   OH266820   6.457   6.266   3.281  0.3356 -0.5715  0.2599
15110TIP3    H166821   6.420   6.181   3.305  0.7156 -0.8580 -0.1352
15110TIP3    H266822   6.439   6.323   3.355  0.6355 -1.1757  0.8064
15111TIP3   OH266823   1.507   1.381  12.377 -0.0704 -0.1116 -0.1525
15111TIP3    H166824   1.414   1.367  12.356 -0.1508  1.3198 -0.8959
15111TIP3    H266825   1.506   1.441  12.452  0.2296  0.6848 -0.7652
15112TIP3   OH266826   5.647   2.455   0.426 -0.6495  0.1517 -0.3149
15112TIP3    H166827   5.568   2.503   0.403 -0.5374  0.4301 -0.1269
15112TIP3    H266828   5.686   2.505   0.498  0.7867  1.1860 -1.7284
15113TIP3   OH266829   0.094   1.822   2.250  0.2239  0.7599 -0.1517
15113TIP3    H166830   0.091   1.750   2.187  0.0447  0.8681 -0.2685
15113TIP3    H266831   0.013   1.815   2.300  0.3396  0.7095  0.0289
15114TIP3   OH266832   0.482   0.952   1.400  0.0975  0.0560  0.1357
15114TIP3    H166833   0.544   0.893   1.441 -0.7213 -0.9028  0.0307
15114TIP3    H266834   0.420   0.895   1.355 -1.6517  0.9017  1.3432
15115TIP3   OH266835   3.597   0.995  17.012 -0.4874 -0.1920 -0.1252
15115TIP3    H166836   3.501   0.992  17.015 -0.4736 -0.0382  1.9262
15115TIP3    H266837   3.617   1.022  16.922 -2.3110 -1.3101 -0.9287
15116TIP3   OH266838   0.886   1.973  11.342 -0.1502 -0.0096  0.3475
15116TIP3    H166839   0.926   2.000  11.259 -2.0072 -0.0226 -0.6046
15116TIP3    H266840   0.893   1.877  11.342 -2.0709 -0.1868 -0.8723
15117TIP3   OH266841   0.775   5.925   5.511  0.0784  0.3676 -0.2662
15117TIP3    H166842   0.788   5.982   5.435 -0.6435 -0.2372 -0.8709
15117TIP3    H266843   0.686   5.945   5.541  0.2297  0.3476  0.2060
15118TIP3   OH266844   0.010   3.629  14.524 -0.1734  0.0266  0.1664
15118TIP3    H166845   0.069   3.555  14.509 -0.2533 -0.0759  0.3531
15118TIP3    H266846   0.058   3.685  14.584  0.6654  1.0481 -1.3820
15119TIP3   OH266847   2.889   1.259  15.252 -0.3773 -0.2043 -0.4597
15119TIP3    H166848   2.814   1.316  15.235  0.1204  0.0274 -2.0215
15119TIP3    H266849   2.852   1.172  15.264 -1.1068  0.3074  1.5072
15120TIP3   OH266850   2.950   2.941  17.028  0.3474 -0.2838  0.1587
15120TIP3    H166851   3.003   2.971  17.102 -0.3360  1.0099  0.1536
15120TIP3    H266852   2.892   2.875  17.065 -0.1180  0.4860  0.8374
15121TIP3   OH266853   4.341   0.786   1.895 -0.4830  0.0320  0.1058
15121TIP3    H166854   4.276   0.855   1.880  0.0640  0.3569 -0.8755
15121TIP3    H266855   4.399   0.791   1.819 -0.4973 -1.5918 -0.0453
15122TIP3   OH266856   3.977   0.199  14.839 -0.6173  0.3231 -0.2896
15122TIP3    H166857   3.946   0.122  14.887  0.2448 -0.0396 -0.2821
15122TIP3    H266858   3.977   0.269  14.904  0.1810 -0.0756  0.1551
15123TIP3   OH266859   5.975   0.739  16.021  0.0960 -0.6482 -0.1129
15123TIP3    H166860   5.880   0.747  16.021  0.0289 -1.2259 -1.2732
15123TIP3    H266861   6.003   0.778  15.938  0.9452  0.1971  0.5458
15124TIP3   OH266862   5.974   3.125   5.418 -0.5641  0.3176  0.1788
15124TIP3    H166863   5.946   3.211   5.450  0.0118  0.1080  1.2790
15124TIP3    H266864   5.901   3.095   5.363 -1.0861  1.1886  0.3823
15125TIP3   OH266865   6.343   4.975   6.263 -0.2323  0.2501  0.4474
15125TIP3    H166866   6.321   5.048   6.204 -0.8558  0.3049  0.7354
15125TIP3    H266867   6.307   4.898   6.220  0.2915  0.1330  0.2186
15126TIP3   OH266868   0.824   3.313   5.423  0.0575 -0.2325  0.2420
15126TIP3    H166869   0.867   3.369   5.358  1.5670 -0.0420  1.3490
15126TIP3    H266870   0.747   3.363   5.451 -0.7919 -0.4486 -1.5719
15127TIP3   OH266871   2.970   6.723   0.463  0.0322  0.3342  0.4701
15127TIP3    H166872   2.894   6.688   0.511 -0.6162  1.0302 -0.0282
15127TIP3    H266873   2.938   6.804   0.423  0.6625 -0.0537 -0.8655
15128TIP3   OH266874   6.167   5.388  13.291  0.4032  0.1215  0.5062
15128TIP3    H166875   6.116   5.396  13.372  0.2721  0.9488  0.3583
15128TIP3    H266876   6.239   5.450  13.302  0.5749 -0.0091  0.1298
15129TIP3   OH266877   6.752   6.069  16.205  0.2359  0.0597  0.3546
15129TIP3    H166878   6.815   6.137  16.227  2.2729 -1.4883 -0.3259
15129TIP3    H266879   6.793   5.988  16.235 -0.5780 -1.2264 -1.7461
15130TIP3   OH266880   1.699   5.700   2.290 -0.6385 -0.1960  0.6272
15130TIP3    H166881   1.636   5.752   2.341 -2.3849 -0.6353 -0.9536
15130TIP3    H266882   1.672   5.712   2.199  1.3946 -0.7063 -0.1012
15131TIP3   OH266883   4.268   0.591  11.197 -0.1131 -0.9854 -0.2595
15131TIP3    H166884   4.288   0.653  11.127 -1.0293 -0.7115 -0.2933
15131TIP3    H266885   4.206   0.637  11.253 -1.5721 -2.1944 -0.8188
15132TIP3   OH266886   1.937   6.111   3.982 -0.4282  0.2872  0.4974
15132TIP3    H166887   1.934   6.087   3.890  0.0602  0.1466  0.5194
15132TIP3    H266888   1.938   6.027   4.029  0.9102  0.3395  0.5845
15133TIP3   OH266889   6.277   4.605  15.591  0.2348 -0.2483  0.1242
15133TIP3    H166890   6.369   4.590  15.612  0.1703  0.9148  1.3405
15133TIP3    H266891   6.240   4.517  15.583  1.2377 -0.7319  0.5904
15134TIP3   OH266892   4.948   1.335   6.032  0.3652 -0.2643  0.1190
15134TIP3    H166893   5.022   1.394   6.029  0.1966 -0.0726 -0.2412
15134TIP3    H266894   4.875   1.384   5.993  0.0778 -0.4899  0.3603
15135TIP3   OH266895   5.533   3.406  12.094  0.1270  0.4145 -0.1189
15135TIP3    H166896   5.449   3.371  12.063 -1.8571  1.8848  3.1580
15135TIP3    H266897   5.586   3.328  12.109 -0.4150 -0.5419 -2.6228
15136TIP3   OH266898   4.756   6.635   0.624 -0.2237 -0.4939  0.2087
15136TIP3    H166899   4.784   6.562   0.570 -0.1010  0.1916 -0.6716
15136TIP3    H266900   4.800   6.621   0.708  0.6442 -0.8571 -0.2985
15137TIP3   OH266901   0.556   1.866  17.200 -0.5324  0.0857 -0.3307
15137TIP3    H166902   0.628   1.871  17.136 -0.8173 -0.1956 -0.6767
15137TIP3    H266903   0.580   1.930  17.267 -1.0666  1.6825 -1.5834
15138TIP3   OH266904   4.173   2.135  16.674  0.2993 -0.1492 -0.3066
15138TIP3    H166905   4.209   2.223  16.662  0.0867 -0.0878 -0.4951
15138TIP3    H266906   4.118   2.142  16.752 -0.6029  0.1615 -0.9638
15139TIP3   OH266907   3.186   5.431   6.336  0.3580 -0.0319 -0.0129
15139TIP3    H166908   3.221   5.515   6.364 -0.4107  0.5768 -0.8128
15139TIP3    H266909   3.262   5.381   6.306  0.6798  0.8234 -0.6408
15140TIP3   OH266910   4.201   1.404  16.576  0.2946  0.1200 -0.2475
15140TIP3    H166911   4.178   1.312  16.562  2.3135 -0.4569  0.0102
15140TIP3    H266912   4.284   1.402  16.623 -0.0838  2.0921  0.6119
15141TIP3   OH266913   6.680   5.347  11.320  0.2772  0.3244  0.2756
15141TIP3    H166914   6.617   5.275  11.322  1.0004 -0.3198  0.5742
15141TIP3    H266915   6.766   5.304  11.320  0.7439  1.1135 -2.1834
15142TIP3   OH266916   2.086   3.063  16.172  0.2785 -1.0621 -0.1009
15142TIP3    H166917   2.148   3.135  16.160  0.5894 -0.8938  2.1896
15142TIP3    H266918   2.102   3.032  16.261 -0.6971 -3.1803 -0.6068
15143TIP3   OH266919   6.119   3.747  15.714  0.8316  0.3899  0.6229
15143TIP3    H166920   6.073   3.812  15.661 -0.1738 -0.1251  0.8542
15143TIP3    H266921   6.115   3.667  15.662 -0.1678 -0.1194  1.4617
15144TIP3   OH266922   1.377   6.285  16.708  0.8509 -0.3031  0.2267
15144TIP3    H166923   1.458   6.329  16.735 -0.4872  1.3708  1.7743
15144TIP3    H266924   1.312   6.314  16.772 -0.9158 -1.8795 -0.7608
15145TIP3   OH266925   1.944   0.097  16.705 -0.1872  0.5183 -0.0870
15145TIP3    H166926   1.929   0.041  16.781  1.0146 -0.7565 -0.7362
15145TIP3    H266927   1.872   0.160  16.707  0.1887  0.9793  2.4775
15146TIP3   OH266928   1.313   2.309  12.677  0.2749  0.0523 -0.2124
15146TIP3    H166929   1.292   2.360  12.599  0.1695 -0.9464 -0.8623
15146TIP3    H266930   1.406   2.288  12.667  0.2215 -0.2139 -0.1629
15147TIP3   OH266931   5.605   6.014  14.455 -0.2647 -0.3079 -0.0116
15147TIP3    H166932   5.671   5.976  14.397  0.4708  0.2368  0.4539
15147TIP3    H266933   5.581   5.942  14.514  1.7684  0.1342  1.4326
15148TIP3   OH266934   6.368   5.631   1.069 -0.0967 -0.2492 -0.8177
15148TIP3    H166935   6.410   5.559   1.116 -0.7847  0.0257  0.2551
15148TIP3    H266936   6.392   5.617   0.977  1.4406 -0.6991 -0.3798
15149TIP3   OH266937   5.103   5.646   0.154  0.1992 -0.6292  0.0911
15149TIP3    H166938   5.057   5.721   0.191  2.3083  1.6091 -1.4734
15149TIP3    H266939   5.094   5.577   0.220 -2.3206  0.7592  1.3421
15150TIP3   OH266940   0.351   5.782  15.911  0.1714 -0.1114  0.4141
15150TIP3    H166941   0.376   5.857  15.856 -1.4049  0.0402 -0.1466
15150TIP3    H266942   0.264   5.805  15.944 -0.7069 -2.0243 -0.4049
15151TIP3   OH266943   3.302   6.385  13.828 -0.4349 -0.3912 -0.1907
15151TIP3    H166944   3.364   6.410  13.897 -0.9825  1.4010 -0.3017
15151TIP3    H266945   3.230   6.342  13.875  0.2072 -1.1739  0.0935
15152TIP3   OH266946   1.325   0.572   2.959  0.0496  0.0068 -0.3606
15152TIP3    H166947   1.294   0.637   3.022  0.0929 -0.1741 -0.1500
15152TIP3    H266948   1.386   0.620   2.904  0.4438  0.0374  0.0921
15153TIP3   OH266949   3.637   6.457  17.049  0.1689  0.1299 -0.4708
15153TIP3    H166950   3.602   6.483  16.964  1.5684  2.5706 -0.3987
15153TIP3    H266951   3.564   6.415  17.094 -0.6449 -1.0648 -2.7888
15154TIP3   OH266952   3.797   6.217   5.840  0.3896  0.3678 -0.3979
15154TIP3    H166953   3.775   6.189   5.751  0.0846  1.1471 -0.5738
15154TIP3    H266954   3.744   6.161   5.896 -0.6258  0.9378 -0.7619
15155TIP3   OH266955   5.208   0.047  11.770 -0.1401  0.5641  0.3504
15155TIP3    H166956   5.301   0.058  11.790  0.9067 -3.9455 -0.9211
15155TIP3    H266957   5.197   0.090  11.685  1.0378  0.3288  0.0586
15156TIP3   OH266958   1.367   1.833   3.145  0.1444 -0.0117 -0.5274
15156TIP3    H166959   1.279   1.822   3.111  0.1130  2.4344 -1.4939
15156TIP3    H266960   1.413   1.882   3.077  1.6191  0.5642  0.8010
15157TIP3   OH266961   1.894   0.928   4.163  0.6950  0.0640 -0.6090
15157TIP3    H166962   1.922   0.838   4.147  3.1297  1.0640 -2.6055
15157TIP3    H266963   1.916   0.975   4.082 -3.5897  1.8640 -0.9956
15158TIP3   OH266964   2.968   0.143   5.658  0.3970  0.1272  0.2672
15158TIP3    H166965   3.050   0.107   5.624 -0.3022 -0.9159 -0.3874
15158TIP3    H266966   2.926   0.069   5.703 -0.7220  0.2931 -0.4470
15159TIP3   OH266967   3.687   4.887  16.394 -0.5656  0.3957 -0.2814
15159TIP3    H166968   3.757   4.915  16.335  2.5755  0.0032  2.9560
15159TIP3    H266969   3.663   4.965  16.443 -1.3844  0.1915 -0.3279
15160TIP3   OH266970   6.401   6.659   4.933  0.0286  0.2191 -0.1277
15160TIP3    H166971   6.364   6.743   4.959  1.3246  0.3616  1.3687
15160TIP3    H266972   6.422   6.670   4.840 -0.7761  1.1885 -0.2015
15161TIP3   OH266973   2.081   1.284  14.689  0.3341  0.0224  0.1086
15161TIP3    H166974   2.032   1.366  14.696  0.0894 -0.2057  1.3218
15161TIP3    H266975   2.015   1.219  14.666  0.2150 -0.1241  0.8391
15162TIP3   OH266976   2.832   1.460   2.285  0.3129 -0.0256  0.1083
15162TIP3    H166977   2.891   1.506   2.345  3.8551  1.2398 -3.8269
15162TIP3    H266978   2.883   1.386   2.254 -1.8931 -1.4056 -0.4590
15163TIP3   OH266979   5.444   3.546  15.001 -0.4205 -0.0929 -0.5522
15163TIP3    H166980   5.364   3.518  14.956 -1.6232  1.4075  0.5418
15163TIP3    H266981   5.498   3.584  14.932 -0.6860 -1.0172 -1.2885
15164TIP3   OH266982   3.311   1.081  15.675 -0.7729 -0.7321  0.8983
15164TIP3    H166983   3.399   1.089  15.710 -0.0003 -1.6888 -0.7528
15164TIP3    H266984   3.275   1.169  15.682  0.5346 -0.1863  1.0084
15165TIP3   OH266985   0.075   0.914  15.582  0.6214 -0.5059  0.1975
15165TIP3    H166986   0.079   1.001  15.623  0.2007 -0.7957  0.8739
15165TIP3    H266987   0.044   0.856  15.652 -2.7133 -0.5767 -1.1386
15166TIP3   OH266988   5.370   2.554   6.356  0.1782 -0.2317 -0.1666
15166TIP3    H166989   5.296   2.614   6.371  1.0179  0.4022  1.8085
15166TIP3    H266990   5.334   2.467   6.376 -0.1954 -0.0014  0.1880
15167TIP3   OH266991   4.255   0.051  14.567  0.3602 -0.3041  0.0356
15167TIP3    H166992   4.295   0.033  14.653 -0.7189  1.0077  0.8486
15167TIP3    H266993   4.328   0.081  14.513  0.6806  1.1721  1.2236
15168TIP3   OH266994   4.244   6.003   3.426  0.3795  0.0624 -0.3029
15168TIP3    H166995   4.316   6.064   3.413 -0.2422  1.1152  0.9733
15168TIP3    H266996   4.168   6.047   3.388 -0.1172  0.2095  0.8241
15169TIP3   OH266997   4.607   2.218   4.174 -0.0012  0.2453  0.0678
15169TIP3    H166998   4.620   2.264   4.257 -1.2826  2.4848 -0.8744
15169TIP3    H266999   4.512   2.219   4.160  0.0493 -1.4756 -0.7192
15170TIP3   OH267000   6.419   3.412   5.208  0.9849 -0.3989 -0.0950
15170TIP3    H167001   6.385   3.494   5.245  0.9503 -0.0282 -0.9189
15170TIP3    H267002   6.355   3.346   5.234  1.3845 -0.3097  1.1908
15171TIP3   OH267003   5.104   6.167  11.168 -0.3132 -0.5643  0.5313
15171TIP3    H167004   5.198   6.186  11.173 -0.2491 -0.2836 -1.2034
15171TIP3    H267005   5.084   6.125  11.252  1.2042  0.0093  1.2245
15172TIP3   OH267006   1.324   1.862  17.119  1.0880 -0.3809 -0.3776
15172TIP3    H167007   1.298   1.797  17.185 -0.0011 -1.2386 -1.5973
15172TIP3    H267008   1.303   1.821  17.035  1.1925  1.2061 -1.2219
15173TIP3   OH267009   3.140   2.973  14.973 -0.0373 -0.1026 -0.0457
15173TIP3    H167010   3.181   3.038  15.030 -0.5898 -0.3062  0.5945
15173TIP3    H267011   3.172   2.889  15.004  0.7264 -0.1469 -0.9158
15174TIP3   OH267012   1.370   5.571   2.131 -0.2544  0.3278 -0.3730
15174TIP3    H167013   1.434   5.619   2.079  0.1554 -0.7598 -0.9060
15174TIP3    H267014   1.411   5.486   2.148 -1.0007  0.1090  0.4447
15175TIP3   OH267015   3.637   0.637  10.814  0.0839  0.1756 -0.5924
15175TIP3    H167016   3.678   0.551  10.819 -0.5138 -0.1196 -0.6328
15175TIP3    H267017   3.545   0.619  10.792 -0.4844  0.7103  1.1195
15176TIP3   OH267018   5.346   4.337   5.435  0.2999 -0.6332  0.6825
15176TIP3    H167019   5.270   4.292   5.399  0.6184 -0.7777  0.1752
15176TIP3    H267020   5.415   4.323   5.370  0.4308  0.5264  0.5426
15177TIP3   OH267021   5.107   3.863   1.859 -0.3230  0.3596 -0.4176
15177TIP3    H167022   5.033   3.894   1.911  2.2031  1.3208  2.9499
15177TIP3    H267023   5.117   3.771   1.883  0.7801  0.7771  0.8720
15178TIP3   OH267024   4.032   0.167  14.104 -0.0166  0.1187 -0.7101
15178TIP3    H167025   3.994   0.112  14.172 -1.5055  0.5356 -1.1693
15178TIP3    H267026   4.081   0.107  14.048 -0.4998 -0.5281 -0.4387
15179TIP3   OH267027   6.163   1.400  16.258 -0.0370 -0.5508 -0.2716
15179TIP3    H167028   6.119   1.485  16.264  0.7327  0.0178 -2.0488
15179TIP3    H267029   6.122   1.347  16.326 -1.4045  0.8552  0.0567
15180TIP3   OH267030   1.617   3.795  10.873  0.3280 -0.3439  0.0382
15180TIP3    H167031   1.678   3.863  10.846  0.0959 -0.7066 -1.5133
15180TIP3    H267032   1.540   3.809  10.818 -1.2229  0.4017  2.2681
15181TIP3   OH267033   4.227   5.094  16.629 -0.1845 -0.0861 -0.5526
15181TIP3    H167034   4.221   5.165  16.566 -1.0984  0.2371 -0.1166
15181TIP3    H267035   4.221   5.137  16.715 -0.9228 -0.7004 -0.2872
15182TIP3   OH267036   5.610   6.047   2.043 -0.1788 -0.8355 -0.1761
15182TIP3    H167037   5.700   6.069   2.067 -0.2769  0.4398 -0.8596
15182TIP3    H267038   5.565   6.033   2.126  0.4481 -0.6058  0.2032
15183TIP3   OH267039   3.769   1.172  12.930 -0.1006  0.2254  0.3210
15183TIP3    H167040   3.705   1.218  12.875 -1.9055 -2.6901 -0.2584
15183TIP3    H267041   3.715   1.113  12.983  1.9467 -0.1298  2.0889
15184TIP3   OH267042   4.566   5.735   1.443 -0.6924 -0.2873 -0.0355
15184TIP3    H167043   4.488   5.726   1.497 -0.4693 -1.0829  0.1721
15184TIP3    H267044   4.593   5.645   1.425 -1.0338 -0.0591 -1.8918
15185TIP3   OH267045   5.879   0.284  12.645 -0.0767 -0.8317 -0.7977
15185TIP3    H167046   5.974   0.294  12.640 -0.0770 -0.4588 -0.1266
15185TIP3    H267047   5.864   0.232  12.723 -0.5539  1.7210  0.9451
15186TIP3   OH267048   1.437   3.720   5.395  0.2044 -0.1692 -0.0029
15186TIP3    H167049   1.426   3.632   5.359  1.0403 -0.5146  0.5376
15186TIP3    H267050   1.479   3.769   5.324  2.1759 -0.9406  0.5475
15187TIP3   OH267051   2.257   0.049   3.572 -0.0468  0.3736 -0.0656
15187TIP3    H167052   2.292   0.077   3.656 -0.1338  3.8222 -0.9947
15187TIP3    H267053   2.171   0.092   3.567 -2.0501 -3.2933 -0.1871
15188TIP3   OH267054   3.209   6.698   1.764 -0.2296  0.3756  0.1086
15188TIP3    H167055   3.163   6.706   1.680 -2.4637  2.9187  1.3935
15188TIP3    H267056   3.208   6.605   1.783  0.1420 -0.2608 -2.5322
15189TIP3   OH267057   0.115   0.483   3.862  1.1285 -0.4416 -0.1413
15189TIP3    H167058   0.144   0.491   3.771  0.3055 -2.1339 -0.5931
15189TIP3    H267059   0.108   0.389   3.877  0.2797 -0.1736  1.3552
15190TIP3   OH267060   3.211   1.752  11.605  0.0039 -0.4326  0.6633
15190TIP3    H167061   3.300   1.777  11.578  0.2984 -3.0174 -1.1333
15190TIP3    H267062   3.218   1.735  11.699  0.8664  1.2948  0.9655
15191TIP3   OH267063   2.565   4.964  15.070  0.2684 -0.2547  0.5374
15191TIP3    H167064   2.620   4.973  14.993 -1.1921 -0.1327 -0.5320
15191TIP3    H267065   2.590   5.038  15.126 -0.5304  1.3002 -1.0582
15192TIP3   OH267066   5.960   1.832   0.601 -0.1283 -0.4373  0.2302
15192TIP3    H167067   5.889   1.769   0.592 -1.0534  0.6034 -0.0410
15192TIP3    H267068   5.917   1.911   0.634  0.7854  0.4161 -0.5493
15193TIP3   OH267069   2.664   3.760  12.126 -0.5350  0.1167  0.2577
15193TIP3    H167070   2.616   3.814  12.063  0.3640 -1.0885 -1.5614
15193TIP3    H267071   2.603   3.747  12.198 -1.2747  2.3265  0.0966
15194TIP3   OH267072   3.511   5.028   2.669  0.3003  0.4223 -0.2920
15194TIP3    H167073   3.493   4.971   2.745  1.8427  0.7381  0.3296
15194TIP3    H267074   3.597   5.000   2.638 -0.0399  0.7306 -1.5534
15195TIP3   OH267075   2.546   4.351  13.080  0.2432  0.4274  0.1026
15195TIP3    H167076   2.623   4.314  13.036  0.4583  1.0504 -0.0552
15195TIP3    H267077   2.513   4.417  13.019 -0.4716  0.1014  0.1325
15196TIP3   OH267078   3.560   5.620   0.127  0.3432 -0.1172  0.2226
15196TIP3    H167079   3.478   5.665   0.106  0.5378  0.2743  0.2922
15196TIP3    H267080   3.571   5.556   0.057  0.1027  0.0011  0.0763
15197TIP3   OH267081   6.755   2.653  16.091 -0.3298 -0.3351 -0.1408
15197TIP3    H167082   6.811   2.588  16.133 -1.9085 -1.3308  0.5167
15197TIP3    H267083   6.677   2.604  16.064 -0.9702  1.0241 -0.8769
15198TIP3   OH267084   1.350   0.510   0.156 -0.1580 -0.0951 -0.1984
15198TIP3    H167085   1.310   0.591   0.123 -0.2456 -0.6453 -1.4781
15198TIP3    H267086   1.436   0.538   0.189  0.0769  0.4229 -1.2075
15199TIP3   OH267087   0.940   0.232   2.133  0.1489 -0.0574  0.1043
15199TIP3    H167088   1.027   0.193   2.126  0.4883  0.6875  0.0829
15199TIP3    H267089   0.895   0.178   2.197  0.0166 -1.5447 -1.1631
15200TIP3   OH267090   3.232   4.864   4.017  0.2750 -0.6790  0.2347
15200TIP3    H167091   3.279   4.872   3.934 -0.5470 -0.2998 -0.2094
15200TIP3    H267092   3.195   4.776   4.015  0.7704 -0.8955  0.4829
15201TIP3   OH267093   6.066   4.582   3.245 -0.0442  0.2288  0.1126
15201TIP3    H167094   6.093   4.546   3.329  2.9067 -1.3045 -1.3135
15201TIP3    H267095   6.142   4.631   3.214 -2.0460  3.1771 -0.4984
15202TIP3   OH267096   6.109   6.327   3.358 -0.4753 -0.1122 -0.1158
15202TIP3    H167097   6.076   6.339   3.447 -0.5744  1.8722 -0.3762
15202TIP3    H267098   6.188   6.381   3.354 -0.0111 -0.8223 -0.9987
15203TIP3   OH267099   1.699   4.124   5.692 -0.3000  0.4433  0.8843
15203TIP3    H167100   1.695   4.113   5.787  0.0658 -2.6166  0.6427
15203TIP3    H267101   1.613   4.159   5.668 -1.6801 -1.9151  2.0883
15204TIP3   OH267102   5.625   4.923  16.294 -0.0722 -0.0020  0.0397
15204TIP3    H167103   5.609   4.833  16.321 -0.7423 -0.7900 -2.7701
15204TIP3    H267104   5.542   4.968  16.309 -0.2599 -0.2806 -0.1634
15205TIP3   OH267105   3.230   4.985  13.612  0.0616  0.0140  0.4225
15205TIP3    H167106   3.148   4.974  13.563  0.3505 -1.7089  0.2606
15205TIP3    H267107   3.234   4.909  13.670  1.3322  0.2937  0.7404
15206TIP3   OH267108   3.987   3.932  17.206 -0.4852  0.1634  0.9524
15206TIP3    H167109   4.020   3.968  17.288  0.6187  0.6860  0.3023
15206TIP3    H267110   3.938   4.004  17.166  2.8180  1.5935 -0.9774
15207TIP3   OH267111   1.756   3.992  11.618  0.1496 -0.2273 -0.1028
15207TIP3    H167112   1.754   4.053  11.692 -1.4958  0.2379 -0.4923
15207TIP3    H267113   1.682   4.018  11.563  0.7946 -1.1385 -1.4622
15208TIP3   OH267114   5.932   1.709  11.056 -0.1023  0.2821  0.3342
15208TIP3    H167115   5.970   1.732  11.141  0.2188  0.8274  0.0522
15208TIP3    H267116   6.008   1.701  10.998 -0.0697 -2.6809  0.6543
15209TIP3   OH267117   6.747   6.576  11.957 -0.1701  0.2026  0.9123
15209TIP3    H167118   6.730   6.532  11.874 -1.5310  0.0784  1.2296
15209TIP3    H267119   6.824   6.532  11.992  0.8077  0.6698 -0.5488
15210TIP3   OH267120   4.733   6.717  17.136 -0.2559 -0.1212  0.0091
15210TIP3    H167121   4.763   6.712  17.045 -0.3041  0.8724 -0.0716
15210TIP3    H267122   4.814   6.714  17.188 -0.2128 -0.4506 -0.0759
15211TIP3   OH267123   2.108   5.271  13.198 -0.2564 -0.3348 -0.2881
15211TIP3    H167124   2.026   5.223  13.202 -0.2935 -0.3076 -0.6563
15211TIP3    H267125   2.085   5.354  13.155  0.1362 -0.7146 -1.2610
15212TIP3   OH267126   2.751   4.300  11.308 -0.3909  0.3042 -0.1216
15212TIP3    H167127   2.660   4.322  11.329 -0.4838  1.4029 -1.5331
15212TIP3    H267128   2.789   4.273  11.391 -1.9410  0.0398  0.5415
15213TIP3   OH267129   3.478   6.401  10.761  0.0085 -0.3755  0.3406
15213TIP3    H167130   3.484   6.454  10.840 -2.9578  0.1886  0.2922
15213TIP3    H267131   3.519   6.455  10.693  1.4778 -0.3444  1.2127
15214TIP3   OH267132   2.389   5.833  13.332 -0.0846 -0.0441  0.2306
15214TIP3    H167133   2.374   5.811  13.240 -0.4758  0.6181  0.1283
15214TIP3    H267134   2.312   5.885  13.357  0.7786  1.1665  0.4603
15215TIP3   OH267135   3.554   2.094  16.504  0.3522  0.3168  0.0100
15215TIP3    H167136   3.498   2.048  16.567  0.5332  0.9774  0.6682
15215TIP3    H267137   3.521   2.066  16.418 -0.2166 -0.2163  0.3909
15216TIP3   OH267138   4.062   0.185  13.749 -0.3864 -0.3649 -0.5261
15216TIP3    H167139   4.054   0.272  13.788 -0.0168 -0.6526  0.1992
15216TIP3    H267140   4.110   0.133  13.814 -0.6822 -1.1379 -0.9114
15217TIP3   OH267141   2.148   6.051   6.179  0.4733  0.3287 -0.3692
15217TIP3    H167142   2.186   6.139   6.181  0.8779  0.1705 -0.8400
15217TIP3    H267143   2.062   6.061   6.219  0.6513  0.8735 -0.1152
15218TIP3   OH267144   0.246   5.519  12.933 -0.5356 -0.5471 -0.0149
15218TIP3    H167145   0.191   5.479  13.001 -0.7733  0.6563  0.5106
15218TIP3    H267146   0.331   5.477  12.944 -1.0650 -1.7067 -0.1865
15219TIP3   OH267147   2.523   3.962  14.989  0.1315 -0.1868  0.5439
15219TIP3    H167148   2.493   3.951  15.080  2.8136  1.2494  1.7442
15219TIP3    H267149   2.565   3.879  14.967  1.7953  0.3082  1.6703
15220TIP3   OH267150   2.266   1.956  13.093 -0.1228  0.0100 -0.3513
15220TIP3    H167151   2.190   1.984  13.144  0.1182  0.5948 -0.3018
15220TIP3    H267152   2.327   2.030  13.098  0.0252 -0.0301 -1.2362
15221TIP3   OH267153   1.712   3.450  15.433  0.3191 -0.0405  0.5826
15221TIP3    H167154   1.633   3.504  15.426 -0.1579 -0.5648  1.5880
15221TIP3    H267155   1.738   3.433  15.343 -0.9904 -0.2296  0.2123
15222TIP3   OH267156   5.765   1.429   3.965  0.0736 -0.2381  0.3915
15222TIP3    H167157   5.685   1.379   3.980  0.1523 -0.3763  0.3520
15222TIP3    H267158   5.790   1.409   3.875 -1.2431  1.7888 -0.5147
15223TIP3   OH267159   1.145   6.734   4.457 -0.1790 -0.5835  0.0335
15223TIP3    H167160   1.093   6.686   4.522 -0.4156 -0.4740 -0.0746
15223TIP3    H267161   1.214   6.776   4.508 -1.0558  0.4712  0.3797
15224TIP3   OH267162   2.409   0.805   2.738  0.6001  0.0371 -0.3069
15224TIP3    H167163   2.388   0.889   2.696 -0.3622  0.5074  1.0446
15224TIP3    H267164   2.333   0.750   2.722  0.8603 -0.2860 -0.4430
15225TIP3   OH267165   6.595   6.772  15.096 -0.3652  1.0079 -0.0759
15225TIP3    H167166   6.556   6.841  15.150 -3.0101  0.0092 -0.5500
15225TIP3    H267167   6.557   6.786  15.009 -1.0972 -1.0805 -0.1420
15226TIP3   OH267168   2.538   4.235  16.961 -0.3685 -0.1185 -0.4603
15226TIP3    H167169   2.619   4.196  16.993 -0.5791 -1.8789 -1.8772
15226TIP3    H267170   2.492   4.163  16.918 -4.0729  0.0312  2.6673
15227TIP3   OH267171   0.076   0.691   5.789  0.4110  0.0386  0.1682
15227TIP3    H167172   0.017   0.744   5.737  0.7259 -0.6526 -0.9434
15227TIP3    H267173   0.078   0.733   5.875  0.0761  1.3634 -0.4488
15228TIP3   OH267174   2.988   0.771  15.088 -0.3703  0.1926  0.4840
15228TIP3    H167175   3.004   0.839  15.022  0.3095 -0.5568 -0.1411
15228TIP3    H267176   3.059   0.781  15.151 -1.6152  1.6239  1.7650
15229TIP3   OH267177   5.772   1.698  10.695 -0.5162  0.3010 -0.2409
15229TIP3    H167178   5.684   1.661  10.703 -0.4358 -0.0084 -0.7720
15229TIP3    H267179   5.830   1.631  10.730 -0.4242  0.1747 -0.6294
15230TIP3   OH267180   3.393   2.785   3.472  0.0020  0.6755  0.1453
15230TIP3    H167181   3.414   2.692   3.465  0.7166  0.7574  1.0554
15230TIP3    H267182   3.385   2.814   3.381 -0.5383 -0.3338 -0.1470
15231TIP3   OH267183   4.546   2.990   1.326  0.1815  0.0917  0.3667
15231TIP3    H167184   4.463   2.957   1.362  0.6961 -1.2328  0.3997
15231TIP3    H267185   4.555   3.078   1.364 -1.2828  0.3340  0.2182
15232TIP3   OH267186   0.434   1.795   2.688 -0.0898  0.2814 -0.5230
15232TIP3    H167187   0.410   1.881   2.723 -1.5926 -0.0207 -0.7697
15232TIP3    H267188   0.376   1.782   2.614 -0.7877 -1.4938  0.2899
15233TIP3   OH267189   3.806   2.002  11.241  0.4840 -0.4318 -0.3480
15233TIP3    H167190   3.816   2.000  11.146 -2.2111 -0.3177 -0.7076
15233TIP3    H267191   3.781   2.092  11.261  0.6190 -0.5571  0.4227
15234TIP3   OH267192   5.286   3.621   4.256  0.2388  0.1484 -0.2316
15234TIP3    H167193   5.339   3.632   4.335  2.1048  0.6992 -1.4803
15234TIP3    H267194   5.338   3.562   4.201 -1.3807 -0.8405 -0.7546
15235TIP3   OH267195   3.945   1.962   6.022  0.0988 -0.4528 -0.2842
15235TIP3    H167196   3.919   1.877   6.058 -0.6572  0.9038  2.5925
15235TIP3    H267197   3.866   2.015   6.025  0.9982  0.9351 -0.2457
15236TIP3   OH267198   1.941   5.307   5.065  0.2625 -0.3984  0.0302
15236TIP3    H167199   1.873   5.351   5.116  2.5910  2.6064  0.8117
15236TIP3    H267200   1.931   5.343   4.976 -0.0879 -1.1709 -0.2606
15237TIP3   OH267201   1.991   0.833   0.826 -0.0051  0.1262 -0.1344
15237TIP3    H167202   2.037   0.762   0.871 -0.5802 -0.0273  0.2234
15237TIP3    H267203   1.945   0.880   0.895  2.5063  2.5582  0.0660
15238TIP3   OH267204   1.341   6.012  16.196 -0.2212 -0.2407 -0.2324
15238TIP3    H167205   1.389   6.024  16.114 -0.2003  1.0724 -0.0479
15238TIP3    H267206   1.407   6.024  16.264 -0.0858 -2.0488 -0.0057
15239TIP3   OH267207   0.639   3.607   0.333 -0.4281  0.3149 -0.2187
15239TIP3    H167208   0.655   3.561   0.251  0.2799 -0.1222  0.1566
15239TIP3    H267209   0.681   3.553   0.400 -0.8247  0.7656  0.4122
15240TIP3   OH267210   4.001   0.399  11.853 -0.3829  0.2730 -0.4634
15240TIP3    H167211   3.956   0.454  11.789  0.9092 -1.4290 -2.9599
15240TIP3    H267212   4.071   0.455  11.888 -1.8976  1.6372  0.5447
15241TIP3   OH267213   6.766   4.766   2.927  0.1572  0.3920  0.2361
15241TIP3    H167214   6.812   4.733   2.849 -0.3064  0.7294 -0.1813
15241TIP3    H267215   6.818   4.733   3.000 -0.7712 -2.0945 -0.1131
15242TIP3   OH267216   1.410   6.079   2.322  0.3761  1.0812 -0.0525
15242TIP3    H167217   1.469   6.047   2.390 -1.4591 -0.6902  0.8119
15242TIP3    H267218   1.326   6.034   2.339 -1.0995  3.0944 -1.5015
15243TIP3   OH267219   4.917   1.060  16.514 -0.4926  0.3119  1.2950
15243TIP3    H167220   4.895   1.072  16.422 -1.2239  1.2970  1.5799
15243TIP3    H267221   4.926   0.965  16.524  0.7655  0.2423 -0.0295
15244TIP3   OH267222   1.858   1.056  11.416  0.4394 -0.7341 -0.1209
15244TIP3    H167223   1.920   1.115  11.373 -0.5757  0.3659 -0.1391
15244TIP3    H267224   1.889   0.968  11.394  1.8810 -0.2270 -0.2583
15245TIP3   OH267225   1.299   6.132  11.538  0.5649  0.5673 -0.0263
15245TIP3    H167226   1.283   6.132  11.632 -0.2296 -0.7743 -0.1385
15245TIP3    H267227   1.337   6.046  11.520  1.5652  1.1459 -0.8171
15246TIP3   OH267228   2.087   4.303  12.572  0.3754  0.2885 -0.3080
15246TIP3    H167229   2.068   4.217  12.535  1.7844  0.6888 -2.0636
15246TIP3    H267230   2.147   4.344  12.510  4.0479  0.5134  2.9328
15247TIP3   OH267231   1.814   2.021  14.888  0.1710 -0.0033  0.2070
15247TIP3    H167232   1.841   2.042  14.799 -0.0673 -1.8157 -0.3323
15247TIP3    H267233   1.720   2.002  14.881  0.1075  0.0249  0.8792
15248TIP3   OH267234   1.198   2.270  13.449 -0.6184 -1.1302 -0.2689
15248TIP3    H167235   1.262   2.242  13.384  0.7565 -3.2296  1.8523
15248TIP3    H267236   1.132   2.318  13.398  2.3760  0.9251 -2.6035
15249TIP3   OH267237   1.544   4.705  14.321  0.0456  0.1624 -0.1397
15249TIP3    H167238   1.521   4.616  14.296  1.2396  0.1420 -1.2655
15249TIP3    H267239   1.567   4.748  14.239  2.7300  0.5290  0.7070
15250TIP3   OH267240   6.488   0.447   5.367 -0.3254 -0.0992  0.7276
15250TIP3    H167241   6.453   0.369   5.410  2.7912 -2.6031 -0.8340
15250TIP3    H267242   6.471   0.432   5.274  1.9185  0.0799  0.2282
15251TIP3   OH267243   0.689   0.843   2.363  0.7313  0.7746  0.1810
15251TIP3    H167244   0.713   0.936   2.359 -0.1553  1.1650  2.4675
15251TIP3    H267245   0.763   0.802   2.408 -0.1524  0.9426  1.8656
15252TIP3   OH267246   4.475   5.704  14.168  0.0235  0.0624  0.8845
15252TIP3    H167247   4.400   5.761  14.183  0.2610 -0.2223  3.6048
15252TIP3    H267248   4.443   5.638  14.106 -1.2405  1.2501  0.2342
15253TIP3   OH267249   1.893   5.876   3.808  0.3231 -0.2898  0.3677
15253TIP3    H167250   1.823   5.867   3.742 -0.5801  1.4434  1.0136
15253TIP3    H267251   1.929   5.788   3.817 -0.8254 -0.9534 -1.0289
15254TIP3   OH267252   0.290   2.524   3.648  0.3984  0.0352  0.7643
15254TIP3    H167253   0.302   2.447   3.704 -1.4531 -1.5468 -0.8651
15254TIP3    H267254   0.376   2.566   3.647  0.9525 -0.8212  3.3515
15255TIP3   OH267255   4.958   4.483  13.101  0.2432 -0.0124 -1.0827
15255TIP3    H167256   5.038   4.435  13.080  0.0337 -0.1893 -1.4824
15255TIP3    H267257   4.962   4.496  13.196  0.4474 -0.5567 -1.0131
15256TIP3   OH267258   0.774   5.113  17.201  0.1839 -0.2096  0.2946
15256TIP3    H167259   0.828   5.063  17.262  3.1143  1.4546 -0.7287
15256TIP3    H267260   0.816   5.199  17.198 -2.1932  0.9974 -1.1369
15257TIP3   OH267261   4.732   3.050  16.645  0.5440  0.0524  0.2946
15257TIP3    H167262   4.785   2.971  16.629  0.2798 -0.3308  1.2396
15257TIP3    H267263   4.722   3.053  16.740 -0.1217  0.7932  0.2114
15258TIP3   OH267264   4.358   5.449  17.077  0.3328 -0.0731 -0.1135
15258TIP3    H167265   4.289   5.504  17.116  0.0820  0.0739 -0.7593
15258TIP3    H267266   4.314   5.404  17.005  1.2252  1.0343 -1.3919
15259TIP3   OH267267   1.562   4.064  13.948 -0.4468  0.6742 -0.0088
15259TIP3    H167268   1.487   4.006  13.931  1.1113 -1.1537 -0.9610
15259TIP3    H267269   1.612   4.019  14.016  0.5086  1.1909 -0.3544
15260TIP3   OH267270   5.361   0.297   0.996 -0.9419 -0.4154  0.3275
15260TIP3    H167271   5.328   0.387   1.007  0.0867  0.5462 -3.1738
15260TIP3    H267272   5.456   0.307   0.992 -0.8299 -1.6133 -0.3617
15261TIP3   OH267273   2.712   4.525  16.396  0.4700  0.5469 -1.2278
15261TIP3    H167274   2.635   4.521  16.453  0.4816  0.2187 -1.2338
15261TIP3    H267275   2.786   4.532  16.457  0.4236  1.0701 -1.2282
15262TIP3   OH267276   1.986   6.201   2.423 -0.2189 -1.1362 -0.2159
15262TIP3    H167277   2.075   6.221   2.453 -0.1615 -0.8641 -0.5550
15262TIP3    H267278   1.937   6.185   2.504 -0.2518  0.3402  0.0910
15263TIP3   OH267279   2.448   6.561   2.575  0.1303 -0.3545  0.2012
15263TIP3    H167280   2.372   6.613   2.599  0.3965 -0.7561  2.0656
15263TIP3    H267281   2.512   6.578   2.644  1.0493 -1.4435 -0.3436
15264TIP3   OH267282   3.533   5.907  11.555  0.2814  0.0807 -0.5089
15264TIP3    H167283   3.534   5.887  11.461  1.7923  0.2567 -0.5524
15264TIP3    H267284   3.596   5.846  11.593 -1.4536 -1.0778  0.6671
15265TIP3   OH267285   6.053   5.745   2.156 -0.2218 -0.3073  0.9117
15265TIP3    H167286   6.036   5.827   2.203  1.2268  2.4628 -2.9332
15265TIP3    H267287   6.125   5.765   2.097 -2.1066 -3.2556 -2.8045
15266TIP3   OH267288   5.735   1.210   6.336 -0.5128  0.0929 -0.0953
15266TIP3    H167289   5.753   1.258   6.417  1.0200  0.8053 -0.8241
15266TIP3    H267290   5.782   1.258   6.268  0.4631 -1.9785 -0.9956
15267TIP3   OH267291   3.823   5.055   6.166 -0.0743  0.1817 -0.2043
15267TIP3    H167292   3.866   4.988   6.218  0.1712 -0.9342 -1.7538
15267TIP3    H267293   3.734   5.022   6.153 -0.3974  0.8682  0.2229
15268TIP3   OH267294   2.746   0.226   4.902  0.8061 -0.0752 -0.2670
15268TIP3    H167295   2.797   0.300   4.870  0.8037  0.7435  1.5017
15268TIP3    H267296   2.656   0.247   4.877  1.1991 -1.5450 -3.4328
15269TIP3   OH267297   1.469   3.172  11.749  0.6044  0.5923  0.3728
15269TIP3    H167298   1.556   3.187  11.784  0.7753  1.3974 -0.3730
15269TIP3    H267299   1.470   3.211  11.662  0.0302 -0.8917 -0.3486
15270TIP3   OH267300   6.505   2.886  14.174  0.2761 -0.4381  0.4009
15270TIP3    H167301   6.569   2.816  14.159 -0.1324 -0.4179 -1.8997
15270TIP3    H267302   6.427   2.841  14.206  0.3047 -0.9348 -0.2147
15271TIP3   OH267303   3.441   1.245   1.801 -0.0201  0.1393 -0.9761
15271TIP3    H167304   3.522   1.216   1.842  0.0757 -1.5226 -2.2266
15271TIP3    H267305   3.469   1.305   1.732  0.0685  0.2703 -0.8276
15272TIP3   OH267306   2.729   3.019  14.384 -0.2151 -0.1618 -0.2845
15272TIP3    H167307   2.725   3.075  14.461 -0.4539 -0.0427 -0.3822
15272TIP3    H267308   2.817   2.982  14.385  0.3692  1.1737 -0.9058
15273TIP3   OH267309   5.277   0.462   2.482 -0.2854  0.5303 -0.1720
15273TIP3    H167310   5.346   0.477   2.547 -0.4194  1.7783 -0.2834
15273TIP3    H267311   5.228   0.544   2.481  0.8956  1.3447 -3.2781
15274TIP3   OH267312   4.242   1.161  12.494  0.5861 -0.0998  0.2764
15274TIP3    H167313   4.263   1.254  12.482  0.4204 -0.0225  0.5744
15274TIP3    H267314   4.312   1.115  12.449  0.2452  0.1793 -0.5762
15275TIP3   OH267315   0.869   2.311   6.049 -0.2157 -0.0662 -0.3500
15275TIP3    H167316   0.941   2.253   6.074 -1.2414 -0.3666  2.3343
15275TIP3    H267317   0.896   2.398   6.078  0.0545  0.2814 -1.5927
15276TIP3   OH267318   0.974   1.264  16.341 -0.4842  0.1581 -0.0932
15276TIP3    H167319   0.879   1.281  16.343 -0.4581  0.6720 -1.6531
15276TIP3    H267320   0.993   1.223  16.425 -1.2309  4.5155  2.5244
15277TIP3   OH267321   5.051   5.490  16.061 -0.0953 -0.2988 -0.4689
15277TIP3    H167322   5.114   5.548  16.104 -0.4195 -0.5247  0.3207
15277TIP3    H267323   5.103   5.414  16.035 -0.3589 -1.5006  2.1254
15278TIP3   OH267324   0.373   2.012  13.301  0.0280 -0.0323 -0.3367
15278TIP3    H167325   0.357   1.922  13.273  0.7639  0.1604 -1.4451
15278TIP3    H267326   0.353   2.012  13.394  0.7564 -1.5296 -0.1496
15279TIP3   OH267327   6.660   6.352  14.644 -0.0605  0.0800  0.5923
15279TIP3    H167328   6.661   6.328  14.736  0.3371  1.6329  1.0176
15279TIP3    H267329   6.570   6.383  14.629  0.6447  2.6335  1.2631
15280TIP3   OH267330   1.322   4.647  11.556 -1.3356 -0.1843  0.1318
15280TIP3    H167331   1.346   4.554  11.563  0.0540  0.2954  3.4086
15280TIP3    H267332   1.240   4.655  11.605 -1.5404  0.3162 -0.2787
15281TIP3   OH267333   6.619   6.207  12.438 -0.5601  0.1206 -0.2401
15281TIP3    H167334   6.708   6.240  12.430  1.1259 -3.9230 -0.3542
15281TIP3    H267335   6.595   6.180  12.350 -1.4575  0.1063 -0.0053
15282TIP3   OH267336   3.453   4.245   5.917 -0.4546 -0.1564 -0.1278
15282TIP3    H167337   3.514   4.317   5.931  0.3106 -0.4073 -2.0306
15282TIP3    H267338   3.467   4.217   5.827 -2.8470 -0.7312 -0.4001
15283TIP3   OH267339   4.648   4.456   0.100  0.0139 -0.5552  0.5261
15283TIP3    H167340   4.689   4.475   0.184 -1.4264  0.5734  1.0133
15283TIP3    H267341   4.572   4.402   0.121 -1.1026  0.7819  0.1513
15284TIP3   OH267342   6.538   0.385  16.193 -0.1297 -0.2419  0.1910
15284TIP3    H167343   6.489   0.433  16.260  0.4111 -1.6985  1.6940
15284TIP3    H267344   6.500   0.297  16.194 -0.6166 -0.1018 -2.0024
15285TIP3   OH267345   4.493   0.456  11.286  0.6190  0.0156 -0.1023
15285TIP3    H167346   4.401   0.480  11.271  0.4176  0.1079  1.1752
15285TIP3    H267347   4.542   0.511  11.224 -0.0789  1.1998  0.3533
15286TIP3   OH267348   6.750   6.071  11.957 -0.9866 -0.2921 -0.3751
15286TIP3    H167349   6.771   5.990  11.911  1.0653 -0.0882  0.1102
15286TIP3    H267350   6.801   6.138  11.912  0.1549  0.1059  1.4341
15287TIP3   OH267351   0.567   4.955  17.281  0.3386 -0.4880  0.0734
15287TIP3    H167352   0.561   4.956  17.376  0.9125 -1.4072  0.1309
15287TIP3    H267353   0.611   5.037  17.259 -0.8547  0.3000  0.4943
15288TIP3   OH267354   2.969   4.581   1.037 -0.0230 -0.1689 -0.6323
15288TIP3    H167355   2.997   4.621   0.954  0.1571 -1.1652 -1.0655
15288TIP3    H267356   3.036   4.608   1.099  0.3548 -0.1851 -1.0232
15289TIP3   OH267357   3.045   1.249  15.907 -0.4639  0.1733 -0.3914
15289TIP3    H167358   3.027   1.340  15.931  3.5194  1.7758 -2.7001
15289TIP3    H267359   3.052   1.250  15.812 -0.6606 -2.6888 -0.5187
15290TIP3   OH267360   3.180   6.596  13.656  0.7772  0.3680 -0.4406
15290TIP3    H167361   3.101   6.544  13.642  1.0139  0.2487 -1.3666
15290TIP3    H267362   3.212   6.567  13.742 -0.2376  0.5018  0.0025
15291TIP3   OH267363   2.563   1.354   4.558  0.1051 -0.4242  0.1310
15291TIP3    H167364   2.555   1.289   4.488  0.5298  1.9588 -2.3177
15291TIP3    H267365   2.480   1.350   4.604 -0.7795 -1.1256 -1.4384
15292TIP3   OH267366   2.150   1.654  12.986  0.2856  0.3383  0.3815
15292TIP3    H167367   2.219   1.653  12.920 -0.5917  0.2314 -0.5526
15292TIP3    H267368   2.142   1.746  13.011  1.1369  0.2784  0.9020
15293TIP3   OH267369   0.220   5.685  16.192  0.1010 -0.3098 -0.0015
15293TIP3    H167370   0.258   5.674  16.279 -0.1217 -0.4301  0.0787
15293TIP3    H267371   0.248   5.607  16.143 -0.4499 -0.6436  0.2062
15294TIP3   OH267372   6.756   4.879  17.135  0.1202 -0.0080 -0.2969
15294TIP3    H167373   6.670   4.884  17.094  0.0752  2.7035 -0.0758
15294TIP3    H267374   6.756   4.950  17.199  2.0413 -0.8344  0.7118
15295TIP3   OH267375   5.111   0.947   3.759 -0.7934  0.2319 -0.2845
15295TIP3    H167376   5.078   0.881   3.820 -1.2776  0.8237  0.1087
15295TIP3    H267377   5.033   0.998   3.734 -0.3187  1.1298  0.0032
15296TIP3   OH267378   3.299   6.684  11.762 -0.1768 -0.3108  0.9810
15296TIP3    H167379   3.297   6.662  11.855 -0.4769 -1.2214  0.7713
15296TIP3    H267380   3.344   6.611  11.720 -1.0789 -0.4866  0.2690
15297TIP3   OH267381   2.678   3.294  17.246  0.7220  0.3968  0.2392
15297TIP3    H167382   2.754   3.320  17.195  1.5068 -0.7494  0.8051
15297TIP3    H267383   2.648   3.213  17.205 -0.4597  1.0395 -0.2275
15298TIP3   OH267384   1.236   1.597  13.259  0.3770  0.4427 -0.0011
15298TIP3    H167385   1.175   1.632  13.194  0.7340 -0.1278 -0.6579
15298TIP3    H267386   1.310   1.657  13.257  0.1732  0.7057  0.2453
15299TIP3   OH267387   3.759   4.178  10.331  0.2959  1.0867  0.1406
15299TIP3    H167388   3.788   4.265  10.303 -0.3751  0.7003 -1.9949
15299TIP3    H267389   3.667   4.174  10.304  0.3267 -0.2834  0.1658
15300TIP3   OH267390   3.207   0.515   6.621 -0.0792  0.2481  1.0449
15300TIP3    H167391   3.188   0.421   6.629  0.0366  0.1696  0.4170
15300TIP3    H267392   3.133   0.551   6.572 -0.1614  0.5034  1.3507
15301TIP3   OH267393   4.742   3.701   0.285 -0.3430 -0.3431 -0.4086
15301TIP3    H167394   4.741   3.606   0.276  0.3561 -0.2179 -2.2356
15301TIP3    H267395   4.818   3.719   0.341  1.0385 -0.7643 -2.0819
15302TIP3   OH267396   5.049   4.526  11.784 -0.6730 -0.5648 -0.2475
15302TIP3    H167397   5.023   4.520  11.876  1.5486  0.0665  0.4996
15302TIP3    H267398   5.085   4.440  11.764  1.2698  0.0629  0.3450
15303TIP3   OH267399   2.395   6.709   4.861  0.6143  0.3378  0.5973
15303TIP3    H167400   2.491   6.705   4.863  0.7764  2.5322  3.0836
15303TIP3    H267401   2.369   6.706   4.953 -1.8492 -1.4849 -0.0619
15304TIP3   OH267402   0.541   4.881  16.813 -0.1371  0.6404 -0.4878
15304TIP3    H167403   0.628   4.880  16.852 -0.2901 -2.9127  0.0590
15304TIP3    H267404   0.556   4.861  16.721 -0.2824  2.1008 -0.8518
15305TIP3   OH267405   6.634   3.957  10.263  0.5368 -0.1979 -0.4058
15305TIP3    H167406   6.540   3.945  10.246  0.4298  0.6378 -0.4178
15305TIP3    H267407   6.648   4.051  10.258  1.0737 -0.1689  1.1139
15306TIP3   OH267408   3.394   3.947   3.445 -0.1605 -0.4839  0.0306
15306TIP3    H167409   3.392   4.036   3.409 -1.8267 -1.0530 -1.4273
15306TIP3    H267410   3.305   3.930   3.474  0.7031 -0.7621  2.8855
15307TIP3   OH267411   5.665   0.852  13.470  0.3410  0.9128  0.8438
15307TIP3    H167412   5.755   0.821  13.477 -0.3360 -1.3032  0.6492
15307TIP3    H267413   5.672   0.948  13.466  2.5890  0.8427  1.7732
15308TIP3   OH267414   1.083   4.474   5.017  0.0303  0.2305  0.0130
15308TIP3    H167415   1.174   4.500   5.025  0.1783 -0.2805  0.0760
15308TIP3    H267416   1.086   4.391   4.968 -0.2212 -0.8502  1.7288
15309TIP3   OH267417   6.059   3.690  11.354 -0.2019 -0.2862 -0.0538
15309TIP3    H167418   6.034   3.780  11.336  0.2894  0.0244  0.7724
15309TIP3    H267419   5.989   3.656  11.411  0.3149  0.0176  0.7758
15310TIP3   OH267420   5.478   1.457   4.716  0.0558  0.6652  0.0580
15310TIP3    H167421   5.571   1.462   4.693 -0.0283  0.4935 -0.3235
15310TIP3    H267422   5.449   1.548   4.719  0.9320  0.9547  3.1193
15311TIP3   OH267423   5.187   3.930   3.560  0.3446  0.3185  0.3706
15311TIP3    H167424   5.239   4.007   3.537  2.1890 -1.3489 -1.4842
15311TIP3    H267425   5.100   3.948   3.521  1.2345  0.7881 -1.5527
15312TIP3   OH267426   0.507   1.844  15.136 -0.6160 -0.3586  0.5795
15312TIP3    H167427   0.537   1.924  15.178  1.6495 -1.9574  2.2447
15312TIP3    H267428   0.561   1.835  15.058 -0.7951 -0.3529  0.4520
15313TIP3   OH267429   5.080   4.858   0.296 -0.2296 -0.5250  0.0502
15313TIP3    H167430   5.087   4.884   0.204  1.5054 -0.7116  0.1058
15313TIP3    H267431   5.126   4.775   0.301  0.2883 -0.1800  1.2122
15314TIP3   OH267432   3.002   4.516  16.561  0.0424 -0.8616  0.4861
15314TIP3    H167433   3.045   4.577  16.503  2.3293  0.8471  3.6783
15314TIP3    H267434   3.064   4.444  16.571 -0.7762 -1.6508  0.0923
15315TIP3   OH267435   5.173   1.365  10.728 -0.0052  0.5003  0.6154
15315TIP3    H167436   5.268   1.354  10.727 -0.2242 -2.2533  1.9123
15315TIP3    H267437   5.147   1.359  10.636  0.9600 -0.4199  0.3884
15316TIP3   OH267438   5.279   0.812   6.795 -0.2235  0.0814  0.1226
15316TIP3    H167439   5.240   0.862   6.725 -0.2293 -0.0177  0.0544
15316TIP3    H267440   5.360   0.859   6.817 -0.5780  0.5090  0.5364
15317TIP3   OH267441   2.963   2.996   2.228  0.5784 -0.1624  0.1107
15317TIP3    H167442   3.011   2.931   2.278  1.0168 -0.3947 -0.5999
15317TIP3    H267443   3.010   3.078   2.244  1.0445 -0.3357 -0.3485
15318TIP3   OH267444   6.226   1.526  11.750  0.1870  0.2780 -0.1522
15318TIP3    H167445   6.241   1.619  11.734  1.2418  0.1807  0.1459
15318TIP3    H267446   6.154   1.503  11.692  1.4187  0.7724 -1.9950
15319TIP3   OH267447   6.007   0.340  11.166 -0.3278 -0.7368 -0.6164
15319TIP3    H167448   5.936   0.348  11.230 -0.9569 -2.3267 -1.0695
15319TIP3    H267449   6.070   0.281  11.206  2.2137  2.6882  0.9529
15320TIP3   OH267450   4.850   5.701  16.281  0.1959 -0.2203  0.2035
15320TIP3    H167451   4.798   5.675  16.205 -0.5976 -0.3226  0.7703
15320TIP3    H267452   4.817   5.646  16.352 -0.2584  1.0533  1.0142
15321TIP3   OH267453   3.504   1.271  12.954  0.2003 -0.2113  0.1426
15321TIP3    H167454   3.436   1.222  12.907 -0.2160 -0.6081  1.1393
15321TIP3    H267455   3.455   1.331  13.011  0.6993  0.1889  0.1585
15322TIP3   OH267456   0.184   5.412  12.671  0.0257  0.1885 -0.1275
15322TIP3    H167457   0.113   5.469  12.638  1.0817  0.7767 -1.4940
15322TIP3    H267458   0.207   5.449  12.756 -0.5763  0.6514 -0.1559
15323TIP3   OH267459   3.201   4.341   6.017  0.4613 -0.0461  0.2383
15323TIP3    H167460   3.292   4.321   5.995  0.3904  0.4740 -0.6082
15323TIP3    H267461   3.200   4.349   6.112  1.1888 -0.5754  0.2975
15324TIP3   OH267462   6.282   3.062  14.901  0.7291  0.6124  0.1469
15324TIP3    H167463   6.313   3.000  14.834 -2.6476 -2.3834  1.0328
15324TIP3    H267464   6.222   3.120  14.854 -0.5998 -0.6354  0.2158
15325TIP3   OH267465   3.121   4.878  14.148 -0.2877 -0.2412 -0.1686
15325TIP3    H167466   3.137   4.785  14.134 -1.4179 -0.2893 -1.3176
15325TIP3    H267467   3.053   4.880  14.215  0.0175 -0.2181  0.1454
15326TIP3   OH267468   5.328   3.271  12.720  0.4035  0.0391 -0.2585
15326TIP3    H167469   5.330   3.353  12.671  1.2247  0.5848  0.6509
15326TIP3    H267470   5.418   3.257  12.748 -0.1709  0.3080  1.9490
15327TIP3   OH267471   0.877   3.023  11.274 -0.1614  0.2947 -0.6752
15327TIP3    H167472   0.816   2.976  11.217  0.2275 -1.4231  0.2703
15327TIP3    H267473   0.942   3.059  11.214 -0.5626 -0.2387 -1.4500
15328TIP3   OH267474   6.584   2.350  11.851  0.3960  0.3542  0.2599
15328TIP3    H167475   6.517   2.368  11.785  0.0719 -1.4723  0.0362
15328TIP3    H267476   6.637   2.430  11.854 -2.2056  2.1851  0.9929
15329TIP3   OH267477   5.265   4.214   3.703  0.0612 -0.1539 -0.1518
15329TIP3    H167478   5.245   4.200   3.796  1.6542 -2.7168 -0.1280
15329TIP3    H267479   5.337   4.276   3.703  2.3841 -2.6788  0.6176
15330TIP3   OH267480   4.897   6.658   5.042 -0.6068  0.4861 -0.1373
15330TIP3    H167481   4.838   6.731   5.057 -1.8853 -0.7803  1.4677
15330TIP3    H267482   4.864   6.588   5.099 -0.0464 -1.6772 -2.2951
15331TIP3   OH267483   3.611   1.249  14.466  0.3492 -0.2707  0.0501
15331TIP3    H167484   3.673   1.190  14.510  0.7662  0.4877  0.5042
15331TIP3    H267485   3.655   1.334  14.466 -0.6915  0.2812  0.3676
15332TIP3   OH267486   4.992   0.396   5.187  0.1116 -0.6278  0.1132
15332TIP3    H167487   5.011   0.453   5.112  0.6876 -1.1782 -0.1691
15332TIP3    H267488   4.897   0.390   5.188  0.0789 -0.2557 -0.3109
15333TIP3   OH267489   5.263   5.724   5.823 -0.2298  0.1855  0.1505
15333TIP3    H167490   5.303   5.678   5.897 -3.4000  0.6988  2.3745
15333TIP3    H267491   5.324   5.796   5.804  1.1452 -0.5442  1.5674
15334TIP3   OH267492   2.410   3.065  12.072 -0.1134  0.4805 -0.0003
15334TIP3    H167493   2.352   3.141  12.074 -0.7036  0.0275  1.3480
15334TIP3    H267494   2.428   3.051  11.979 -0.1355  2.1436 -0.2707
15335TIP3   OH267495   6.601   3.650  12.514 -0.8116 -0.1956  0.7977
15335TIP3    H167496   6.592   3.597  12.434  0.8645 -0.6518  0.8713
15335TIP3    H267497   6.653   3.596  12.573 -0.2449  0.9810  1.4055
15336TIP3   OH267498   0.641   1.624  16.317 -0.5877  0.1447 -0.4203
15336TIP3    H167499   0.684   1.680  16.382  1.8241 -0.1726 -1.5946
15336TIP3    H267500   0.611   1.685  16.249  0.4790  0.2092 -0.8629
15337TIP3   OH267501   1.595   4.429  14.212 -0.0844  0.6056 -0.1426
15337TIP3    H167502   1.683   4.445  14.245 -0.4895  4.3326 -0.4195
15337TIP3    H267503   1.545   4.403  14.289  1.2585 -2.1711 -0.0846
15338TIP3   OH267504   5.837   1.382  15.099 -0.4201  0.0439 -0.4089
15338TIP3    H167505   5.868   1.404  15.011  1.0174  2.0890  0.5207
15338TIP3    H267506   5.779   1.455  15.122 -4.0941 -2.4069 -1.0678
15339TIP3   OH267507   4.935   3.816   3.850  0.0153  0.4909  0.3024
15339TIP3    H167508   4.913   3.752   3.782  2.8391  2.0938 -2.3890
15339TIP3    H267509   4.978   3.765   3.919 -2.7050 -1.1460  0.9441
15340TIP3   OH267510   6.547   5.681  12.677 -0.4154 -0.1872 -0.6062
15340TIP3    H167511   6.459   5.707  12.704  0.0926 -0.9603  2.0895
15340TIP3    H267512   6.597   5.762  12.673 -0.5277 -0.0242  0.9099
15341TIP3   OH267513   1.066   4.895  15.389  0.0254 -0.5544 -0.1771
15341TIP3    H167514   1.071   4.923  15.298 -0.4738  1.9447  0.4623
15341TIP3    H267515   1.157   4.891  15.419  0.1551  2.0965  0.0652
15342TIP3   OH267516   0.491   3.468  11.519 -0.2490 -0.1403  0.0557
15342TIP3    H167517   0.517   3.547  11.566 -1.3905 -0.0063  0.4931
15342TIP3    H267518   0.524   3.396  11.572 -1.0795  0.0188  0.8281
15343TIP3   OH267519   4.193   1.527  15.972  0.8815 -0.1957 -0.1525
15343TIP3    H167520   4.170   1.619  15.978 -1.8522 -0.6536 -1.7316
15343TIP3    H267521   4.271   1.518  16.025  0.9044  2.9002  0.5164
15344TIP3   OH267522   2.962   6.691  15.774  0.1539  0.1264 -0.7453
15344TIP3    H167523   2.989   6.604  15.746 -2.6385 -0.6646 -1.3559
15344TIP3    H267524   3.023   6.714  15.844  0.1639 -2.9357  0.3990
15345TIP3   OH267525   1.046   5.809   4.295  0.3018  0.0268  0.5074
15345TIP3    H167526   1.053   5.816   4.199  2.3391 -1.8219  0.4456
15345TIP3    H267527   0.971   5.752   4.310  0.6054 -0.5333 -0.0496
15346TIP3   OH267528   1.578   4.504  16.387 -0.2889  0.6391 -0.3794
15346TIP3    H167529   1.668   4.537  16.380  0.1724 -0.6662 -1.1176
15346TIP3    H267530   1.553   4.520  16.477  0.5483  1.3871 -0.2733
15347TIP3   OH267531   4.830   2.150  12.622  0.6102 -0.4302  0.1913
15347TIP3    H167532   4.897   2.198  12.573  0.2567  0.8320  0.9189
15347TIP3    H267533   4.865   2.061  12.628  3.3760  0.6647  2.5581
15348TIP3   OH267534   4.576   5.932  13.911  0.1417 -0.8843 -0.3241
15348TIP3    H167535   4.560   5.846  13.872 -1.5732 -0.6498 -0.1962
15348TIP3    H267536   4.492   5.958  13.947 -0.2769  2.2290 -3.1127
15349TIP3   OH267537   6.376   4.764  16.613 -0.1203 -0.0907  0.6717
15349TIP3    H167538   6.287   4.729  16.622 -1.0799  1.8282 -0.6196
15349TIP3    H267539   6.363   4.851  16.574  2.3162  0.3758  0.7811
15350TIP3   OH267540   5.441   6.717  12.397  0.1713 -0.0559  0.6950
15350TIP3    H167541   5.498   6.665  12.453 -1.2390 -0.0918  2.1733
15350TIP3    H267542   5.430   6.663  12.318 -0.4663 -1.6083  1.7778
15351TIP3   OH267543   6.059   3.545   4.938  0.2525  0.3634  0.1990
15351TIP3    H167544   6.136   3.487   4.934 -0.1992 -0.2423  0.1674
15351TIP3    H267545   6.058   3.588   4.853 -0.8829 -1.5438 -0.8401
15352TIP3   OH267546   6.400   6.307  16.070 -0.4307  0.0698  0.0487
15352TIP3    H167547   6.314   6.346  16.057 -1.3756 -1.5999  1.0191
15352TIP3    H267548   6.390   6.216  16.041  1.2485  0.0606 -0.6098
15353TIP3   OH267549   5.861   4.482  16.503 -0.0829 -0.1446 -0.0950
15353TIP3    H167550   5.911   4.458  16.581  4.1998 -0.1120 -2.5189
15353TIP3    H267551   5.849   4.577  16.511 -1.7874 -0.4315  1.4855
15354TIP3   OH267552   3.446   5.398  16.903  0.4877 -0.0928 -0.3775
15354TIP3    H167553   3.396   5.397  16.821 -2.7543 -1.1927  1.4504
15354TIP3    H267554   3.411   5.473  16.951  1.2004 -0.3896  0.6313
15355TIP3   OH267555   1.620   2.958   6.706 -0.0481 -0.1301  0.1675
15355TIP3    H167556   1.662   2.876   6.731  1.2711  0.6799  0.7019
15355TIP3    H267557   1.689   3.024   6.715 -0.8290  0.9082 -1.1093
15356TIP3   OH267558   2.699   3.724  10.659  0.0935  0.0665  0.6956
15356TIP3    H167559   2.681   3.740  10.751  1.3442  0.1640  0.9454
15356TIP3    H267560   2.787   3.761  10.645  0.6645 -1.4787 -0.1052
15357TIP3   OH267561   1.970   4.740  12.299  0.3559  0.2152  0.1756
15357TIP3    H167562   1.985   4.800  12.372 -1.4165 -0.1396  0.8805
15357TIP3    H267563   1.902   4.781  12.247 -0.8677 -1.1332  0.6477
15358TIP3   OH267564   3.493   5.794  13.782 -0.2278  0.1059 -0.0116
15358TIP3    H167565   3.486   5.847  13.702 -1.5486 -0.0836 -0.0340
15358TIP3    H267566   3.537   5.714  13.754  0.0848  0.3976 -0.3645
15359TIP3   OH267567   2.285   1.607   0.706 -0.0719 -0.5685  0.7750
15359TIP3    H167568   2.253   1.557   0.632  1.9728 -0.0082 -0.5833
15359TIP3    H267569   2.271   1.698   0.682  1.3790 -0.3486  0.6254
15360TIP3   OH267570   2.301   5.776   4.459  0.1510  0.2024  0.4430
15360TIP3    H167571   2.365   5.705   4.469  0.2119  0.0803 -0.7073
15360TIP3    H267572   2.311   5.827   4.539  1.2795 -0.1505  0.5583
15361TIP3   OH267573   0.843   5.691  13.561 -0.1868 -0.3002  0.2749
15361TIP3    H167574   0.863   5.749  13.489 -0.7703  0.0694  0.4011
15361TIP3    H267575   0.914   5.627  13.562 -0.3443 -0.5114 -0.8291
15362TIP3   OH267576   5.864   2.089   0.628 -0.5005 -0.0261  0.0255
15362TIP3    H167577   5.828   2.116   0.543 -1.1871  0.7796  0.5556
15362TIP3    H267578   5.881   2.171   0.674  0.9778 -0.4186  0.2365
15363TIP3   OH267579   5.161   4.928  12.140 -0.2661  0.4143  0.7021
15363TIP3    H167580   5.240   4.911  12.089 -1.5638  0.5911 -1.4541
15363TIP3    H267581   5.147   5.023  12.133 -1.4001  0.2068 -0.1011
15364TIP3   OH267582   0.188   2.590   5.453  0.3890  0.2903  0.5707
15364TIP3    H167583   0.213   2.670   5.408 -0.6539  0.1011 -0.3867
15364TIP3    H267584   0.104   2.566   5.415  0.5243 -1.0834  1.0700
15365TIP3   OH267585   1.245   0.353  11.507  0.2609  0.1409  0.4575
15365TIP3    H167586   1.208   0.307  11.432 -1.1553  1.8729  0.0047
15365TIP3    H267587   1.262   0.442  11.474  0.8268  0.5733  1.8338
15366TIP3   OH267588   0.987   5.955   0.491 -0.2527  0.3212 -0.2524
15366TIP3    H167589   1.007   6.046   0.513  0.6477  0.4504 -1.4942
15366TIP3    H267590   0.892   5.947   0.503 -0.3538  1.4471 -0.2388
15367TIP3   OH267591   2.838   0.602   4.017 -0.4963 -0.0520  0.2102
15367TIP3    H167592   2.826   0.674   3.955 -0.7881  0.5673  0.9665
15367TIP3    H267593   2.924   0.567   3.996  0.7392  2.0628  1.3356
15368TIP3   OH267594   5.130   4.637  16.147 -0.2743  0.6927 -0.7428
15368TIP3    H167595   5.180   4.705  16.103 -1.8808  1.9200 -0.7434
15368TIP3    H267596   5.108   4.574  16.079 -1.0818  1.5792 -1.3153
15369TIP3   OH267597   2.461   5.890  14.305 -0.0982 -0.3174 -0.0653
15369TIP3    H167598   2.417   5.846  14.378 -0.8749 -0.8220 -0.8222
15369TIP3    H267599   2.421   5.977  14.301  2.4052  1.0983  2.3236
15370TIP3   OH267600   0.846   5.006   1.822 -0.2435 -0.3650 -0.5539
15370TIP3    H167601   0.924   4.991   1.877  0.6537 -1.5488 -2.0687
15370TIP3    H267602   0.878   4.997   1.733 -1.8048  0.8718 -1.2830
15371TIP3   OH267603   0.217   0.848   0.272  0.8003 -0.1406 -0.2237
15371TIP3    H167604   0.278   0.780   0.301 -0.0657 -0.3061  1.3331
15371TIP3    H267605   0.209   0.906   0.348 -2.2531 -1.0605  0.3049
15372TIP3   OH267606   0.426   0.073   2.289  0.3436  0.1047  0.8000
15372TIP3    H167607   0.466   0.042   2.207 -0.6730 -0.2199  0.4037
15372TIP3    H267608   0.411  -0.007   2.340 -0.9883  0.0529  0.3764
15373TIP3   OH267609   2.397   0.100  11.994  0.0692  0.6290  0.6480
15373TIP3    H167610   2.326   0.039  11.975  0.0745  1.0622 -0.8437
15373TIP3    H267611   2.473   0.063  11.950  1.4165 -0.9920  3.9439
15374TIP3   OH267612   6.522   3.942   2.767 -0.1719 -0.2508 -0.1122
15374TIP3    H167613   6.470   3.905   2.695 -0.5011 -0.1877  0.0922
15374TIP3    H267614   6.593   3.988   2.723  0.3928 -1.3221 -0.3777
15375TIP3   OH267615   2.823   5.327  12.334  0.3895 -0.3235 -0.0537
15375TIP3    H167616   2.789   5.267  12.268  0.4432  1.2361 -1.5482
15375TIP3    H267617   2.769   5.405  12.326  0.0145 -0.2856  2.1744
15376TIP3   OH267618   2.670   4.555   3.273  0.1133 -0.4190 -0.5194
15376TIP3    H167619   2.589   4.570   3.323  0.5414 -1.3939  0.5301
15376TIP3    H267620   2.651   4.478   3.219 -0.1814  0.3326 -1.5064
15377TIP3   OH267621   1.922   2.750   2.600 -0.2969 -0.1633  0.1092
15377TIP3    H167622   1.954   2.809   2.668 -0.6081 -2.3051  2.1981
15377TIP3    H267623   1.972   2.669   2.612 -1.0880 -0.9532 -1.5720
15378TIP3   OH267624   5.632   5.175   4.671 -0.2684 -0.0678  0.6795
15378TIP3    H167625   5.662   5.247   4.727 -1.1616  0.2117  0.8111
15378TIP3    H267626   5.609   5.217   4.589 -0.7117 -0.2162  0.7270
15379TIP3   OH267627   4.059   2.052   5.244  0.5851 -0.1138  0.2634
15379TIP3    H167628   4.089   2.141   5.263  1.9053 -0.2637 -0.9445
15379TIP3    H267629   4.047   2.050   5.149  0.7480 -1.2617  0.2494
15380TIP3   OH267630   6.703   6.097  15.059 -0.1217  0.2099 -0.5659
15380TIP3    H167631   6.720   6.170  15.118 -1.7187  0.4950 -0.4128
15380TIP3    H267632   6.775   6.101  14.996  0.3744  1.2921  0.0281
15381TIP3   OH267633   4.040   1.895   3.823  0.4333  0.4992 -0.1602
15381TIP3    H167634   3.982   1.872   3.751 -3.0432  1.6168  2.0634
15381TIP3    H267635   4.121   1.848   3.804 -1.4691 -2.0090 -2.9893
15382TIP3   OH267636   3.174   6.481   2.308 -0.2765  0.4525  0.2732
15382TIP3    H167637   3.104   6.456   2.368 -0.3514  0.0342  0.0225
15382TIP3    H267638   3.255   6.457   2.353 -0.3734 -1.9832 -0.6505
15383TIP3   OH267639   1.652   2.476   4.941 -0.4038 -0.0175 -0.4235
15383TIP3    H167640   1.636   2.530   4.864 -1.1501  1.9694  1.0615
15383TIP3    H267641   1.567   2.436   4.961 -0.5667  0.6368  0.2132
15384TIP3   OH267642   6.700   2.947   1.394  0.1128 -0.3653 -0.3491
15384TIP3    H167643   6.747   3.020   1.354 -0.0381 -0.7255 -1.1919
15384TIP3    H267644   6.767   2.899   1.443  0.3432 -0.0475 -0.3562
15385TIP3   OH267645   0.432   3.400   0.167 -0.0838 -0.2215 -1.0610
15385TIP3    H167646   0.449   3.379   0.075  0.0907  0.0758 -1.0977
15385TIP3    H267647   0.504   3.459   0.191  1.5322 -2.4924  0.0710
15386TIP3   OH267648   0.104   1.017  16.884 -0.1491 -0.3487 -0.2131
15386TIP3    H167649   0.030   0.976  16.930 -0.8666  0.4608 -0.6320
15386TIP3    H267650   0.124   1.095  16.936  0.9629 -0.9975  0.3630
15387TIP3   OH267651   3.660   5.062   4.607 -0.0757  0.5847 -0.1371
15387TIP3    H167652   3.570   5.089   4.587 -1.3217 -1.1038  2.5824
15387TIP3    H267653   3.674   5.092   4.697  1.2158 -1.1440  0.2782
15388TIP3   OH267654   0.822   1.925  12.463  0.0929  0.0850 -0.2017
15388TIP3    H167655   0.812   1.974  12.381 -0.4130 -0.0241 -0.2065
15388TIP3    H267656   0.851   1.991  12.527 -0.2516  0.3216 -0.2894
15389TIP3   OH267657   6.270   6.132  14.940  0.7252  0.1039  0.5068
15389TIP3    H167658   6.228   6.104  15.021  0.6013  0.0313  0.4162
15389TIP3    H267659   6.199   6.170  14.887  1.0206  1.3900  0.9808
15390TIP3   OH267660   6.489   1.854  15.159 -0.1351  0.0212  0.2060
15390TIP3    H167661   6.422   1.921  15.177  0.0508  0.0649  0.7538
15390TIP3    H267662   6.440   1.772  15.155 -0.5780  0.3100 -1.8442
15391TIP3   OH267663   5.265   5.564  11.658 -0.9938  0.1284  0.3264
15391TIP3    H167664   5.239   5.655  11.640 -0.2031  0.5720  1.3294
15391TIP3    H267665   5.216   5.541  11.737 -0.5064 -0.0082  0.5883
15392TIP3   OH267666   6.063   2.897   4.431  0.1062 -0.4470 -0.0063
15392TIP3    H167667   6.157   2.913   4.421 -0.2786  1.9417 -0.4099
15392TIP3    H267668   6.029   2.904   4.342 -0.7347  1.0797  0.4056
15393TIP3   OH267669   3.773   6.315   6.805 -0.1228  0.1060 -0.6286
15393TIP3    H167670   3.839   6.267   6.754  0.1472  1.5609 -1.7384
15393TIP3    H267671   3.711   6.249   6.833  0.7622 -1.0262 -1.2530
15394TIP3   OH267672   4.973   3.985   4.710  0.4166 -0.2198 -0.0664
15394TIP3    H167673   4.883   3.992   4.742  0.6220 -1.7894  0.9649
15394TIP3    H267674   4.971   4.027   4.624 -1.5899 -1.2464 -0.5967
15395TIP3   OH267675   6.610   1.067   5.505  0.2295  0.5372  0.7229
15395TIP3    H167676   6.531   1.030   5.544  0.2609  1.8248  2.1219
15395TIP3    H267677   6.578   1.118   5.430 -0.5144  2.2684  2.1415
15396TIP3   OH267678   2.663   2.417   1.215  0.0065 -0.0785  0.3116
15396TIP3    H167679   2.735   2.376   1.167 -2.0220 -1.9808 -1.2972
15396TIP3    H267680   2.592   2.423   1.152 -1.4373  1.3308  1.9537
15397TIP3   OH267681   3.282   4.081  15.985  0.3705 -0.5531  0.0259
15397TIP3    H167682   3.363   4.115  15.947  0.4497 -2.5933 -1.8472
15397TIP3    H267683   3.308   4.000  16.028 -0.3646 -0.1861  1.1894
15398TIP3   OH267684   6.321   3.358  15.642  0.2794 -0.5649  0.2049
15398TIP3    H167685   6.376   3.430  15.610  0.7168 -0.3001  1.4879
15398TIP3    H267686   6.368   3.279  15.616  1.0164 -0.3456  0.8349
15399TIP3   OH267687   6.025   2.427   0.493  0.0146  0.0747  0.0315
15399TIP3    H167688   5.937   2.390   0.507  0.0038  0.4985  1.1894
15399TIP3    H267689   6.036   2.489   0.564  0.4411  1.5812 -1.2833
15400TIP3   OH267690   2.279   1.444   5.768  0.1024  0.6682 -0.3531
15400TIP3    H167691   2.277   1.403   5.681  0.8749 -0.5896  0.1976
15400TIP3    H267692   2.197   1.417   5.809 -1.1665  2.7942 -1.3134
15401TIP3   OH267693   3.014   1.077  16.835  0.0705  0.1499 -1.0137
15401TIP3    H167694   2.970   0.997  16.864  0.0729  0.3761 -0.3545
15401TIP3    H267695   3.007   1.076  16.740 -0.9154 -0.0650 -0.9474
15402TIP3   OH267696   2.525   0.694   5.137  0.3853  0.2496 -0.4142
15402TIP3    H167697   2.487   0.624   5.085 -0.1281  1.0440 -1.1364
15402TIP3    H267698   2.602   0.655   5.178  0.1190 -0.7218 -0.8208
15403TIP3   OH267699   5.975   3.971   5.553 -0.2742 -0.2028  0.3763
15403TIP3    H167700   5.985   4.049   5.607  0.5986 -0.3565  0.4550
15403TIP3    H267701   5.891   3.982   5.509  0.0072  0.9434  0.1116
15404TIP3   OH267702   5.603   2.472   6.211 -0.2469  0.3958 -0.0056
15404TIP3    H167703   5.675   2.468   6.274 -0.1501 -0.8485 -0.1672
15404TIP3    H267704   5.526   2.491   6.264 -0.3767 -1.8673  0.7233
15405TIP3   OH267705   3.468   6.122   5.730  0.2565 -0.1094  0.3173
15405TIP3    H167706   3.536   6.101   5.667 -1.0807 -0.4447 -1.0650
15405TIP3    H267707   3.428   6.203   5.698 -0.0821  0.0169  1.0283
15406TIP3   OH267708   2.134   6.454  15.540  0.4024  0.0581  0.1832
15406TIP3    H167709   2.161   6.546  15.545  1.2435 -0.2034  0.7679
15406TIP3    H267710   2.211   6.405  15.570  1.4286 -1.0735 -3.7651
15407TIP3   OH267711   1.263   4.019   2.607  1.1372  0.5461 -0.8921
15407TIP3    H167712   1.308   3.943   2.645  0.6428 -0.5992 -2.4970
15407TIP3    H267713   1.330   4.064   2.556  0.9727  0.0757 -1.5235
15408TIP3   OH267714   2.436   2.399  16.444  0.4798 -0.2663 -0.6013
15408TIP3    H167715   2.398   2.484  16.465 -1.2706 -1.3735  1.1026
15408TIP3    H267716   2.489   2.377  16.520  1.1373 -0.5898 -1.1449
15409TIP3   OH267717   2.300   3.713   0.669 -0.1874  0.2797  0.3026
15409TIP3    H167718   2.349   3.662   0.734  0.7079  2.8744  1.8234
15409TIP3    H267719   2.314   3.666   0.587  0.0602 -2.2019  1.6307
15410TIP3   OH267720   4.751   6.553   3.358 -0.5466 -0.0915 -0.0807
15410TIP3    H167721   4.775   6.576   3.448  0.7136  3.5813 -1.1524
15410TIP3    H267722   4.662   6.587   3.347 -0.6155 -0.3320 -0.2887
15411TIP3   OH267723   3.932   4.367  15.279 -0.0087  0.2796 -0.1117
15411TIP3    H167724   3.932   4.271  15.283 -0.9285  0.2184 -1.1307
15411TIP3    H267725   3.843   4.392  15.302  0.4792  0.9676  1.1263
15412TIP3   OH267726   2.914   1.358   0.149  0.1002 -0.2760 -0.4598
15412TIP3    H167727   2.866   1.405   0.216  0.8085 -1.2380  0.7571
15412TIP3    H267728   2.881   1.394   0.066 -1.6302  0.1141  0.3525
15413TIP3   OH267729   6.619   3.507  15.308  0.3566  0.0658  0.1853
15413TIP3    H167730   6.705   3.472  15.331  0.9937  1.5021  0.0497
15413TIP3    H267731   6.616   3.502  15.213  1.1937  1.9777  0.0154
15414TIP3   OH267732   4.640   5.845   5.486  0.6156 -0.0334 -0.8081
15414TIP3    H167733   4.677   5.757   5.488  1.0617  0.1298 -1.4614
15414TIP3    H267734   4.545   5.831   5.481  0.6790 -0.4795 -0.8377
15415TIP3   OH267735   4.925   2.626   5.358  0.3261  0.0430  0.2151
15415TIP3    H167736   4.890   2.686   5.292  2.2217  1.7038  0.6261
15415TIP3    H267737   4.941   2.545   5.311  1.6969  1.2031 -1.4310
15416TIP3   OH267738   6.785   6.814   4.027 -0.2589 -0.2781 -0.3598
15416TIP3    H167739   6.752   6.726   4.042 -1.3027  0.1364 -0.1204
15416TIP3    H267740   6.707   6.870   4.028  0.4712  0.7727  0.4379
15417TIP3   OH267741   3.912   0.962   2.936 -0.0369  0.0059 -1.1053
15417TIP3    H167742   3.900   0.880   2.983  0.4192  0.9317  0.7326
15417TIP3    H267743   3.834   1.013   2.956  0.5036  0.7016 -0.7263
15418TIP3   OH267744   2.867   0.634  11.611  0.2131 -0.0782  0.2346
15418TIP3    H167745   2.910   0.712  11.645 -0.6176 -0.0777  1.3616
15418TIP3    H267746   2.880   0.567  11.679  1.2351 -1.0575 -0.8746
15419TIP3   OH267747   2.020   2.140  12.347 -0.2193  0.3265 -0.5479
15419TIP3    H167748   2.013   2.184  12.262  0.7641 -2.0414 -1.9381
15419TIP3    H267749   2.114   2.125  12.358 -0.2685  1.1310  1.2879
15420TIP3   OH267750   5.291   4.593  12.335 -0.3089  0.1827 -0.4390
15420TIP3    H167751   5.341   4.622  12.412 -0.1130 -1.2440  0.0076
15420TIP3    H267752   5.200   4.614  12.356 -0.0687  1.5253 -0.6536
15421TIP3   OH267753   6.474   6.515  10.257  0.1079  1.0263  0.3252
15421TIP3    H167754   6.414   6.442  10.269  1.9968 -0.6766 -0.0053
15421TIP3    H267755   6.426   6.591  10.288 -1.2754 -0.6304  2.5668
15422TIP3   OH267756   3.203   2.903   4.148  0.5594 -0.3562 -0.2127
15422TIP3    H167757   3.154   2.822   4.136 -0.7871 -0.1821  2.9871
15422TIP3    H267758   3.186   2.954   4.069  1.1737 -3.0016 -2.1407
15423TIP3   OH267759   1.906   2.522  13.638 -0.1604 -0.0089 -0.3283
15423TIP3    H167760   1.867   2.554  13.556  0.5499 -0.0618 -0.6904
15423TIP3    H267761   1.885   2.590  13.702 -1.3590 -0.3139 -0.3743
15424TIP3   OH267762   0.723   3.283  13.170 -0.5084  0.0762 -0.3045
15424TIP3    H167763   0.806   3.271  13.125 -0.0869  0.7287  0.2836
15424TIP3    H267764   0.660   3.302  13.101 -1.3416 -5.2909 -1.4771
15425TIP3   OH267765   5.400   3.416  13.874 -0.1200  0.2475 -0.2745
15425TIP3    H167766   5.313   3.385  13.901  0.0747 -0.6604 -0.6472
15425TIP3    H267767   5.395   3.417  13.778 -0.6858  3.0638 -0.2898
15426TIP3   OH267768   2.542   1.209  11.341 -0.0481  0.4537 -0.2720
15426TIP3    H167769   2.511   1.119  11.343 -3.2940  1.4631  1.0360
15426TIP3    H267770   2.585   1.221  11.426 -0.7278  0.4674  0.0754
15427TIP3   OH267771   6.062   4.185  11.364  0.0219  0.4614  0.3930
15427TIP3    H167772   6.086   4.129  11.438  0.6212  0.6155  0.3258
15427TIP3    H267773   6.146   4.220  11.333 -0.2729  0.7885 -0.0461
15428TIP3   OH267774   2.576   5.426  16.490 -0.3741 -0.0982  0.4252
15428TIP3    H167775   2.501   5.367  16.486 -1.6409  1.2726  2.3713
15428TIP3    H267776   2.563   5.485  16.416 -0.5843 -0.5642  0.0825
15429TIP3   OH267777   4.201   3.494   6.895 -0.4188 -0.5535 -0.0551
15429TIP3    H167778   4.245   3.550   6.959 -1.3566  1.2420 -0.8794
15429TIP3    H267779   4.266   3.428   6.871  1.2275  0.9712  0.0042
15430TIP3   OH267780   4.748   1.290   5.627  0.0171 -0.5752 -1.1112
15430TIP3    H167781   4.780   1.234   5.698 -0.2706 -1.3001 -1.5497
15430TIP3    H267782   4.726   1.230   5.557 -0.8871  0.0414 -1.3676
15431TIP3   OH267783   6.414   3.999   0.872 -0.3804 -0.1664 -0.1178
15431TIP3    H167784   6.470   4.076   0.857 -0.4936  0.1058  0.8445
15431TIP3    H267785   6.452   3.956   0.948 -0.5745 -0.8318 -0.3948
15432TIP3   OH267786   4.556   5.293   3.807  0.2189 -0.6501  0.4827
15432TIP3    H167787   4.610   5.360   3.849  2.6275 -1.5475 -0.9861
15432TIP3    H267788   4.580   5.298   3.715  0.0259 -3.0935  0.2392
15433TIP3   OH267789   4.789   3.272  14.109  0.2844  0.1930 -0.1594
15433TIP3    H167790   4.859   3.209  14.093 -1.0676 -1.3110 -0.3717
15433TIP3    H267791   4.831   3.342  14.159  2.1867 -0.0841 -1.2495
15434TIP3   OH267792   6.275   1.331  15.219  0.0275  0.5592  0.3445
15434TIP3    H167793   6.311   1.397  15.160  0.3559  1.0977  1.1332
15434TIP3    H267794   6.332   1.255  15.208 -0.4117  0.3479 -0.6399
15435TIP3   OH267795   1.530   5.143  17.016 -0.0439  0.6227  0.1230
15435TIP3    H167796   1.547   5.229  17.054 -0.1960 -0.3401  2.5703
15435TIP3    H267797   1.448   5.114  17.055 -1.0371  0.1338 -2.1706
15436TIP3   OH267798   6.269   2.363   5.728 -0.9481  0.7736 -0.0500
15436TIP3    H167799   6.275   2.270   5.748 -1.7747  0.1593 -2.3835
15436TIP3    H267800   6.196   2.395   5.782  0.2816  0.4546  1.8812
15437TIP3   OH267801   1.314   6.144  13.705  0.1759  0.2473 -0.2273
15437TIP3    H167802   1.246   6.081  13.727  0.0962  0.8021  1.2754
15437TIP3    H267803   1.281   6.190  13.628 -0.7221 -0.1183 -0.0730
15438TIP3   OH267804   1.603   4.822   3.565  0.0279 -0.4286  0.2834
15438TIP3    H167805   1.672   4.815   3.499 -0.0972  0.9917 -0.0451
15438TIP3    H267806   1.545   4.748   3.548 -0.2811  0.1888 -1.5749
15439TIP3   OH267807   5.837   4.203   0.962 -0.7094 -0.5259 -0.3186
15439TIP3    H167808   5.891   4.268   0.917 -1.6270  1.4411  1.3015
15439TIP3    H267809   5.894   4.127   0.971  0.7183  0.3666 -1.4265
15440TIP3   OH267810   2.762   5.725   3.230  0.2963 -0.1402 -0.3044
15440TIP3    H167811   2.732   5.643   3.268  1.8078 -0.8199 -0.5095
15440TIP3    H267812   2.737   5.792   3.294 -0.3095 -0.8390  0.1974
15441TIP3   OH267813   1.534   0.292   1.114  0.0682 -0.5053  0.3871
15441TIP3    H167814   1.543   0.279   1.020 -1.8640  1.8233 -0.2247
15441TIP3    H267815   1.469   0.228   1.142 -1.2031  0.4060 -0.3899
15442TIP3   OH267816   0.476   1.903   6.224  0.5018 -0.5954  0.1472
15442TIP3    H167817   0.397   1.852   6.245  0.0430  0.7895  2.0286
15442TIP3    H267818   0.443   1.977   6.172  0.7301 -0.6117 -0.0220
15443TIP3   OH267819   0.914   5.743  14.449 -0.0213  0.1524 -0.4059
15443TIP3    H167820   0.880   5.815  14.395 -0.7338  0.0482 -0.1149
15443TIP3    H267821   0.887   5.765  14.538 -0.6906 -0.7145 -0.3784
15444TIP3   OH267822   1.250   5.677   1.082 -0.0770 -0.6171 -0.4566
15444TIP3    H167823   1.280   5.757   1.039 -3.5919  0.3299 -1.4726
15444TIP3    H267824   1.261   5.608   1.017  0.3398 -0.4182 -0.5984
15445TIP3   OH267825   4.909   0.133  17.305 -0.0242  0.2938 -0.3409
15445TIP3    H167826   4.820   0.151  17.274 -0.1809  0.6678  0.3119
15445TIP3    H267827   4.945   0.219  17.325  0.4438  0.1304 -0.4793
15446TIP3   OH267828   3.441   5.929   3.314  0.1447 -0.1071 -0.5431
15446TIP3    H167829   3.434   5.912   3.220 -0.4103  1.4480 -0.8154
15446TIP3    H267830   3.468   6.020   3.320  1.0442 -0.4284  0.8158
15447TIP3   OH267831   2.524   1.832  12.111 -0.1000 -0.1691 -0.2887
15447TIP3    H167832   2.556   1.922  12.111 -2.1277  0.6340 -1.5260
15447TIP3    H267833   2.566   1.791  12.036  0.5611 -0.1477  0.0679
15448TIP3   OH267834   5.135   2.887  16.588  0.1784  0.0281 -0.5181
15448TIP3    H167835   5.138   2.927  16.675  0.0599  1.0847 -0.9855
15448TIP3    H267836   5.226   2.890  16.558 -0.2883  3.4586 -2.0541
15449TIP3   OH267837   2.369   5.095  13.124  0.2089 -0.5175  0.5628
15449TIP3    H167838   2.295   5.076  13.066  0.0240  1.2940  0.1423
15449TIP3    H267839   2.378   5.191  13.120  2.5381 -0.6913  0.6684
15450TIP3   OH267840   4.605   4.891  11.077 -0.4182 -0.3614 -0.0483
15450TIP3    H167841   4.657   4.904  10.997 -1.0040 -0.6138 -0.4746
15450TIP3    H267842   4.516   4.876  11.046 -1.4179  3.1002  0.7794
15451TIP3   OH267843   4.809   6.825  14.893  0.1667 -0.7122 -0.2630
15451TIP3    H167844   4.843   6.742  14.927 -1.3415 -0.5543  1.8462
15451TIP3    H267845   4.886   6.880  14.881  0.9527 -1.4664  1.0702
15452TIP3   OH267846   4.466   3.847   5.193 -0.4628  0.0571 -0.0043
15452TIP3    H167847   4.505   3.916   5.246  2.5194 -1.6718  0.2502
15452TIP3    H267848   4.532   3.829   5.126 -1.7005 -1.7189 -0.8057
15453TIP3   OH267849   2.360   6.047  12.062 -0.1529 -0.5493  0.0929
15453TIP3    H167850   2.351   6.110  12.133 -0.8546 -0.0390 -0.4359
15453TIP3    H267851   2.390   5.966  12.105 -1.7115 -0.5986  1.1523
15454TIP3   OH267852   1.759   5.170  13.506 -0.3782  0.0642 -0.6289
15454TIP3    H167853   1.720   5.110  13.442 -0.7148  0.1874 -0.5392
15454TIP3    H267854   1.720   5.144  13.590 -2.5028  2.0304 -0.9038
15455TIP3   OH267855   1.919   1.121   6.770  0.3616  0.1333 -0.3009
15455TIP3    H167856   1.918   1.029   6.796  1.4289 -0.3332 -1.8032
15455TIP3    H267857   2.006   1.151   6.795 -0.4687  1.1943  1.5440
15456TIP3   OH267858   1.352   5.029   6.588  0.1968  0.1563 -0.3650
15456TIP3    H167859   1.335   4.952   6.643  0.8265  0.5611  0.4077
15456TIP3    H267860   1.440   5.015   6.554  0.5626  0.8215  0.2785
15457TIP3   OH267861   2.114   5.399   2.999 -0.3102 -0.4928 -0.1112
15457TIP3    H167862   2.185   5.386   3.062  0.0764  0.7565 -0.2588
15457TIP3    H267863   2.034   5.386   3.049  0.0078 -0.2287  0.4700
15458TIP3   OH267864   3.832   6.121  14.336 -0.5824 -0.2935 -0.2393
15458TIP3    H167865   3.855   6.172  14.414  0.4152 -2.5476  1.0629
15458TIP3    H267866   3.916   6.101  14.295 -1.1523  1.7393 -2.5863
15459TIP3   OH267867   1.632   3.974  13.437 -0.0862  0.8871 -1.1344
15459TIP3    H167868   1.556   3.917  13.436 -1.5393  2.6991 -0.0459
15459TIP3    H267869   1.621   4.028  13.514  1.0992  2.7902 -2.2099
15460TIP3   OH267870   2.995   3.882   3.015  0.0352 -0.3869 -0.1284
15460TIP3    H167871   3.086   3.897   2.991 -0.4145  0.4178 -1.4676
15460TIP3    H267872   2.998   3.851   3.106  1.6564 -0.8143 -0.2980
15461TIP3   OH267873   0.040   3.627  16.090  0.2117 -0.8345  0.1661
15461TIP3    H167874  -0.007   3.623  16.173  0.5683  1.4736  0.5351
15461TIP3    H267875  -0.029   3.637  16.024  0.0030 -1.3416  0.3007
15462TIP3   OH267876   3.137   6.375  15.966  0.1396 -0.2966 -0.3881
15462TIP3    H167877   3.126   6.403  16.057  1.6799 -1.8367  0.3072
15462TIP3    H267878   3.231   6.380  15.950  0.0052 -1.1267 -1.5462
15463TIP3   OH267879   0.330   0.635  13.680  0.1217 -0.4104 -0.2538
15463TIP3    H167880   0.375   0.554  13.700 -2.0072 -1.2250  1.6913
15463TIP3    H267881   0.237   0.612  13.680 -0.5058  1.8313 -0.5813
15464TIP3   OH267882   3.497   1.981   2.970  0.1183 -0.2775  0.6179
15464TIP3    H167883   3.564   2.034   2.926  0.2652  0.2604  1.4730
15464TIP3    H267884   3.415   2.010   2.931  0.2370  0.2607  0.7605
15465TIP3   OH267885   3.886   0.194   5.729 -0.6538 -0.1815 -0.3084
15465TIP3    H167886   3.851   0.144   5.802  0.3386 -1.1511 -0.4775
15465TIP3    H267887   3.959   0.244   5.767  1.5794 -2.6578 -1.0727
15466TIP3   OH267888   6.391   1.061  15.240 -0.1913 -0.1501 -0.6317
15466TIP3    H167889   6.479   1.081  15.273 -0.1521 -0.6622 -0.4160
15466TIP3    H267890   6.401   0.977  15.195 -0.6135 -0.3126 -0.4248
15467TIP3   OH267891   3.485   1.442   2.597 -0.1689  0.4569 -0.6615
15467TIP3    H167892   3.470   1.347   2.604  1.1378  0.3156  1.2639
15467TIP3    H267893   3.429   1.480   2.665  0.4631  0.8805 -0.3584
15468TIP3   OH267894   5.415   5.576   0.837  0.3100  0.1818 -0.0062
15468TIP3    H167895   5.436   5.658   0.793  0.5539  0.3786  0.4688
15468TIP3    H267896   5.353   5.533   0.779  0.2417  0.6636 -0.2973
15469TIP3   OH267897   6.365   1.457   3.834  0.3517 -0.4607  0.7506
15469TIP3    H167898   6.438   1.518   3.843  0.6093 -0.4361 -1.0962
15469TIP3    H267899   6.355   1.445   3.739 -1.3911 -1.2517  0.9914
15470TIP3   OH267900   5.705   0.725   3.878  0.0244 -0.0701  0.5266
15470TIP3    H167901   5.709   0.631   3.858 -1.3800  0.2372 -1.4884
15470TIP3    H267902   5.788   0.743   3.922  1.3820 -1.8136 -1.1441
15471TIP3   OH267903   4.367   2.662  14.026  0.4146  0.2231  0.7772
15471TIP3    H167904   4.384   2.752  14.000 -0.5000 -0.4505 -2.7275
15471TIP3    H267905   4.272   2.654  14.023  0.4051 -0.6116  2.2109
15472TIP3   OH267906   6.808   3.979   0.836 -0.1401 -0.3994 -0.2094
15472TIP3    H167907   6.901   3.993   0.816  0.2600 -1.7736  0.5052
15472TIP3    H267908   6.788   3.893   0.799 -1.1932 -0.0408 -0.5119
15473TIP3   OH267909   1.038   2.513   1.623 -0.4947  0.7848 -0.2697
15473TIP3    H167910   1.089   2.572   1.567 -1.6616  0.6417 -1.5248
15473TIP3    H267911   1.007   2.569   1.694 -2.8978  2.1777 -2.2374
15474TIP3   OH267912   5.116   1.883  14.053  0.2039 -0.2522 -0.3308
15474TIP3    H167913   5.060   1.837  13.990 -0.7374  1.2774 -0.6499
15474TIP3    H267914   5.144   1.814  14.114  0.0444 -1.5131 -1.6229
15475TIP3   OH267915   2.191   2.518  14.928  0.0778  0.4728 -0.0584
15475TIP3    H167916   2.216   2.435  14.969  0.2087  1.4516  1.9793
15475TIP3    H267917   2.102   2.535  14.959 -0.6867  0.2286 -1.9752
15476TIP3   OH267918   2.053   0.954   3.768 -0.2048  0.0024  0.2591
15476TIP3    H167919   1.988   1.013   3.807 -2.2473 -2.3767  0.7132
15476TIP3    H267920   2.029   0.952   3.675  0.5168  0.6235  0.0479
15477TIP3   OH267921   5.534   6.180   0.542 -0.5464  0.1222 -0.2900
15477TIP3    H167922   5.582   6.244   0.489 -1.1327 -0.1587 -1.1687
15477TIP3    H267923   5.500   6.232   0.616  0.6955  0.4166  0.1123
15478TIP3   OH267924   2.983   4.862  15.613 -0.8964 -0.1274 -0.0878
15478TIP3    H167925   2.938   4.943  15.588 -1.4841 -0.2434  0.5836
15478TIP3    H267926   2.989   4.866  15.708  0.9153  0.0885 -0.1736
15479TIP3   OH267927   3.836   6.562   3.667  0.0412 -0.3359 -0.3553
15479TIP3    H167928   3.859   6.575   3.575  4.6658 -0.3148  0.5727
15479TIP3    H267929   3.838   6.467   3.679  0.9388 -0.2708  0.0227
15480TIP3   OH267930   1.223   2.003   0.152  0.7740 -0.4392  0.2511
15480TIP3    H167931   1.166   1.970   0.222  0.1155 -0.1525 -0.1391
15480TIP3    H267932   1.287   1.933   0.139  1.4697 -0.1124  1.7638
15481TIP3   OH267933   6.762   1.485   3.219  0.1728  0.2215  0.0146
15481TIP3    H167934   6.815   1.465   3.296 -0.6145 -0.5758  0.3653
15481TIP3    H267935   6.683   1.526   3.254 -0.8049 -1.3724 -0.2182
15482TIP3   OH267936   6.552   6.202   0.881  0.5724  0.2807 -0.5300
15482TIP3    H167937   6.557   6.198   0.785 -0.8070 -1.5147 -0.5776
15482TIP3    H267938   6.470   6.158   0.903  1.0831  0.2381  1.5117
15483TIP3   OH267939   2.154   5.554   5.778 -0.4935 -0.0053  0.4327
15483TIP3    H167940   2.229   5.512   5.819 -1.0631 -1.2494  0.2547
15483TIP3    H267941   2.135   5.629   5.833  0.5546  0.0344  0.7649
15484TIP3   OH267942   6.327   6.723   3.648  0.5357  0.2939 -0.7170
15484TIP3    H167943   6.353   6.793   3.589 -1.2759 -0.0260 -1.9660
15484TIP3    H267944   6.399   6.660   3.643 -0.0547 -0.2766 -3.5313
15485TIP3   OH267945   6.310   6.512   0.836  0.1693 -0.1312 -0.4687
15485TIP3    H167946   6.243   6.576   0.813 -1.4900 -1.7352 -0.3631
15485TIP3    H267947   6.305   6.446   0.766  1.3226 -0.5362 -0.2018
15486TIP3   OH267948   4.431   3.947  14.673  0.0896  0.0728 -0.1579
15486TIP3    H167949   4.497   3.963  14.740 -1.5495  0.3200  1.4757
15486TIP3    H267950   4.468   3.876  14.621  0.6987 -1.3904  2.1019
15487TIP3   OH267951   4.541   0.188   5.637 -0.1759 -0.6165  0.2442
15487TIP3    H167952   4.625   0.143   5.637 -0.1562 -0.5827 -0.1081
15487TIP3    H267953   4.558   0.271   5.683  0.0919 -0.4105 -0.2226
15488TIP3   OH267954   0.295   2.392   2.140  0.5510 -0.2511 -0.6355
15488TIP3    H167955   0.344   2.324   2.186 -1.1120  0.3210  2.1970
15488TIP3    H267956   0.244   2.344   2.075  2.0292 -1.2506 -1.1242
15489TIP3   OH267957   6.499   4.719   0.653  0.2072  0.0396 -0.4855
15489TIP3    H167958   6.408   4.724   0.683  0.5641  1.3425  0.4426
15489TIP3    H267959   6.550   4.703   0.732  0.7601 -1.2842 -1.0735
15490TIP3   OH267960   1.516   5.487  13.647 -0.2764 -0.1089  0.4706
15490TIP3    H167961   1.494   5.579  13.641  0.0133 -0.0027  0.9929
15490TIP3    H267962   1.581   5.473  13.578  3.0703  1.1124  3.1169
15491TIP3   OH267963   2.187   0.313   0.299 -0.3400  0.4675  0.6425
15491TIP3    H167964   2.206   0.230   0.255  1.8961  0.2880  1.8105
15491TIP3    H267965   2.219   0.380   0.240 -2.3019  0.6020 -0.3812
15492TIP3   OH267966   5.173   1.848   5.994 -0.3188  0.1613  0.0335
15492TIP3    H167967   5.157   1.929   6.043  0.3112 -0.1158  0.6985
15492TIP3    H267968   5.264   1.825   6.012 -0.7655 -1.2366  0.6570
15493TIP3   OH267969   5.936   3.026   4.815 -0.0828 -0.8198  0.1603
15493TIP3    H167970   5.951   2.933   4.831  2.6230 -0.7939 -1.5926
15493TIP3    H267971   5.943   3.067   4.902  2.5662 -1.8896  0.5461
15494TIP3   OH267972   5.779   3.378  15.131  0.0630 -0.7268 -0.5047
15494TIP3    H167973   5.758   3.463  15.092  2.1607 -1.2428 -3.1005
15494TIP3    H267974   5.708   3.321  15.103 -1.4536  0.1264  1.4018
15495TIP3   OH267975   6.638   1.657  14.630  0.1254 -0.8948  0.3795
15495TIP3    H167976   6.579   1.585  14.609  1.4313 -1.5039 -1.4200
15495TIP3    H267977   6.585   1.736  14.617 -0.6623 -1.4648  0.0690
15496TIP3   OH267978   2.529   4.442   4.646 -0.6699  0.4973  0.4876
15496TIP3    H167979   2.570   4.356   4.637 -0.7296  0.5450 -0.3530
15496TIP3    H267980   2.481   4.438   4.728 -0.2439 -0.0935  0.7117
15497TIP3   OH267981   4.275   3.230   2.765  0.0995 -0.5561  0.8193
15497TIP3    H167982   4.318   3.244   2.681  0.2564  0.9404  1.1297
15497TIP3    H267983   4.274   3.135   2.776 -0.7979 -0.8233 -1.3088
15498TIP3   OH267984   1.530   1.201   5.492 -0.3082  0.3164 -0.4633
15498TIP3    H167985   1.560   1.227   5.405  0.9114  0.5613  0.0155
15498TIP3    H267986   1.594   1.239   5.552 -0.3512 -1.0204  0.4657
15499TIP3   OH267987   3.865   0.413   2.580  0.0734 -0.3548 -0.4724
15499TIP3    H167988   3.893   0.410   2.489  0.2908 -0.0613 -0.4188
15499TIP3    H267989   3.775   0.445   2.577  0.1127 -0.2535 -0.5802
15500TIP3   OH267990   2.241   1.991   4.631  0.0567 -0.2585 -0.2263
15500TIP3    H167991   2.205   1.902   4.637  0.7699 -0.5608 -0.3699
15500TIP3    H267992   2.310   1.993   4.698 -0.1838  0.3030  0.0138
15501TIP3   OH267993   3.918   6.450  16.818  0.2614  0.1543  0.0443
15501TIP3    H167994   3.993   6.483  16.769  0.2838  0.8943  0.5692
15501TIP3    H267995   3.874   6.528  16.851 -0.6826 -0.2753 -0.1635
15502TIP3   OH267996   4.929   2.194   1.644 -0.3578  0.2376 -0.1933
15502TIP3    H167997   4.990   2.237   1.704  1.1687 -0.5516 -1.1100
15502TIP3    H267998   4.915   2.107   1.683  2.1613 -1.0194 -1.8275
15503TIP3   OH267999   5.667   1.110   0.595  0.1028 -0.0109 -0.3067
15503TIP3    H168000   5.666   1.203   0.620 -0.1254  0.0156 -0.4084
15503TIP3    H268001   5.738   1.103   0.532  0.5610 -0.0420  0.2049
15504TIP3   OH268002   4.747   5.247  12.518  0.3603 -0.2576 -0.1369
15504TIP3    H168003   4.799   5.200  12.453 -0.1439 -0.2585 -0.5473
15504TIP3    H268004   4.691   5.180  12.557  0.7088 -0.2709  0.3599
15505TIP3   OH268005   2.162   6.615  14.729 -0.2483  0.0827  0.2739
15505TIP3    H168006   2.176   6.526  14.760  0.7808  0.2035  0.2120
15505TIP3    H268007   2.103   6.655  14.792 -1.9572 -1.0923 -0.5199
15506TIP3   OH268008   0.945   3.057  16.424 -0.2003  0.1923 -0.1390
15506TIP3    H168009   0.949   3.111  16.345 -1.0282  2.2276  1.1240
15506TIP3    H268010   1.036   3.033  16.442 -0.0791 -1.0753 -2.1537
15507TIP3   OH268011   4.745   3.521   3.375  0.2491 -0.2618  0.0752
15507TIP3    H168012   4.700   3.441   3.402  0.1711 -0.3074 -0.1902
15507TIP3    H268013   4.721   3.533   3.283 -1.3386  1.1238  0.6163
15508TIP3   OH268014   5.598   1.902   4.994  0.3530  0.2607 -0.1834
15508TIP3    H168015   5.604   1.936   5.084  1.4449  1.5222 -0.7072
15508TIP3    H268016   5.592   1.980   4.939 -2.9110 -0.4663 -1.1141
15509TIP3   OH268017   6.521   3.413   0.877 -0.0698 -0.2000  0.0505
15509TIP3    H168018   6.552   3.322   0.884 -1.6996 -0.9259 -1.4989
15509TIP3    H268019   6.587   3.464   0.924  1.3179 -2.0851  0.2735
15510TIP3   OH268020   0.095   5.947   1.473 -0.9484  0.2519  0.3498
15510TIP3    H168021   0.097   6.018   1.409 -0.1502 -0.2381 -0.1899
15510TIP3    H268022   0.182   5.907   1.467 -0.7101  0.4568  2.0327
15511TIP3   OH268023   6.438   6.195  13.363  0.3602 -0.0046 -0.1207
15511TIP3    H168024   6.533   6.196  13.377  0.7655  0.5327 -2.4634
15511TIP3    H268025   6.410   6.109  13.395  1.8261 -0.6170 -0.4100
15512TIP3   OH268026   2.156   0.664   0.948  0.0949  0.0371  0.1840
15512TIP3    H168027   2.217   0.643   0.878  0.6227  2.7657 -0.2702
15512TIP3    H268028   2.187   0.614   1.024  0.4334 -1.7335 -1.0786
15513TIP3   OH268029   0.358   5.917  12.675  1.1297 -0.5602 -0.0943
15513TIP3    H168030   0.414   5.856  12.628 -0.4818 -1.9613 -0.3033
15513TIP3    H268031   0.303   5.861  12.730 -1.9794  0.3947 -1.9535
15514TIP3   OH268032   2.676   0.858   1.732  0.0859 -0.9041  0.6043
15514TIP3    H168033   2.665   0.904   1.649  1.2851 -0.2391  0.8067
15514TIP3    H268034   2.621   0.906   1.794 -2.0023 -2.2729 -0.0811
15515TIP3   OH268035   1.150   0.755   1.068  0.4700 -1.3165  0.2516
15515TIP3    H168036   1.168   0.713   1.152 -0.5751 -1.5295  0.3804
15515TIP3    H268037   1.101   0.834   1.091 -0.1200 -1.5516 -0.1628
15516TIP3   OH268038   6.435   4.526   5.490 -0.2186  0.1053  0.0524
15516TIP3    H168039   6.486   4.585   5.435 -1.7460 -0.4453 -2.0476
15516TIP3    H268040   6.354   4.573   5.508 -1.0912 -0.9515 -0.9308
15517TIP3   OH268041   6.073   2.007   2.531  0.5748 -0.7538  0.2022
15517TIP3    H168042   6.015   1.961   2.471 -1.7431  1.3183  0.6960
15517TIP3    H268043   6.067   2.099   2.506  2.6596 -0.2862  1.1468
15518TIP3   OH268044   5.557   4.213   0.905  0.4591 -0.1161  0.3524
15518TIP3    H168045   5.642   4.174   0.885  0.4686 -0.0110  0.1835
15518TIP3    H268046   5.554   4.292   0.851 -1.0006 -1.6395 -1.9991
15519TIP3   OH268047   4.044   5.867  14.102 -0.1124  0.3660  0.2821
15519TIP3    H168048   4.108   5.938  14.103 -0.3994  0.6252  0.9264
15519TIP3    H268049   3.990   5.884  14.025 -1.1100  1.7082  1.2287
15520TIP3   OH268050   2.546   3.933   5.472  0.4586 -0.4513  0.0081
15520TIP3    H168051   2.464   3.935   5.522  0.5733  1.6381  0.2046
15520TIP3    H268052   2.614   3.941   5.539  0.7128  0.1972 -0.3282
15521TIP3   OH268053   6.598   0.181  13.454  0.1555  0.4345 -0.1112
15521TIP3    H168054   6.677   0.130  13.435 -0.0700 -0.6017  1.5365
15521TIP3    H268055   6.609   0.210  13.545 -1.0996  0.7770 -0.0501
15522TIP3   OH268056   4.448   6.624   4.607  0.1450  0.6998 -0.1567
15522TIP3    H168057   4.471   6.707   4.649  0.2790  0.8748 -0.5701
15522TIP3    H268058   4.440   6.646   4.514  2.2656 -0.1734 -0.5982
15523TIP3   OH268059   5.255   3.143   0.552 -0.2247  0.1775 -0.1261
15523TIP3    H168060   5.218   3.077   0.611 -0.6113 -0.4174 -1.0035
15523TIP3    H268061   5.338   3.106   0.524  0.9299  1.3405  1.5383
15524TIP3   OH268062   1.180   0.045  11.924  0.1775 -0.1109  0.0388
15524TIP3    H168063   1.263   0.039  11.877 -0.1421  1.5443 -0.8021
15524TIP3    H268064   1.115   0.011  11.863 -0.0612  0.7990 -0.2304
15525TIP3   OH268065   5.902   6.427  14.475 -0.0128 -0.2075  0.4012
15525TIP3    H168066   5.915   6.512  14.518  0.4387 -0.1249  0.1170
15525TIP3    H268067   5.858   6.449  14.392  0.6412 -0.1737  0.0491
15526TIP3   OH268068   0.096   4.183  15.826 -0.0156 -0.2777  0.0105
15526TIP3    H168069   0.165   4.221  15.771 -0.4166 -1.2286 -1.1736
15526TIP3    H268070   0.028   4.250  15.828  1.5035  1.3746  2.5003
15527TIP3   OH268071   2.252   6.128   0.104 -0.2281 -0.0019 -0.3346
15527TIP3    H168072   2.345   6.138   0.127 -0.0396  1.0334 -1.4481
15527TIP3    H268073   2.206   6.129   0.187  0.8753 -2.2815  0.3947
15528TIP3   OH268074   1.664   3.829   4.813 -0.2622  0.2585 -0.4847
15528TIP3    H168075   1.722   3.809   4.739 -0.4590  2.3084 -1.2641
15528TIP3    H268076   1.722   3.833   4.889  0.1330 -0.6116 -0.7239
15529TIP3   OH268077   2.333   1.144  13.543 -0.3288 -0.1504 -0.0458
15529TIP3    H168078   2.319   1.198  13.621  3.0382  0.4895  0.3013
15529TIP3    H268079   2.334   1.054  13.576 -0.7995 -0.0192  0.3271
15530TIP3   OH268080   6.664   3.362  14.376  0.1937  0.2612 -0.1264
15530TIP3    H168081   6.651   3.421  14.302  3.0792  0.0935 -0.8699
15530TIP3    H268082   6.717   3.291  14.340  0.5833 -0.4848  1.8305
15531TIP3   OH268083   1.785   0.930  13.677  0.6836 -0.1843 -0.3856
15531TIP3    H168084   1.705   0.889  13.710  0.6621  0.2876  0.1790
15531TIP3    H268085   1.853   0.903  13.740  0.7229  0.3975 -0.1700
15532TIP3   OH268086   4.689   1.909   3.225  0.2596  0.1680 -0.6811
15532TIP3    H168087   4.778   1.897   3.260  0.1189 -0.1861 -0.4315
15532TIP3    H268088   4.632   1.882   3.298 -0.0472 -2.1597 -1.6790
15533TIP3   OH268089   4.047   2.682   3.559 -0.2733 -0.4509 -0.7620
15533TIP3    H168090   4.092   2.737   3.624  0.7890 -0.9360 -1.0637
15533TIP3    H268091   4.001   2.744   3.503  0.4456  0.1028 -0.7522
15534TIP3   OH268092   5.867   0.419   1.534 -0.1331 -0.3739 -0.3615
15534TIP3    H168093   5.933   0.363   1.574 -0.7233  0.7297  2.3400
15534TIP3    H268094   5.786   0.368   1.539 -0.0768 -0.5221 -0.8780
15535TIP3   OH268095   2.650   5.384  17.114  0.0982 -0.4798  0.0761
15535TIP3    H168096   2.569   5.362  17.069  0.0760  1.9393 -1.2561
15535TIP3    H268097   2.707   5.308  17.101 -2.0486 -2.5023  1.5647
15536TIP3   OH268098   3.139   4.651  14.018  0.4945  0.3433  0.3722
15536TIP3    H168099   3.163   4.558  14.024  0.5780  0.3301 -0.1353
15536TIP3    H268100   3.168   4.678  13.931 -0.1436  0.6699  0.2545
15537TIP3   OH268101   4.589   1.961   4.904  0.6310 -0.3802 -0.1503
15537TIP3    H168102   4.512   1.930   4.950  1.3294 -2.2175 -0.1266
15537TIP3    H268103   4.588   1.915   4.820  0.8721  0.7909 -0.8295
15538TIP3   OH268104   2.172   2.481  13.680  0.3224  0.3771 -0.2533
15538TIP3    H168105   2.200   2.416  13.745  0.1188  0.7056  0.1748
15538TIP3    H268106   2.078   2.489  13.693  0.2107  0.1313 -0.8915
15539TIP3   OH268107   1.217   5.745  12.273 -0.0518 -0.2559 -0.2666
15539TIP3    H168108   1.273   5.686  12.324  0.2522 -0.1043 -0.4204
15539TIP3    H268109   1.172   5.689  12.211 -1.2450 -0.6019  0.8670
15540TIP3   OH268110   0.014   4.050   1.121  0.3011 -0.2246 -0.1654
15540TIP3    H168111  -0.007   4.033   1.029  3.0513  0.2336 -0.9815
15540TIP3    H268112  -0.004   3.967   1.166  1.5667 -1.3804 -1.6778
15541TIP3   OH268113   3.511   0.376   0.837  0.0023  0.3001  0.1263
15541TIP3    H168114   3.500   0.358   0.743 -0.4392 -0.4648  0.3144
15541TIP3    H268115   3.422   0.379   0.871  0.1617  0.6437  0.5130
15542TIP3   OH268116   2.338   0.004   1.461  0.8836  0.2903  0.0141
15542TIP3    H168117   2.242   0.000   1.468  0.6699  0.0455 -2.3422
15542TIP3    H268118   2.357   0.097   1.448  1.0875  0.4501  1.2536
15543TIP3   OH268119   2.471   6.292  12.545 -0.4162  0.0233 -0.0032
15543TIP3    H168120   2.483   6.206  12.585  0.2172 -0.2883 -0.8525
15543TIP3    H268121   2.462   6.352  12.620 -0.6419 -0.7399  0.5928
15544TIP3   OH268122   3.261   5.389   2.383  0.6572 -0.2274 -0.5534
15544TIP3    H168123   3.326   5.345   2.437 -0.1226 -0.6546  0.0607
15544TIP3    H268124   3.311   5.429   2.312  1.5112 -1.0598 -0.4298
15545TIP3   OH268125   1.331   1.092  16.820 -0.3713 -0.3350  0.9429
15545TIP3    H168126   1.271   1.062  16.751  0.2872  0.8480 -0.1870
15545TIP3    H268127   1.418   1.076  16.784 -0.0126  0.0157  1.6485
15546TIP3   OH268128   0.902   3.328  13.389  0.2705  0.7248  0.8115
15546TIP3    H168129   0.863   3.288  13.311  0.7907  1.4528  0.1581
15546TIP3    H268130   0.981   3.277  13.405 -1.5844 -1.7050  3.0185
15547TIP3   OH268131   1.983   0.963   0.316  0.4605 -0.1566  0.5104
15547TIP3    H168132   2.077   0.946   0.314  0.5021  0.0717  0.3652
15547TIP3    H268133   1.961   0.985   0.225  0.0436 -1.3718  0.3008
15548TIP3   OH268134   4.318   5.595  11.759  0.4266  0.0876 -0.5652
15548TIP3    H168135   4.336   5.551  11.676  1.3301  1.7134 -1.2848
15548TIP3    H268136   4.369   5.547  11.823 -0.6441 -1.4812 -0.8292
15549TIP3   OH268137   2.568   6.280   3.667 -0.0198 -0.7253  0.5459
15549TIP3    H168138   2.574   6.247   3.756 -0.7605 -1.5377  0.3081
15549TIP3    H268139   2.618   6.216   3.615  2.0911  0.7730  0.5990
15550TIP3   OH268140   3.747   2.274  12.038 -0.3586 -0.2967 -0.2252
15550TIP3    H168141   3.794   2.311  12.112  0.8045  1.4511 -1.7574
15550TIP3    H268142   3.669   2.328  12.029 -0.8994 -0.9943  0.1766
15551TIP3   OH268143   1.190   2.783   4.537 -0.0838  0.3769  0.1342
15551TIP3    H168144   1.243   2.823   4.606 -0.4401  2.0607 -0.5351
15551TIP3    H268145   1.249   2.775   4.463 -0.3633  0.8502 -0.1389
15552TIP3   OH268146   3.623   0.685   4.895  0.1309 -0.9444 -0.4245
15552TIP3    H168147   3.545   0.734   4.867  0.2498 -1.3874 -1.5788
15552TIP3    H268148   3.648   0.726   4.978 -0.5477  0.0765 -0.6989
15553TIP3   OH268149   2.348   4.802  13.119 -0.5949 -0.0637 -0.2418
15553TIP3    H168150   2.321   4.869  13.056 -3.6725  0.8701  1.8582
15553TIP3    H268151   2.418   4.844  13.170 -1.6568  1.1717  0.2633
15554TIP3   OH268152   0.018   2.481   3.333 -0.2949  0.1852  0.2040
15554TIP3    H168153  -0.031   2.473   3.415  1.0704 -0.0760  1.0277
15554TIP3    H268154  -0.041   2.449   3.266 -0.4549 -2.3678  1.4522
15555TIP3   OH268155   1.734   3.651  16.500  0.2629  0.0640  0.1977
15555TIP3    H168156   1.726   3.562  16.466  2.1856  0.2777 -0.9749
15555TIP3    H268157   1.820   3.653  16.541  0.2390  1.3857  0.2224
15556TIP3   OH268158   4.915   2.188  16.132  0.4751  0.1169  0.7684
15556TIP3    H168159   4.860   2.110  16.125  2.5182 -1.3198 -0.5007
15556TIP3    H268160   4.949   2.202  16.044 -1.3277  3.7253  0.4848
15557TIP3   OH268161   4.250   4.249  14.314 -0.0770  0.5027 -0.2987
15557TIP3    H168162   4.293   4.250  14.400 -1.1669  1.5189  0.2792
15557TIP3    H268163   4.315   4.286  14.254  1.2445 -1.5889 -0.2382
15558TIP3   OH268164   1.187   0.282  14.235  0.3414  0.2496  0.5732
15558TIP3    H168165   1.275   0.259  14.266  0.8226 -1.2809 -1.7195
15558TIP3    H268166   1.196   0.371  14.201  1.3208 -0.2755 -0.6263
15559TIP3   OH268167   4.781   0.375   0.322 -0.7364 -0.9249  0.5973
15559TIP3    H168168   4.768   0.289   0.280  0.4220 -0.9093  0.1730
15559TIP3    H268169   4.732   0.436   0.267 -1.7559 -1.3353  1.0290
15560TIP3   OH268170   6.026   4.325   1.347 -0.1084 -0.4906  0.5252
15560TIP3    H168171   5.950   4.345   1.292  1.4991  1.8583 -1.0187
15560TIP3    H268172   6.049   4.409   1.388  1.0621 -1.3712  1.7818
15561TIP3   OH268173   0.490   2.295  16.542 -0.4770  0.3032  0.3543
15561TIP3    H168174   0.420   2.233  16.521 -0.4576 -0.1292  1.5195
15561TIP3    H268175   0.568   2.240  16.552  0.5708  0.9328 -2.9095
15562TIP3   OH268176   0.303   5.875   5.498  0.2760 -0.0925 -1.0647
15562TIP3    H168177   0.283   5.804   5.559 -0.9079  0.1919 -1.1033
15562TIP3    H268178   0.226   5.881   5.442  0.5848  0.8804 -1.4063
15563TIP3   OH268179   0.975   3.352   6.053  0.3129 -0.1464 -0.1907
15563TIP3    H168180   0.999   3.264   6.081 -1.5191 -0.0521  1.9731
15563TIP3    H268181   1.032   3.409   6.104  0.5731 -0.0384 -0.5961
15564TIP3   OH268182   6.498   3.742  13.701  0.8013 -0.3405 -0.1781
15564TIP3    H168183   6.503   3.760  13.607  0.9318 -0.1429 -0.1336
15564TIP3    H268184   6.552   3.665  13.713  0.6584 -0.4595 -0.2892
15565TIP3   OH268185   5.957   0.979  13.656 -0.0665 -0.1373  0.1197
15565TIP3    H168186   5.938   0.948  13.568 -0.0976 -0.0043  0.0801
15565TIP3    H268187   6.001   0.906  13.698 -2.6929 -1.3654  0.9768
15566TIP3   OH268188   3.669   2.338   5.485 -0.0595  0.1791 -0.3309
15566TIP3    H168189   3.764   2.340   5.475 -0.2313 -0.2050 -2.5137
15566TIP3    H268190   3.639   2.279   5.416 -1.9561  1.1461 -0.4029
15567TIP3   OH268191   6.467   4.423  15.848 -0.6558 -0.1214  0.0284
15567TIP3    H168192   6.458   4.339  15.803 -0.0778 -0.4969  0.5965
15567TIP3    H268193   6.385   4.435  15.894 -0.4262 -0.7961  0.6359
15568TIP3   OH268194   2.176   6.264  11.981 -0.6330  0.6094  0.8002
15568TIP3    H168195   2.098   6.238  12.029 -0.4880 -3.5631 -0.7643
15568TIP3    H268196   2.229   6.184  11.975  0.7798  1.5547 -3.4574
15569TIP3   OH268197   1.614   0.763   1.558 -0.1216 -0.0495 -0.2513
15569TIP3    H168198   1.539   0.784   1.614 -0.1516 -0.8425  0.0302
15569TIP3    H268199   1.664   0.699   1.609  0.6269  0.3010 -0.5387
15570TIP3   OH268200   1.099   0.437   3.850 -0.4683 -0.0724 -0.2905
15570TIP3    H168201   1.019   0.489   3.861  1.1962  2.4153  0.8744
15570TIP3    H268202   1.087   0.363   3.910 -1.8016  0.3751  0.0388
15571TIP3   OH268203   4.847   2.147   2.869  0.3343  0.5787  0.3384
15571TIP3    H168204   4.869   2.183   2.955  0.8280  1.3319 -0.1000
15571TIP3    H268205   4.906   2.072   2.859  1.9255  1.8531 -0.3071
15572TIP3   OH268206   1.503   6.442   6.719  0.8252  0.0058 -0.0083
15572TIP3    H168207   1.549   6.510   6.670  0.3205  0.3149 -0.0658
15572TIP3    H268208   1.492   6.370   6.656  1.8147 -0.3435  0.2032
15573TIP3   OH268209   3.772   3.669   1.323  0.0577 -0.2105  1.0705
15573TIP3    H168210   3.803   3.737   1.383  0.1815 -0.3477  1.1638
15573TIP3    H268211   3.731   3.604   1.380  0.1273 -0.3142  1.0010
15574TIP3   OH268212   3.971   4.697   5.926  0.2939  0.1200  0.0998
15574TIP3    H168213   3.882   4.700   5.961  0.7199 -0.0679  1.2632
15574TIP3    H268214   3.963   4.726   5.835 -0.9296  0.2253  0.2317
15575TIP3   OH268215   1.212   6.113   5.122  0.2288 -0.4371 -0.6443
15575TIP3    H168216   1.174   6.199   5.142 -1.0988 -1.5503  2.1144
15575TIP3    H268217   1.198   6.103   5.028  1.1201  2.6422 -1.2219
15576TIP3   OH268218   1.522   2.764  11.837  0.3502  0.6694  0.1751
15576TIP3    H168219   1.489   2.687  11.884 -1.1641  0.5839 -0.9391
15576TIP3    H268220   1.546   2.730  11.751 -0.1058  1.3792 -0.2427
15577TIP3   OH268221   2.396   3.392   1.687 -0.0287  0.5426 -0.3561
15577TIP3    H168222   2.332   3.430   1.627  0.2687  0.9961 -0.3919
15577TIP3    H268223   2.462   3.461   1.699  0.7432 -0.1083 -0.7503
15578TIP3   OH268224   3.749   4.893   4.222 -0.3343 -0.4676 -0.4571
15578TIP3    H168225   3.748   4.988   4.238  0.0967 -0.5097 -0.1656
15578TIP3    H268226   3.793   4.857   4.298 -3.9146 -1.2958  1.4173
15579TIP3   OH268227   6.470   0.753   1.249 -0.3883  0.2162  0.1316
15579TIP3    H168228   6.464   0.841   1.287  0.6321  0.1609  0.4522
15579TIP3    H268229   6.487   0.696   1.324  0.7785 -0.0125 -0.2823
15580TIP3   OH268230   1.641   4.121  17.167 -0.0196  0.0189 -0.5519
15580TIP3    H168231   1.712   4.148  17.225  0.7400 -0.6852 -1.1296
15580TIP3    H268232   1.585   4.199  17.161 -0.4434 -0.0696  1.5567
15581TIP3   OH268233   3.151   4.854  10.447  0.1124  0.6094 -0.1645
15581TIP3    H168234   3.170   4.787  10.513  2.5161  1.3450 -0.0218
15581TIP3    H268235   3.187   4.818  10.366  0.0684  1.0994 -0.4007
15582TIP3   OH268236   5.111   1.599   5.717 -0.1129 -0.0512  0.3983
15582TIP3    H168237   5.124   1.640   5.631 -0.0754 -0.0313  0.4134
15582TIP3    H268238   5.171   1.524   5.716 -1.3805 -1.0877 -0.2719
15583TIP3   OH268239   2.065   6.548   1.792 -0.5841 -0.6040 -0.4332
15583TIP3    H168240   2.160   6.549   1.783 -0.1473  3.0482  2.2592
15583TIP3    H268241   2.050   6.497   1.872 -0.8972 -0.9707 -0.7218
15584TIP3   OH268242   0.848   6.146  17.070 -0.1818 -0.0609  0.1440
15584TIP3    H168243   0.925   6.126  17.124  0.3600 -1.1811 -0.9758
15584TIP3    H268244   0.792   6.070  17.079  0.3832 -0.7412 -1.6055
15585TIP3   OH268245   5.162   0.667   4.346 -0.6404 -0.5253  0.0361
15585TIP3    H168246   5.238   0.611   4.361 -0.7413 -0.3648  1.2204
15585TIP3    H268247   5.192   0.732   4.283  0.1272 -0.6172  0.2977
15586TIP3   OH268248   0.826   6.227   0.329 -0.3092  1.2159 -0.5276
15586TIP3    H168249   0.824   6.214   0.234  0.6034 -0.8525 -0.3405
15586TIP3    H268250   0.901   6.174   0.357 -0.7852  1.5106  1.3757
15587TIP3   OH268251   6.128   1.653   1.684  0.2591  0.2063 -0.0572
15587TIP3    H168252   6.218   1.658   1.650 -0.1121  1.0015 -0.9675
15587TIP3    H268253   6.100   1.564   1.663  1.1795 -0.4051  1.1717
15588TIP3   OH268254   5.753   4.374  17.269 -0.1063  0.6225 -0.4302
15588TIP3    H168255   5.804   4.308  17.316 -0.9127  0.3466  0.0669
15588TIP3    H268256   5.794   4.457  17.293 -0.0395  0.4214  0.1585
15589TIP3   OH268257   1.323   1.894   2.280 -0.0290 -0.0229  0.0707
15589TIP3    H168258   1.323   1.798   2.287 -0.4686  0.0839  1.9308
15589TIP3    H268259   1.309   1.911   2.186  0.9270 -1.7663 -0.4276
15590TIP3   OH268260   2.006   1.267   3.028 -0.0882  0.1644 -0.0935
15590TIP3    H168261   1.993   1.217   3.109 -0.4046 -2.9110 -1.8635
15590TIP3    H268262   1.967   1.352   3.046 -5.4206 -2.1466  1.3181
15591TIP3   OH268263   3.078   6.430  12.675  0.4027 -0.3579 -0.5093
15591TIP3    H168264   2.982   6.428  12.676  0.3360  1.0135 -1.4029
15591TIP3    H268265   3.103   6.355  12.621 -0.2246 -0.0685 -1.2193
15592TIP3   OH268266   4.115   5.262   2.326 -0.3092  0.2020 -0.6213
15592TIP3    H168267   4.045   5.286   2.266  1.5910  2.2098 -2.2021
15592TIP3    H268268   4.144   5.176   2.298 -1.7237 -0.3949 -0.3083
15593TIP3   OH268269   2.456   1.486  16.252  0.4322 -0.1037  0.2219
15593TIP3    H168270   2.381   1.545  16.243 -0.1200 -0.6891  0.8414
15593TIP3    H268271   2.531   1.538  16.223 -0.1460  0.6370  0.0047
15594TIP3   OH268272   3.388   3.391   5.646 -0.0299 -0.0846 -0.4253
15594TIP3    H168273   3.401   3.385   5.740  0.8542 -1.6315 -0.6234
15594TIP3    H268274   3.447   3.326   5.609  0.2131  1.0347 -2.1109
15595TIP3   OH268275   2.540   5.274  16.184 -0.7641  0.2208  0.2714
15595TIP3    H168276   2.537   5.207  16.116  0.2963  2.1499 -1.7787
15595TIP3    H268277   2.543   5.225  16.266  2.5700 -2.3743 -1.1704
15596TIP3   OH268278   3.632   4.218   4.957 -0.5487 -0.5904 -0.3025
15596TIP3    H168279   3.676   4.210   4.873 -2.2356  1.2986 -1.4449
15596TIP3    H268280   3.545   4.251   4.936 -0.8302  0.5154  2.2209
15597TIP3   OH268281   4.001   3.162   3.529 -0.2324 -0.4848 -0.0088
15597TIP3    H168282   4.007   3.139   3.621 -2.0327 -0.9472  0.0452
15597TIP3    H268283   4.080   3.212   3.510 -0.5357  0.9158  2.1612
15598TIP3   OH268284   3.250   2.272  13.989  0.4018  0.0768 -0.5621
15598TIP3    H168285   3.285   2.232  13.909  0.6022 -0.7128 -0.0866
15598TIP3    H268286   3.317   2.337  14.014  0.5676 -0.0117 -0.7699
15599TIP3   OH268287   6.632   2.109   5.415 -0.4366 -0.0445 -0.0988
15599TIP3    H168288   6.610   2.179   5.353 -0.5567 -1.0579 -1.2464
15599TIP3    H268289   6.549   2.064   5.430 -0.4817  0.4086  1.1129
15600TIP3   OH268290   3.112   1.663  12.980 -0.2843  0.0793  0.1243
15600TIP3    H168291   3.043   1.716  12.939 -1.7507 -1.6405  0.2252
15600TIP3    H268292   3.164   1.631  12.906 -0.5902  0.0912 -0.1009
15601TIP3   OH268293   4.429   1.272   1.479  0.0218  0.2568  0.0858
15601TIP3    H168294   4.454   1.353   1.524  0.6179  0.0712  0.1036
15601TIP3    H268295   4.356   1.297   1.424 -1.0474  0.3965  1.5069
15602TIP3   OH268296   0.038   0.161  12.253  0.1031  0.8353  0.1189
15602TIP3    H168297  -0.010   0.218  12.193  1.7747  1.1475 -0.9771
15602TIP3    H268298   0.081   0.096  12.197  0.9343  0.5577  1.0394
15603TIP3   OH268299   6.252   4.031  14.043 -0.4408  0.1704  0.2411
15603TIP3    H168300   6.275   3.944  14.011 -0.1103  0.0668  0.7423
15603TIP3    H268301   6.160   4.023  14.069  0.2326 -0.7542  2.5937
15604TIP3   OH268302   2.661   5.817   4.509  0.3746  0.3370 -0.6198
15604TIP3    H168303   2.581   5.782   4.469 -0.1888  1.6381 -0.6898
15604TIP3    H268304   2.638   5.832   4.601  0.6387  0.3778 -0.5600
15605TIP3   OH268305   3.831   4.081   5.380 -0.3339 -0.1472 -0.7406
15605TIP3    H168306   3.747   4.074   5.334 -0.9572  0.0414  0.3363
15605TIP3    H268307   3.807   4.088   5.473  0.9180 -1.5816 -0.2667
15606TIP3   OH268308   4.802   4.044   2.210  0.4679 -0.0877  0.2938
15606TIP3    H168309   4.797   4.100   2.287  0.0794 -1.5146  1.3542
15606TIP3    H268310   4.742   3.971   2.229  2.1689 -1.7372 -0.2676
15607TIP3   OH268311   1.362   5.104   0.071  0.2822  0.8255  0.2831
15607TIP3    H168312   1.313   5.031   0.107 -0.1117 -0.0920 -1.9459
15607TIP3    H268313   1.451   5.092   0.104  0.1824 -0.5775  0.0810
15608TIP3   OH268314   3.814   5.516   2.348  0.4430 -0.4649  0.1545
15608TIP3    H168315   3.889   5.526   2.288  1.5720  0.1649  1.6232
15608TIP3    H268316   3.799   5.603   2.383 -1.1110 -0.5543 -0.2051
15609TIP3   OH268317   5.874   4.063   3.512 -0.0135 -0.5370  0.1753
15609TIP3    H168318   5.837   3.982   3.477  0.4000 -0.7479  0.2260
15609TIP3    H268319   5.798   4.121   3.521 -0.6882 -1.6296  2.1651
15610TIP3   OH268320   0.236   0.633   2.439  0.3415  0.0201  0.2970
15610TIP3    H168321   0.331   0.645   2.448  0.2454  0.4965  0.7119
15610TIP3    H268322   0.224   0.601   2.349  0.8710  0.2097  0.1559
15611TIP3   OH268323   2.121   2.221  15.508  0.0791 -0.0256  0.2406
15611TIP3    H168324   2.181   2.277  15.556 -1.3847  1.2962  0.6137
15611TIP3    H268325   2.086   2.277  15.439  0.7903 -1.3695 -1.2673
15612TIP3   OH268326   6.571   2.834   1.691 -0.1884  0.2799  0.0475
15612TIP3    H168327   6.632   2.760   1.683 -0.9918 -0.2395 -1.8365
15612TIP3    H268328   6.627   2.908   1.717  1.1892 -0.2718 -1.1835
15613TIP3   OH268329   5.434   0.469  11.323 -0.2205  0.5854  0.5610
15613TIP3    H168330   5.432   0.546  11.266  2.0042 -0.4730 -1.1346
15613TIP3    H268331   5.377   0.406  11.279 -1.1442  0.8435  1.3482
15614TIP3   OH268332   5.836   5.436   5.311 -0.1074  0.2729  0.3636
15614TIP3    H168333   5.760   5.408   5.258  0.7590 -0.3462 -0.6022
15614TIP3    H268334   5.902   5.369   5.293  1.1757  1.5897  0.0164
15615TIP3   OH268335   4.344   0.456   3.887  0.1654 -0.1429 -0.1484
15615TIP3    H168336   4.300   0.389   3.939  0.2173  0.5676  0.8371
15615TIP3    H268337   4.297   0.456   3.803 -1.0995 -0.0597  0.5387
15616TIP3   OH268338   3.228   1.261  14.884  0.0108 -0.2031  0.4410
15616TIP3    H168339   3.144   1.268  14.929 -0.1531 -0.2928  0.1496
15616TIP3    H268340   3.290   1.304  14.943 -0.0993 -0.8173  1.0226
15617TIP3   OH268341   0.327   0.556  14.341  0.3457  0.3003 -0.3219
15617TIP3    H168342   0.282   0.590  14.264 -0.0742 -0.6418 -0.5009
15617TIP3    H268343   0.275   0.586  14.415  0.3410  0.5860 -0.4395
15618TIP3   OH268344   0.308   3.136  15.828 -0.1296  0.4290  0.4488
15618TIP3    H168345   0.217   3.135  15.798 -0.4861 -0.8099  1.5130
15618TIP3    H268346   0.317   3.219  15.874 -0.2446  1.2845 -0.9925
15619TIP3   OH268347   5.713   1.798  16.251  0.5591  0.2747  0.0087
15619TIP3    H168348   5.684   1.819  16.339 -0.4215  0.8797 -0.4462
15619TIP3    H268349   5.741   1.882  16.214  0.6381  0.0834 -0.3738
15620TIP3   OH268350   2.397   5.928   2.750 -0.0688 -0.0884  0.1365
15620TIP3    H168351   2.442   5.987   2.689 -0.7642 -0.1187 -0.4136
15620TIP3    H268352   2.468   5.888   2.801  0.4207  1.3444  0.6483
15621TIP3   OH268353   2.283   3.644   6.530 -0.2675  0.7657 -0.1891
15621TIP3    H168354   2.350   3.642   6.462 -0.7948 -1.4838 -0.6992
15621TIP3    H268355   2.214   3.700   6.494  0.0835  0.7691 -0.8744
15622TIP3   OH268356   3.066   1.547   0.719  0.6457 -0.0576 -0.2827
15622TIP3    H168357   3.095   1.472   0.668  1.6198  0.3814 -0.4023
15622TIP3    H268358   3.118   1.543   0.800 -1.9000 -1.5963  1.4288
15623TIP3   OH268359   3.560   1.041  15.924  0.1009 -0.0396  0.2581
15623TIP3    H168360   3.496   0.983  15.964 -0.5644  0.7966  0.4217
15623TIP3    H268361   3.622   1.060  15.994 -1.4307  1.9687  1.1718
15624TIP3   OH268362   0.889   5.007  14.659  0.3268  0.3732  0.2837
15624TIP3    H168363   0.796   4.992  14.675  0.4675 -1.3110 -0.2762
15624TIP3    H268364   0.923   5.040  14.742 -0.5656 -0.0287  0.8214
15625TIP3   OH268365   4.318   4.890   3.866  0.2559 -0.4731 -0.5568
15625TIP3    H168366   4.324   4.863   3.775 -2.6529  0.4072 -1.1013
15625TIP3    H268367   4.283   4.979   3.863  0.0721 -0.4276  1.4247
15626TIP3   OH268368   5.000   0.839  17.132  0.4861  0.2782  0.3926
15626TIP3    H168369   4.987   0.918  17.079 -2.2577  1.1762  2.1579
15626TIP3    H268370   4.919   0.789  17.121  1.0280 -0.8896  1.5013
15627TIP3   OH268371   6.824   5.674   2.563 -0.5209 -0.4467 -0.2906
15627TIP3    H168372   6.851   5.584   2.543  1.7366 -0.6821  3.0415
15627TIP3    H268373   6.745   5.664   2.617 -0.0771 -0.4825  0.3627
15628TIP3   OH268374   0.081   1.771  14.988  0.4032 -0.4807 -0.3919
15628TIP3    H168375   0.078   1.865  15.004 -1.3507 -0.4070 -0.9410
15628TIP3    H268376   0.043   1.732  15.066 -1.8081 -0.4982 -1.3846
15629TIP3   OH268377   0.404   4.635  15.117 -0.2168  0.2677 -0.2825
15629TIP3    H168378   0.400   4.710  15.058  2.7778  0.4992 -0.3537
15629TIP3    H268379   0.437   4.671  15.199 -0.4081 -0.7049  0.2346
15630TIP3   OH268380   6.379   4.472   4.196  0.0004 -0.1885  0.3297
15630TIP3    H168381   6.288   4.448   4.175 -0.1613 -0.9694  1.8018
15630TIP3    H268382   6.420   4.389   4.220  1.7348 -0.2125 -2.2806
15631TIP3   OH268383   0.178   6.498  10.947  0.0183 -0.1546  0.1995
15631TIP3    H168384   0.098   6.452  10.971 -0.0801 -0.1501 -0.1234
15631TIP3    H268385   0.231   6.433  10.901  0.0825 -0.0790  0.1662
15632TIP3   OH268386   3.901   0.857   5.667 -0.2519 -0.0437  0.0192
15632TIP3    H168387   3.847   0.934   5.650 -0.7489 -0.1581  1.0289
15632TIP3    H268388   3.879   0.831   5.756 -0.6743 -1.8283 -0.5672
15633TIP3   OH268389   3.966   0.845  14.693 -0.5001 -0.5486 -0.1311
15633TIP3    H168390   4.054   0.852  14.729 -0.4819  1.4991 -0.4553
15633TIP3    H268391   3.908   0.852  14.769 -0.4003 -1.9261  0.0844
15634TIP3   OH268392   6.586   5.012   6.391 -0.3182  0.2247  0.3014
15634TIP3    H168393   6.600   5.077   6.460 -0.4358 -1.0177  1.5459
15634TIP3    H268394   6.497   5.029   6.359 -0.3820  0.6140  0.6761
15635TIP3   OH268395   1.506   5.900  11.488 -0.4149  0.9592 -0.4598
15635TIP3    H168396   1.566   5.969  11.459  0.8170  0.0810 -0.0699
15635TIP3    H268397   1.534   5.823  11.438 -2.9148  1.0909 -2.2578
15636TIP3   OH268398   1.698   1.439  11.592 -0.0725  0.5035 -0.8993
15636TIP3    H168399   1.752   1.496  11.537  2.3473 -0.3366  0.4307
15636TIP3    H268400   1.712   1.470  11.681 -3.4002  1.4331 -0.5607
15637TIP3   OH268401   4.225   4.645   0.098  0.3094  0.1963 -0.5563
15637TIP3    H168402   4.219   4.603   0.011 -0.6378  1.4539 -1.1286
15637TIP3    H268403   4.252   4.735   0.080  1.4287  0.1109  0.5821
15638TIP3   OH268404   5.684   6.578  11.336  0.2827 -1.1698  0.0341
15638TIP3    H168405   5.658   6.592  11.245 -3.1757  0.4829  1.1224
15638TIP3    H268406   5.748   6.647  11.354 -0.2422 -0.4821 -0.7007
15639TIP3   OH268407   6.485   1.768  16.842 -0.8607  0.3448  0.4046
15639TIP3    H168408   6.484   1.693  16.901 -0.5254 -1.1495 -1.3967
15639TIP3    H268409   6.392   1.783  16.822 -0.8268 -2.1183 -2.1657
15640TIP3   OH268410   2.678   4.844   4.056 -0.7337  0.2116 -0.5138
15640TIP3    H168411   2.765   4.879   4.038 -1.2506  1.3866 -0.7666
15640TIP3    H268412   2.694   4.751   4.077  0.2835 -0.3488 -3.3702
15641TIP3   OH268413   0.376   5.334  14.742 -0.2616 -0.1150  0.1721
15641TIP3    H168414   0.304   5.271  14.743 -0.4776  0.1275  0.1139
15641TIP3    H268415   0.383   5.361  14.651  1.5152 -1.9527 -0.3103
15642TIP3   OH268416   0.078   6.387   5.896  0.3316  0.0307 -0.1565
15642TIP3    H168417   0.047   6.431   5.975  0.7623 -0.8004  0.4927
15642TIP3    H268418   0.146   6.327   5.927 -0.1279 -0.9740 -1.0366
15643TIP3   OH268419   2.036   1.266   1.919  0.1406 -0.4391 -0.3719
15643TIP3    H168420   2.075   1.184   1.946 -0.3330 -0.2533  0.9461
15643TIP3    H268421   2.092   1.334   1.957 -0.5698 -0.1743  0.2364
15644TIP3   OH268422   3.480   6.165   2.185 -0.4399  0.5975 -0.3614
15644TIP3    H168423   3.461   6.076   2.217 -1.5735  0.3874 -1.5329
15644TIP3    H268424   3.575   6.168   2.180 -0.3138 -0.0301  1.1116
15645TIP3   OH268425   3.801   6.626   3.950  0.2778 -0.4240  0.1307
15645TIP3    H168426   3.816   6.721   3.953  0.2269 -0.4451  1.6791
15645TIP3    H268427   3.794   6.606   3.857  1.5529  0.8925 -0.2903
15646TIP3   OH268428   0.754   6.404   6.226  0.7411 -0.0795 -0.0168
15646TIP3    H168429   0.677   6.359   6.261  2.0696 -2.5328 -0.0730
15646TIP3    H268430   0.739   6.496   6.248 -1.8947 -0.5395  0.5102
15647TIP3   OH268431   6.283   5.526  10.893 -0.1958 -0.2991  0.4919
15647TIP3    H168432   6.274   5.621  10.897 -0.4797 -0.3679  2.3800
15647TIP3    H268433   6.263   5.503  10.802 -1.2816  1.3215  0.2923
15648TIP3   OH268434   5.264   3.459   5.867 -0.1921  0.1923  0.6847
15648TIP3    H168435   5.311   3.499   5.795 -0.2674 -1.0403 -0.0758
15648TIP3    H268436   5.330   3.445   5.935  0.5009 -1.1576 -0.2185
15649TIP3   OH268437   3.388   2.189  11.333 -0.1489 -0.7399  0.0123
15649TIP3    H168438   3.308   2.185  11.282 -0.2254  1.9561 -0.2033
15649TIP3    H268439   3.458   2.198  11.268 -0.1213  1.2494  0.2457
15650TIP3   OH268440   1.043   4.339   0.504  0.6774  0.2292 -0.4597
15650TIP3    H168441   1.106   4.368   0.570  0.5998 -2.0696  0.7134
15650TIP3    H268442   0.980   4.285   0.552  0.4205 -1.2557 -2.3386
15651TIP3   OH268443   5.545   3.236  15.073  0.4568  0.0213  0.2795
15651TIP3    H168444   5.473   3.288  15.109  1.7655  1.6253  0.7190
15651TIP3    H268445   5.519   3.218  14.983 -0.3665  0.7939  0.3430
15652TIP3   OH268446   0.307   1.887  16.015 -0.5422 -0.1705 -0.0074
15652TIP3    H168447   0.237   1.947  16.041  0.9719  1.1354  1.3026
15652TIP3    H268448   0.269   1.800  16.022 -2.0368  0.5115  0.6312
15653TIP3   OH268449   2.106   0.322  15.598 -0.3948 -0.2633 -0.5725
15653TIP3    H168450   2.190   0.365  15.608 -0.4181  0.0051 -1.4285
15653TIP3    H268451   2.043   0.381  15.637 -0.1513 -0.6417  0.4207
15654TIP3   OH268452   1.828   3.642   4.282 -0.5557 -0.5982  0.0840
15654TIP3    H168453   1.886   3.575   4.319  1.1677  0.1659 -1.1339
15654TIP3    H268454   1.855   3.723   4.324 -0.6230 -0.2137 -0.5985
15655TIP3   OH268455   2.644   3.946  15.384 -0.0910  0.4571  0.7883
15655TIP3    H168456   2.717   3.937  15.446  0.3296  1.6019  0.4969
15655TIP3    H268457   2.656   4.034  15.347  1.8315 -1.3677 -3.6492
15656TIP3   OH268458   3.903   6.631  16.097 -0.2790  0.2370  0.8866
15656TIP3    H168459   3.854   6.711  16.082  0.4845  0.7413  1.0534
15656TIP3    H268460   3.981   6.639  16.042 -1.4037 -1.5447 -1.1367
15657TIP3   OH268461   0.829   4.454   3.368 -0.2241 -0.3317  0.6554
15657TIP3    H168462   0.810   4.488   3.281  1.9036  1.6552  0.8513
15657TIP3    H268463   0.912   4.408   3.357 -0.2359 -0.5680  1.5284
15658TIP3   OH268464   1.710   3.617   4.619 -0.0807 -0.2633 -0.1057
15658TIP3    H168465   1.697   3.555   4.690  0.9833 -2.0412 -1.3654
15658TIP3    H268466   1.625   3.623   4.576 -0.1359 -1.0632 -0.1170
15659TIP3   OH268467   1.733   5.362  16.588 -0.0165  0.9961 -0.1767
15659TIP3    H168468   1.668   5.297  16.617  0.6404  0.3735 -0.0737
15659TIP3    H268469   1.748   5.417  16.665 -0.6134  1.3057 -0.2788
15660TIP3   OH268470   1.352   1.854   2.839  0.3683  0.1823  0.3320
15660TIP3    H168471   1.375   1.763   2.823  1.1164  0.4060  0.1065
15660TIP3    H268472   1.266   1.865   2.798  0.7725 -0.1263 -0.6033
15661TIP3   OH268473   6.568   1.855  11.197 -0.0946  0.0973  0.1501
15661TIP3    H168474   6.589   1.820  11.110 -0.3505  0.6368 -0.1326
15661TIP3    H268475   6.633   1.815  11.255 -0.4911 -0.9882 -0.1261
15662TIP3   OH268476   5.339   5.415   2.519 -0.2446  0.1284  0.2559
15662TIP3    H168477   5.323   5.502   2.483  0.4635  0.8280  1.5897
15662TIP3    H268478   5.305   5.355   2.452  2.5466  1.2994 -2.4547
15663TIP3   OH268479   4.850   2.237  15.449  0.2634  0.3833 -0.0226
15663TIP3    H168480   4.804   2.304  15.500 -0.0434 -1.0083  1.5931
15663TIP3    H268481   4.858   2.163  15.508 -0.1583 -1.3498 -2.0387
15664TIP3   OH268482   2.514   1.030  10.807  0.6942 -0.2193 -0.0210
15664TIP3    H168483   2.503   1.123  10.829  1.7051  0.1626 -1.0140
15664TIP3    H268484   2.451   1.015  10.737  1.2890  0.0238 -0.6207
15665TIP3   OH268485   2.514   5.706  13.598 -0.1323  0.3203 -0.0548
15665TIP3    H168486   2.513   5.784  13.654  2.7788  0.4628 -0.0409
15665TIP3    H268487   2.484   5.737  13.513  1.1398  1.5576 -0.0960
15666TIP3   OH268488   4.773   0.691  11.439  0.0897  0.0189  1.0062
15666TIP3    H168489   4.752   0.783  11.451  4.0575  1.4649 -1.3235
15666TIP3    H268490   4.862   0.682  11.472  0.3882 -2.6334 -0.2519
15667TIP3   OH268491   3.331   3.905  17.217  0.1265  0.1787  0.3041
15667TIP3    H168492   3.398   3.892  17.284  1.3817 -0.2010 -0.9812
15667TIP3    H268493   3.324   4.000  17.207  1.5261  0.2195 -0.5307
15668TIP3   OH268494   0.585   6.357   3.636 -0.0016  0.6768 -0.0637
15668TIP3    H168495   0.631   6.434   3.669  1.6993 -1.2529  2.4780
15668TIP3    H268496   0.653   6.303   3.597 -1.0333  0.0814 -1.1096
15669TIP3   OH268497   0.995   4.086  15.594  0.3135  0.1712  0.5200
15669TIP3    H168498   0.987   4.180  15.575  2.0905  0.2620  0.0733
15669TIP3    H268499   0.914   4.064  15.640 -0.7126  1.6307 -0.5044
15670TIP3   OH268500   2.685   5.783   2.210 -0.5711 -0.1162  0.0243
15670TIP3    H168501   2.622   5.826   2.268 -0.7683 -2.4726  1.7374
15670TIP3    H268502   2.764   5.775   2.263 -0.4739 -1.5593 -0.2855
15671TIP3   OH268503   4.178   4.585  13.374  0.6139 -0.0710 -0.2328
15671TIP3    H168504   4.184   4.680  13.377  1.4124 -0.1354  1.0930
15671TIP3    H268505   4.098   4.567  13.324  0.0110  1.2961  0.2078
15672TIP3   OH268506   0.318   3.483   1.930  0.2092 -0.4465  0.6679
15672TIP3    H168507   0.317   3.409   1.870 -1.1361  0.4351 -0.4547
15672TIP3    H268508   0.341   3.558   1.875  1.0529  0.0617  1.6834
15673TIP3   OH268509   6.305   6.636   3.117 -0.3231  0.0975 -0.1085
15673TIP3    H168510   6.368   6.608   3.184  0.4470  1.5735 -0.1687
15673TIP3    H268511   6.246   6.562   3.107  0.6591 -0.8553  0.8700
15674TIP3   OH268512   3.158   5.233  15.135 -0.4766  0.0011 -0.3331
15674TIP3    H168513   3.225   5.287  15.091 -1.3173  0.8529 -0.6192
15674TIP3    H268514   3.204   5.192  15.208  0.2683  0.9145 -0.2632
15675TIP3   OH268515   1.163   4.053   5.643 -0.6502  0.1032  0.3848
15675TIP3    H168516   1.228   4.104   5.691  1.5063 -0.9088 -1.2844
15675TIP3    H268517   1.166   3.966   5.684  0.0816 -0.3266 -0.5361
15676TIP3   OH268518   4.362   1.509   6.268  0.6917  0.2420 -0.2154
15676TIP3    H168519   4.435   1.448   6.273  2.0604  1.8478  0.7291
15676TIP3    H268520   4.356   1.547   6.356 -0.8004  0.6884 -0.4779
15677TIP3   OH268521   2.933   3.182  15.941 -0.2327  0.1285  0.0133
15677TIP3    H168522   2.889   3.099  15.923  1.8590 -1.5727  2.1095
15677TIP3    H268523   2.929   3.192  16.036 -0.2448  2.3489 -0.1638
15678TIP3   OH268524   3.692   3.888  15.373 -0.3981  0.1880 -0.1400
15678TIP3    H168525   3.738   3.807  15.395  0.1545  0.2307 -1.0896
15678TIP3    H268526   3.659   3.920  15.457  2.1476  0.6818  0.7586
15679TIP3   OH268527   0.528   4.100   5.915  0.3319  0.0260 -0.0534
15679TIP3    H168528   0.563   4.180   5.956 -0.8928  0.7702 -0.4006
15679TIP3    H268529   0.462   4.068   5.977  0.2512 -0.2618 -0.2839
15680TIP3   OH268530   2.510   3.460  15.443 -0.2403 -0.6937 -0.3968
15680TIP3    H168531   2.559   3.400  15.499  2.1534  0.1433 -1.4309
15680TIP3    H268532   2.512   3.417  15.357 -2.0312 -0.9801 -0.3212
15681TIP3   OH268533   2.877   5.627   4.617 -0.3088 -0.3191  0.0896
15681TIP3    H168534   2.966   5.653   4.595  0.1783 -2.7324 -1.0511
15681TIP3    H268535   2.822   5.676   4.556  0.2931  0.4657  0.1626
15682TIP3   OH268536   5.585   4.481  11.322 -0.3018 -0.2641 -0.3744
15682TIP3    H168537   5.569   4.485  11.416 -0.4239  0.7463 -0.4266
15682TIP3    H268538   5.673   4.446  11.314  0.0771  0.5486  0.1557
15683TIP3   OH268539   3.312   1.134   0.471  0.0948  0.1642 -0.0337
15683TIP3    H168540   3.337   1.176   0.389  0.6598  1.1507  0.6261
15683TIP3    H268541   3.298   1.042   0.448 -0.2618  0.5235 -1.3273
15684TIP3   OH268542   5.911   4.809  13.096 -0.7085 -0.2393  0.0777
15684TIP3    H168543   5.920   4.838  13.187 -3.0624  0.7357  0.0668
15684TIP3    H268544   5.931   4.887  13.044 -1.6983 -0.1111 -0.1355
15685TIP3   OH268545   1.011   0.085   5.220  0.2738  0.7131  0.3621
15685TIP3    H168546   0.998   0.130   5.303  1.6970  1.5101  0.1883
15685TIP3    H268547   0.971   0.143   5.155 -1.5828 -0.3050  0.5325
15686TIP3   OH268548   1.100   1.408  15.778 -0.1979  0.1584  0.6117
15686TIP3    H168549   1.024   1.361  15.811  1.0963 -1.8486  0.9138
15686TIP3    H268550   1.135   1.352  15.708  0.1284  1.7986 -0.6079
15687TIP3   OH268551   3.671   1.692  13.628 -0.4452 -0.5861 -0.6090
15687TIP3    H168552   3.708   1.720  13.544  0.9406  1.7769  0.6791
15687TIP3    H268553   3.740   1.640  13.669  0.2447  1.0720  0.4177
15688TIP3   OH268554   5.647   3.655  13.685  0.2626  0.4045 -0.0842
15688TIP3    H168555   5.680   3.565  13.677  0.6308  0.5309  0.0140
15688TIP3    H268556   5.671   3.697  13.603  0.5198  0.5498  0.0622
15689TIP3   OH268557   1.708   1.506   2.804 -0.3062 -0.3855  0.1083
15689TIP3    H168558   1.728   1.494   2.711  1.2743 -1.2523  0.5167
15689TIP3    H268559   1.673   1.421   2.832 -1.4556  0.0924  0.1613
15690TIP3   OH268560   2.469   2.998   0.838  0.2052  0.2647 -0.2364
15690TIP3    H168561   2.474   2.906   0.814  1.9425  0.1095  0.5631
15690TIP3    H268562   2.515   3.044   0.768  0.9348  0.3184  0.2669
15691TIP3   OH268563   4.091   4.652  11.067  0.2556  1.2301  0.3083
15691TIP3    H168564   4.096   4.661  10.972  1.1401  1.9226  0.4172
15691TIP3    H268565   4.070   4.559  11.081  1.3180  0.8491 -0.5295
15692TIP3   OH268566   5.798   3.316  12.456 -0.1995  0.6873 -0.1570
15692TIP3    H168567   5.892   3.332  12.470  0.3667 -2.9610  1.3570
15692TIP3    H268568   5.763   3.401  12.430  3.3645  2.3883 -0.0159
15693TIP3   OH268569   0.544   4.172   2.369  0.6063  0.5229  0.2496
15693TIP3    H168570   0.550   4.110   2.296 -0.5840 -0.8233  1.2283
15693TIP3    H268571   0.455   4.206   2.365  0.8388  1.1749  0.5144
15694TIP3   OH268572   4.217   6.091  16.524 -0.2155  0.5304 -0.4377
15694TIP3    H168573   4.258   6.060  16.604 -2.2514 -1.5672 -0.1085
15694TIP3    H268574   4.170   6.171  16.550  0.5796  0.8626  0.0137
15695TIP3   OH268575   3.007   0.113  15.484 -0.0750  0.0865 -0.2758
15695TIP3    H168576   2.982   0.022  15.468 -0.1609 -0.1742  1.1975
15695TIP3    H268577   3.097   0.119  15.451  0.2906 -0.8105  0.5244
15696TIP3   OH268578   3.446   0.636  16.954  0.1153 -0.0844 -0.1564
15696TIP3    H168579   3.487   0.668  16.873  0.5608 -0.2603 -0.0082
15696TIP3    H268580   3.411   0.714  16.997 -1.3377 -0.1431 -1.1773
15697TIP3   OH268581   6.022   6.417  11.161 -0.0087  0.2311 -0.6063
15697TIP3    H168582   6.044   6.412  11.068  0.1237  0.7161 -0.6076
15697TIP3    H268583   5.927   6.412  11.164  0.0510 -1.4075 -0.6419
15698TIP3   OH268584   4.609   1.295  11.737 -0.0312  0.1284  0.3448
15698TIP3    H168585   4.564   1.238  11.674  0.6605 -1.4292  1.2445
15698TIP3    H268586   4.697   1.306  11.701  0.3216 -0.6502  0.9709
15699TIP3   OH268587   4.231   3.385  14.688 -0.7569 -0.4812  0.6817
15699TIP3    H168588   4.279   3.414  14.610  0.2595  0.2832  1.5590
15699TIP3    H268589   4.224   3.290  14.679  2.2844 -0.8499  1.2123
15700TIP3   OH268590   3.892   3.095  13.183  0.8844 -0.3870  0.5542
15700TIP3    H168591   3.976   3.050  13.168 -0.0156 -2.0613  0.2694
15700TIP3    H268592   3.854   3.050  13.259  0.8044  1.2338  1.5145
15701TIP3   OH268593   4.639   2.019   2.737  0.3759 -0.0026 -0.3313
15701TIP3    H168594   4.622   1.948   2.798 -1.1267  0.1220 -0.5736
15701TIP3    H268595   4.718   2.061   2.771  0.4551 -0.8885  0.6353
15702TIP3   OH268596   6.349   1.994   2.606  0.2333  0.5300 -0.3043
15702TIP3    H168597   6.260   1.967   2.583 -0.3286  1.3044  0.8943
15702TIP3    H268598   6.374   2.053   2.536  0.0733 -0.1975 -0.9990
15703TIP3   OH268599   1.050   5.931  14.834  0.1150  0.2436  0.0678
15703TIP3    H168600   1.041   5.997  14.766 -2.7449  0.6588  0.7161
15703TIP3    H268601   0.994   5.859  14.805  1.0916 -0.7674  0.6399
15704TIP3   OH268602   4.077   2.246   1.682 -0.2883 -0.1392  0.1634
15704TIP3    H168603   4.031   2.206   1.609  0.7489 -0.8145 -0.1403
15704TIP3    H268604   4.170   2.232   1.662  0.0528  1.1241  0.7888
15705TIP3   OH268605   3.897   4.859  15.534  0.2358  0.6208 -0.1071
15705TIP3    H168606   3.939   4.803  15.469  0.3508  0.9267 -0.3024
15705TIP3    H268607   3.925   4.948  15.510 -0.6837  0.8503 -0.3661
15706TIP3   OH268608   4.293   1.692   3.230 -0.5358  0.5017 -0.0563
15706TIP3    H168609   4.317   1.630   3.161  0.9209  0.2435  0.6496
15706TIP3    H268610   4.284   1.775   3.185 -0.5765  0.1489 -0.7138
15707TIP3   OH268611   1.157   1.587   2.879 -0.1519  1.1567 -0.6756
15707TIP3    H168612   1.119   1.663   2.836  0.5102  2.5257  0.9997
15707TIP3    H268613   1.251   1.604   2.880  0.2962 -0.8160 -2.2613
15708TIP3   OH268614   5.911   6.572   0.561 -0.3460 -0.1149 -0.2059
15708TIP3    H168615   5.989   6.576   0.505  0.7102  0.0597  1.2061
15708TIP3    H268616   5.838   6.589   0.502  0.8107  1.1939 -1.3380
15709TIP3   OH268617   5.558   4.722  12.218 -0.3381 -0.2615 -0.1915
15709TIP3    H168618   5.628   4.718  12.283  1.0261  0.1153 -1.5693
15709TIP3    H268619   5.477   4.719  12.269  0.6668 -0.8279  1.4489
15710TIP3   OH268620   1.070   4.734  14.229  0.5044  0.0418  0.0739
15710TIP3    H168621   1.119   4.673  14.174  0.2081  1.5058 -1.9037
15710TIP3    H268622   1.108   4.724  14.316  1.6123 -1.6927 -0.5654
15711TIP3   OH268623   2.114   4.331  16.625  0.5922 -0.1608 -0.4179
15711TIP3    H168624   2.088   4.276  16.699  1.1095  0.0732 -0.0507
15711TIP3    H268625   2.205   4.355  16.644  0.8293 -0.3512 -1.2880
15712TIP3   OH268626   0.767   0.462   2.190  0.1192  0.6061 -0.0893
15712TIP3    H168627   0.675   0.447   2.170 -0.1332  0.9584  0.7767
15712TIP3    H268628   0.813   0.394   2.141 -0.5877  0.5233 -0.6507
15713TIP3   OH268629   2.386   4.653   5.005  0.3940  0.2561 -0.3244
15713TIP3    H168630   2.440   4.732   5.013 -1.3950  1.3748  1.7342
15713TIP3    H268631   2.324   4.674   4.936  0.6437  0.1729 -0.5780
15714TIP3   OH268632   3.441   3.980  12.942 -0.0968  0.0372 -0.3432
15714TIP3    H168633   3.467   3.889  12.958 -1.8314 -0.0002  2.8763
15714TIP3    H268634   3.524   4.028  12.936  0.8707 -1.1695  2.1288
15715TIP3   OH268635   4.257   5.290   4.302  0.1381  0.5393 -0.5390
15715TIP3    H168636   4.344   5.311   4.268  0.4591  3.3047  1.5602
15715TIP3    H268637   4.265   5.308   4.396 -1.7897 -2.5793  0.3418
15716TIP3   OH268638   3.719   5.827  17.234  0.3399 -0.0044  0.2295
15716TIP3    H168639   3.699   5.814  17.327 -1.4030 -0.1052 -0.1271
15716TIP3    H268640   3.714   5.739  17.196 -0.3425  0.2040 -0.1878
15717TIP3   OH268641   0.910   0.191  15.154  0.1635  0.1066 -0.6277
15717TIP3    H168642   0.957   0.201  15.071  3.1748  0.1385  0.9515
15717TIP3    H268643   0.910   0.279  15.192  0.8485 -0.3109  0.3817
15718TIP3   OH268644   5.919   5.720  16.794  0.0838  0.5675  0.2495
15718TIP3    H168645   5.840   5.725  16.848 -0.6047  0.6089 -0.7351
15718TIP3    H268646   5.940   5.627  16.791 -2.6437 -0.1500 -3.1987
15719TIP3   OH268647   1.600   2.389   5.286 -0.0911 -0.0980  0.0942
15719TIP3    H168648   1.532   2.406   5.221  1.0578 -2.0982 -1.7429
15719TIP3    H268649   1.557   2.335   5.353 -1.0490  1.2257  0.5883
15720TIP3   OH268650   2.097   0.045  14.526 -0.4409 -0.0255 -0.2214
15720TIP3    H168651   2.179   0.032  14.479 -2.1596 -0.8282 -3.2647
15720TIP3    H268652   2.089  -0.031  14.584  1.9248  1.2008  1.9235
15721TIP3   OH268653   5.555   1.992   4.004  0.3180 -0.2023 -0.2529
15721TIP3    H168654   5.596   2.038   3.931  0.7372  2.9152  1.7284
15721TIP3    H268655   5.625   1.939   4.041  1.4015  1.5585  0.3726
15722TIP3   OH268656   0.791   5.696  16.725  0.0075 -0.5532  0.1225
15722TIP3    H168657   0.775   5.790  16.714  0.0695 -0.7191 -1.8787
15722TIP3    H268658   0.705   5.656  16.716  0.0100 -0.7052  0.7617
15723TIP3   OH268659   3.833   3.685  15.490  0.2418  0.2716 -0.2518
15723TIP3    H168660   3.780   3.643  15.557  0.0078 -0.7487 -1.0551
15723TIP3    H268661   3.897   3.737  15.539 -1.9938  2.2747  0.7624
15724TIP3   OH268662   1.244   1.010   3.490 -0.3032  0.2244  0.1711
15724TIP3    H168663   1.179   1.012   3.560 -0.5788  0.9807 -0.0904
15724TIP3    H268664   1.200   0.969   3.416  0.5835 -2.3494  0.9788
15725TIP3   OH268665   1.643   6.100  14.031 -0.1080  0.6272 -0.0482
15725TIP3    H168666   1.732   6.119  14.002  1.0639 -2.2516  1.1967
15725TIP3    H268667   1.652   6.080  14.124 -2.1731  0.7475  0.2393
15726TIP3   OH268668   4.217   0.132   3.540  0.2805 -0.0629 -0.4266
15726TIP3    H168669   4.199   0.116   3.633  1.6083  3.4733  0.5920
15726TIP3    H268670   4.132   0.154   3.503  0.0968  0.9754  0.5718
15727TIP3   OH268671   6.267   1.225  11.637 -0.6279 -0.3884  0.1030
15727TIP3    H168672   6.200   1.271  11.686 -0.8931 -2.1628  1.4842
15727TIP3    H268673   6.251   1.133  11.653  0.2652 -1.0013 -2.0601
15728TIP3   OH268674   6.576   1.373  13.673  0.1259 -0.3667 -0.2482
15728TIP3    H168675   6.629   1.299  13.701  0.3981 -0.1578 -0.2054
15728TIP3    H268676   6.639   1.436  13.637 -0.2844 -0.8732 -1.8979
15729TIP3   OH268677   6.799   1.842  13.463 -0.0182 -0.5433 -0.4318
15729TIP3    H168678   6.769   1.889  13.385 -0.1628  1.1330  0.6025
15729TIP3    H268679   6.887   1.811  13.440 -0.9368 -2.1773 -2.0957
15730TIP3   OH268680   4.922   3.172  11.451  0.3328  0.2541 -0.3254
15730TIP3    H168681   5.000   3.165  11.506  1.1292 -1.3205 -1.5752
15730TIP3    H268682   4.941   3.245  11.392 -0.4140  1.7749  1.1980
15731TIP3   OH268683   4.134   0.857   6.044 -0.1484 -0.2108  0.1450
15731TIP3    H168684   4.078   0.868   6.121  0.5628 -0.1308  0.6605
15731TIP3    H268685   4.073   0.848   5.971 -0.8340  0.9932  0.5394
15732TIP3   OH268686   1.192   4.175   4.037  0.6206 -0.3754 -0.6012
15732TIP3    H168687   1.204   4.247   3.976  1.5102 -0.4904 -0.5810
15732TIP3    H268688   1.115   4.199   4.089  0.6515  0.3417 -0.8838
15733TIP3   OH268689   2.205   0.870   0.174  0.0542  0.3006  0.6527
15733TIP3    H168690   2.295   0.844   0.156  0.4671  1.8119  0.3241
15733TIP3    H268691   2.167   0.885   0.088 -0.4922 -0.2604  0.7939
15734TIP3   OH268692   4.187   3.006  11.351  0.0302  0.1627 -0.1038
15734TIP3    H168693   4.156   2.991  11.262  0.0889  0.6401 -0.2104
15734TIP3    H268694   4.128   2.956  11.407  1.0310 -1.5575 -0.5158
15735TIP3   OH268695   6.293   1.880   2.166 -0.1516 -0.1932 -0.1456
15735TIP3    H168696   6.244   1.843   2.092 -1.8048  0.8264  0.3846
15735TIP3    H268697   6.239   1.859   2.243  0.1200  1.1684  0.4395
15736TIP3   OH268698   0.159   6.212  16.119 -0.1507  0.0688  0.2427
15736TIP3    H168699   0.132   6.278  16.055 -2.2148 -2.0904 -1.2957
15736TIP3    H268700   0.255   6.213  16.115 -0.1905  0.7066 -2.1832
15737TIP3   OH268701   1.687   1.581   5.498  0.2190  0.3179 -0.5518
15737TIP3    H168702   1.725   1.564   5.412 -1.3879  0.0654 -1.2493
15737TIP3    H268703   1.593   1.579   5.483 -0.2473 -3.1013  1.7982
15738TIP3   OH268704   2.487   6.031  11.805 -0.3874 -0.2626  0.0672
15738TIP3    H168705   2.459   6.039  11.896  0.1085 -0.9825  0.2991
15738TIP3    H268706   2.408   6.003  11.757 -0.2769 -1.4923  0.5704
15739TIP3   OH268707   3.709   0.991  13.902 -0.0938 -0.3260  0.3253
15739TIP3    H168708   3.635   1.018  13.957 -0.1909 -1.1404  0.6025
15739TIP3    H268709   3.738   0.908  13.939  0.7132 -0.2095 -0.0297
15740TIP3   OH268710   2.430   1.456   3.635  0.2232  0.0284  0.0515
15740TIP3    H168711   2.413   1.450   3.729 -0.5500  0.5424 -0.0436
15740TIP3    H268712   2.360   1.512   3.601  0.2241 -0.5149 -0.9017
15741TIP3   OH268713   6.344   3.122  13.405  0.1104 -0.6097 -0.0383
15741TIP3    H168714   6.259   3.086  13.382 -0.3085 -0.5887  1.3682
15741TIP3    H268715   6.336   3.145  13.498  1.6268 -0.5496  0.1021
15742TIP3   OH268716   4.363   4.920  16.959  0.3870  0.2753  0.3127
15742TIP3    H168717   4.444   4.953  16.921  1.7485 -0.0259  2.7639
15742TIP3    H268718   4.389   4.841  17.007 -0.9817  1.1614  2.6503
15743TIP3   OH268719   6.796   0.530   3.340  0.3045  0.0847 -0.2446
15743TIP3    H168720   6.874   0.487   3.304 -0.1135 -0.9703  0.0980
15743TIP3    H268721   6.741   0.547   3.264 -0.1956 -1.3619 -0.2303
15744TIP3   OH268722   1.103   2.654  14.983  0.4649 -0.0575  0.0331
15744TIP3    H168723   1.133   2.673  14.894  3.2724 -1.1289  0.6300
15744TIP3    H268724   1.009   2.669  14.981  0.6467  1.2373 -2.7507
15745TIP3   OH268725   3.536   0.408   4.590  0.3970  0.2119 -0.1459
15745TIP3    H168726   3.507   0.480   4.534 -0.3512  0.0626  0.0400
15745TIP3    H268727   3.463   0.391   4.648  0.9606 -0.0103  0.5170
15746TIP3   OH268728   3.178   3.440   2.125  0.2700  0.4735  0.2649
15746TIP3    H168729   3.259   3.408   2.086  0.1803  0.2539  0.2569
15746TIP3    H268730   3.110   3.418   2.061  0.2724  1.1282  0.0319
15747TIP3   OH268731   3.508   5.041  13.604  0.4107 -0.3080  0.3731
15747TIP3    H168732   3.418   5.073  13.618 -0.2161 -2.2919  1.2715
15747TIP3    H268733   3.549   5.108  13.550 -1.9232  0.2124 -0.9304
15748TIP3   OH268734   1.051   4.669  13.205 -0.3551 -0.2755  0.2693
15748TIP3    H168735   1.090   4.586  13.178 -0.1412  0.2533 -1.1331
15748TIP3    H268736   0.974   4.643  13.256  1.1264 -1.3264  2.1107
15749TIP3   OH268737   4.130   4.025   2.584 -0.0591 -0.6512 -0.0911
15749TIP3    H168738   4.216   4.068   2.589  1.2726 -3.2398  0.6336
15749TIP3    H268739   4.100   4.045   2.495  2.3139 -1.4534 -1.1676
15750TIP3   OH268740   0.161   2.476  16.144 -0.1283 -0.0142  0.2443
15750TIP3    H168741   0.208   2.415  16.200 -1.6746 -0.6433  0.9310
15750TIP3    H268742   0.164   2.559  16.192  0.5566  0.0409  0.1141
15751TIP3   OH268743   1.061   1.851  14.530 -0.0078 -0.8123  0.3329
15751TIP3    H168744   1.124   1.869  14.599 -0.9483  1.5287  0.6505
15751TIP3    H268745   0.987   1.909  14.548 -0.5812 -0.6078 -2.2380
15752TIP3   OH268746   5.557   5.775   2.258  0.6862  0.3266  0.1376
15752TIP3    H168747   5.595   5.765   2.171  2.1506  0.7501  0.7056
15752TIP3    H268748   5.619   5.732   2.316 -0.7157 -0.7564  0.9185
15753TIP3   OH268749   0.561   1.900  15.640  0.2662 -0.1368 -0.1489
15753TIP3    H168750   0.555   1.930  15.549  1.1338  0.3241 -0.0600
15753TIP3    H268751   0.485   1.939  15.683 -0.9144 -1.4312 -0.9535
15754TIP3   OH268752   4.586   2.737   5.038  0.4294  0.4190 -0.1869
15754TIP3    H168753   4.518   2.673   5.015 -0.1246  1.3701 -1.2779
15754TIP3    H268754   4.541   2.821   5.033  1.2250  0.9303  0.9464
15755TIP3   OH268755   3.129   4.743   2.618 -0.0135  0.4121  0.3460
15755TIP3    H168756   3.167   4.666   2.576  1.2581  1.8123 -1.2352
15755TIP3    H268757   3.192   4.814   2.600 -2.0315  2.2369  0.0531
15756TIP3   OH268758   5.236   3.884  12.958 -0.0730 -0.5306  0.3400
15756TIP3    H168759   5.192   3.800  12.946  0.2024 -0.5986 -0.2125
15756TIP3    H268760   5.327   3.860  12.977 -0.0189 -0.3606  0.2936
15757TIP3   OH268761   4.729   5.893   3.201 -0.3206  0.1047  0.0844
15757TIP3    H168762   4.745   5.976   3.247  3.0346 -0.4249  0.1554
15757TIP3    H268763   4.642   5.903   3.163  0.1608  3.9753 -0.4541
15758TIP3   OH268764   3.264   4.560   2.933 -0.5152 -0.5880  0.2821
15758TIP3    H168765   3.290   4.580   3.024 -2.1698 -1.7304  1.0581
15758TIP3    H268766   3.178   4.600   2.924 -0.3124 -0.3811 -0.8513
15759TIP3   OH268767   3.622   2.687  16.731 -0.0200  0.0562  0.3466
15759TIP3    H168768   3.652   2.608  16.685 -1.0685 -1.1801  1.6872
15759TIP3    H268769   3.691   2.705  16.795  0.9005  1.1220 -0.8742
15760TIP3   OH268770   3.980   3.729  16.653  0.3963 -0.0413 -0.4697
15760TIP3    H168771   3.977   3.797  16.720  1.6050 -0.8255  0.4266
15760TIP3    H268772   3.919   3.662  16.684  1.5444 -0.7664  0.2999
15761TIP3   OH268773   4.448   0.097   3.185 -0.0880 -0.3079  0.2434
15761TIP3    H168774   4.453   0.014   3.233  1.0969 -0.4657 -0.1273
15761TIP3    H268775   4.432   0.071   3.094  1.1336 -0.1829 -0.0159
15762TIP3   OH268776   6.382   4.195  15.662  0.1871 -0.5238  0.1664
15762TIP3    H168777   6.392   4.100  15.664  2.6439 -0.3107  0.6963
15762TIP3    H268778   6.466   4.228  15.632  0.2911  1.5784  2.3919
15763TIP3   OH268779   5.512   0.755  12.080 -0.1590  0.4324 -0.4291
15763TIP3    H168780   5.512   0.731  12.173 -0.2165 -2.7970 -1.1497
15763TIP3    H268781   5.419   0.759  12.056 -0.1445  1.2701 -0.3729
15764TIP3   OH268782   1.332   3.431   4.126 -0.3321 -0.3701  0.3483
15764TIP3    H168783   1.349   3.504   4.066  0.2890 -3.3868 -3.5314
15764TIP3    H268784   1.398   3.440   4.193  1.0463  1.5139 -1.1413
15765TIP3   OH268785   5.763   3.961   5.361 -0.3610  0.0114  0.2102
15765TIP3    H168786   5.732   3.987   5.275 -2.2104  1.0080  1.1221
15765TIP3    H268787   5.687   3.921   5.403  1.0643 -2.4672  0.6622
15766TIP3   OH268788   0.500   0.610   5.677 -0.1159 -0.1583 -0.0534
15766TIP3    H168789   0.540   0.538   5.725 -0.5872 -0.6111 -0.3286
15766TIP3    H268790   0.566   0.679   5.678  0.3880 -0.6338  0.1084
15767TIP3   OH268791   6.241   0.006  16.013  0.6090 -0.2435 -0.0948
15767TIP3    H168792   6.223   0.076  15.951 -0.9882  0.5776  1.2230
15767TIP3    H268793   6.304  -0.051  15.968  1.0232  1.3710 -1.6562
15768TIP3   OH268794   1.857   6.160  11.891  0.4928  0.1031 -0.2937
15768TIP3    H168795   1.817   6.245  11.907  1.5346  0.4566  0.5952
15768TIP3    H268796   1.805   6.098  11.943 -0.9984 -0.0330 -1.8680
15769TIP3   OH268797   4.800   0.331   1.346  0.5824  0.9001  0.2778
15769TIP3    H168798   4.850   0.405   1.380  0.4567  0.2188  2.0014
15769TIP3    H268799   4.718   0.370   1.315  0.9603  1.6128  0.1504
15770TIP3   OH268800   1.856   0.505   4.583 -0.1619 -0.1327 -0.3044
15770TIP3    H168801   1.805   0.424   4.591 -2.4420  1.3920  4.6313
15770TIP3    H268802   1.803   0.561   4.527 -1.4467 -0.2732  0.7225
15771TIP3   OH268803   3.080   0.796  11.212  0.7302  0.3359  0.3627
15771TIP3    H168804   3.026   0.821  11.287  1.1177  1.1022  0.3951
15771TIP3    H268805   3.158   0.757  11.251  0.5387 -0.0946  0.3287
15772TIP3   OH268806   0.186   5.200  10.327  0.2010 -0.1309  0.3134
15772TIP3    H168807   0.224   5.156  10.403  1.6281 -0.5847 -0.6417
15772TIP3    H268808   0.226   5.158  10.251  0.1504  1.5042 -0.6698
15773TIP3   OH268809   6.085   6.058   3.226 -0.3709  0.3089 -0.5209
15773TIP3    H168810   6.091   6.085   3.134  1.4668  0.4503 -0.3923
15773TIP3    H268811   6.106   6.137   3.275 -0.3825 -0.0133  0.0053
15774TIP3   OH268812   6.158   6.230   1.947  0.2163 -0.1998 -0.0722
15774TIP3    H168813   6.088   6.292   1.928 -0.2709 -1.1760 -1.6613
15774TIP3    H268814   6.239   6.279   1.931 -0.0418  1.0401  2.1203
15775TIP3   OH268815   1.772   1.983   2.937  0.3086  0.6984  0.1302
15775TIP3    H168816   1.691   2.009   2.983 -0.0893  0.6536 -0.5362
15775TIP3    H268817   1.743   1.961   2.849  0.9196 -0.2556  0.1590
15776TIP3   OH268818   5.326   4.623  13.126  0.2529  0.1748  0.1407
15776TIP3    H168819   5.276   4.544  13.143 -0.6971  0.8637  0.6183
15776TIP3    H268820   5.332   4.628  13.031 -3.0857  1.5544 -0.1349
15777TIP3   OH268821   1.016   1.168   4.539  0.2849 -0.0846  0.4431
15777TIP3    H168822   1.024   1.220   4.618 -1.0312 -0.5787  0.9166
15777TIP3    H268823   1.013   1.232   4.468 -0.5576  0.4482  0.9522
15778TIP3   OH268824   4.396   5.822  15.040  0.0314 -0.4083 -0.8889
15778TIP3    H168825   4.354   5.782  15.115  0.6510 -1.3996 -1.0525
15778TIP3    H268826   4.487   5.791  15.044  0.1911 -0.0849 -1.7677
15779TIP3   OH268827   3.157   6.623  15.480 -1.1956  0.1982  0.1655
15779TIP3    H168828   3.195   6.675  15.409 -0.9219 -0.2131  0.0093
15779TIP3    H268829   3.065   6.615  15.457 -0.7510 -1.6154 -1.2010
15780TIP3   OH268830   2.626   4.405  13.433  0.0350 -0.2441 -0.2437
15780TIP3    H168831   2.700   4.431  13.378 -0.9424 -0.4658 -1.7465
15780TIP3    H268832   2.665   4.376  13.515  1.5371  0.4851 -0.6777
15781TIP3   OH268833   4.367   0.611  12.954  0.5161 -0.2020 -0.1009
15781TIP3    H168834   4.421   0.605  13.034  0.2744 -0.2165  0.0597
15781TIP3    H268835   4.329   0.524  12.944  0.0274 -0.0124  0.1289
15782TIP3   OH268836   3.569   5.219  16.241 -0.2454 -0.1550  0.1893
15782TIP3    H168837   3.488   5.262  16.267  0.0357  0.6211 -0.1769
15782TIP3    H268838   3.594   5.166  16.316  1.2142  2.9632  2.1149
15783TIP3   OH268839   2.815   4.399   0.373 -0.6235  0.5276 -0.1424
15783TIP3    H168840   2.881   4.436   0.432 -0.5580 -0.5706  0.5109
15783TIP3    H268841   2.855   4.402   0.286  0.3955 -0.2920  0.2685
15784TIP3   OH268842   6.325   1.747  13.475 -0.7464 -0.0200  0.2406
15784TIP3    H168843   6.390   1.696  13.427 -1.6684 -0.4344 -0.5965
15784TIP3    H268844   6.351   1.838  13.459  0.5120 -0.1846  1.1896
15785TIP3   OH268845   1.943   3.532  14.339 -0.1001  0.1083 -0.5508
15785TIP3    H168846   2.003   3.596  14.378 -0.0781  0.5095 -1.2369
15785TIP3    H268847   1.861   3.546  14.386  0.5719 -1.1414  1.1216
15786TIP3   OH268848   3.338   4.879   2.503  0.2912 -0.2119  0.1521
15786TIP3    H168849   3.402   4.821   2.462  1.0649  0.6012  0.1686
15786TIP3    H268850   3.391   4.947   2.546 -0.5470  2.0430 -2.0914
15787TIP3   OH268851   4.316   2.477   1.614 -0.1742  0.1060  0.3261
15787TIP3    H168852   4.234   2.503   1.656 -0.8294 -1.0697 -0.1712
15787TIP3    H268853   4.372   2.554   1.621 -1.8179  1.4719 -0.6294
15788TIP3   OH268854   2.384   2.031   5.406 -0.0557  0.9387  0.5200
15788TIP3    H168855   2.436   2.111   5.408 -0.4634  1.2479 -0.5128
15788TIP3    H268856   2.302   2.057   5.362 -0.7620  0.2817  1.4042
15789TIP3   OH268857   6.649   4.521   6.213  0.0205 -0.0243  0.3425
15789TIP3    H168858   6.643   4.493   6.304 -0.7976  0.5207  0.4697
15789TIP3    H268859   6.618   4.611   6.213 -1.0382 -0.3454 -0.6180
15790TIP3   OH268860   4.437   1.841  15.564  0.0175 -0.1885  0.6484
15790TIP3    H168861   4.391   1.921  15.537  0.7661 -0.5004 -1.8515
15790TIP3    H268862   4.530   1.861  15.550  0.3254 -0.9859  1.4801
15791TIP3   OH268863   1.892   0.870  15.242 -0.2389  0.0718  0.3203
15791TIP3    H168864   1.923   0.883  15.152  1.1902 -0.8437  0.6543
15791TIP3    H268865   1.798   0.885  15.237  0.0659  2.0609 -0.9327
15792TIP3   OH268866   4.134   6.686   4.733  0.0819  0.0337  0.1982
15792TIP3    H168867   4.089   6.696   4.649  0.0304 -2.2550 -0.1166
15792TIP3    H268868   4.063   6.681   4.797 -0.0745 -1.5474 -0.0580
15793TIP3   OH268869   5.482   5.517  15.663  0.0422  0.3145  0.3147
15793TIP3    H168870   5.522   5.518  15.576 -0.5365 -2.4897 -0.0862
15793TIP3    H268871   5.554   5.539  15.722  1.1635 -0.4100 -0.7039
15794TIP3   OH268872   1.234   4.385  17.205 -0.6517  0.2566  0.4790
15794TIP3    H168873   1.184   4.466  17.214 -1.3227 -0.1668  0.6187
15794TIP3    H268874   1.204   4.330  17.277  1.0537  0.5161  1.4215
15795TIP3   OH268875   0.558   1.837  12.840  0.4508 -0.1113  0.1347
15795TIP3    H168876   0.584   1.821  12.749 -0.8856 -1.6803  0.0037
15795TIP3    H268877   0.629   1.891  12.875  1.2538  0.0877 -1.6782
15796TIP3   OH268878   1.881   1.395  14.487 -0.7496 -0.7374  0.2092
15796TIP3    H168879   1.807   1.436  14.533 -0.7079 -0.7718  0.3077
15796TIP3    H268880   1.909   1.461  14.424  0.7495  0.3210  1.8751
15797TIP3   OH268881   6.472   3.620  16.608  0.2663 -0.2301  0.1592
15797TIP3    H168882   6.465   3.569  16.528  0.2067  0.7602 -0.4853
15797TIP3    H268883   6.433   3.565  16.676 -0.6001 -0.6653 -0.6773
15798TIP3   OH268884   2.421   2.100   0.024 -0.6134  0.0837  0.1071
15798TIP3    H168885   2.394   2.180  -0.021  0.2675 -0.7418 -2.0482
15798TIP3    H268886   2.399   2.030  -0.038 -0.2363 -1.2427  1.4122
15799TIP3   OH268887   1.133   2.121  12.379 -0.2276 -0.2056  0.2727
15799TIP3    H168888   1.079   2.094  12.305 -0.6623  0.3869  0.3697
15799TIP3    H268889   1.120   2.215  12.386  1.5459  0.1213 -0.2781
15800TIP3   OH268890   1.141   0.390   6.363 -0.1618 -1.1746 -0.0851
15800TIP3    H168891   1.145   0.313   6.306  1.9970 -1.1902  0.0004
15800TIP3    H268892   1.194   0.365   6.439 -0.2841  0.0304  0.4175
15801TIP3   OH268893   5.978   6.787   2.649 -0.0576 -1.0654 -0.0485
15801TIP3    H168894   5.940   6.846   2.715 -0.6541 -0.7717 -0.6488
15801TIP3    H268895   6.071   6.786   2.670 -0.1715 -0.6114  0.5250
15802TIP3   OH268896   0.878   4.324  13.877  0.1063  0.4315  0.1672
15802TIP3    H168897   0.913   4.380  13.946  2.1247  0.2032 -0.5859
15802TIP3    H268898   0.947   4.260  13.861 -1.0405 -0.6086 -0.8556
15803TIP3   OH268899   2.131   6.474   6.623  0.1031 -0.5386  0.0262
15803TIP3    H168900   2.189   6.491   6.549  1.3604 -0.1666  1.0605
15803TIP3    H268901   2.188   6.473   6.699 -1.1118 -1.2503  0.9750
15804TIP3   OH268902   5.053   4.114   2.450 -0.2030 -0.0908 -0.1627
15804TIP3    H168903   5.128   4.172   2.462  1.6394 -2.1880 -1.0017
15804TIP3    H268904   5.023   4.096   2.539  0.6897  0.2683  0.2275
15805TIP3   OH268905   3.721   4.322  11.119  0.4338 -0.1978 -0.3989
15805TIP3    H168906   3.812   4.296  11.103  0.2143 -1.6036  0.5161
15805TIP3    H268907   3.669   4.268  11.060  0.1167 -0.3188 -0.0178
15806TIP3   OH268908   4.362   0.926  16.676  0.1215 -0.1752  0.2614
15806TIP3    H168909   4.367   0.973  16.760  1.9175  0.1002  0.0393
15806TIP3    H268910   4.361   0.996  16.610  0.4953 -0.4152  0.0006
15807TIP3   OH268911   5.971   5.517   4.473  0.2277 -0.1379 -0.3579
15807TIP3    H168912   6.038   5.541   4.408  0.7885 -1.5875 -0.3490
15807TIP3    H268913   5.936   5.434   4.442 -0.0017 -0.4984  0.8219
15808TIP3   OH268914   4.458   4.069   2.875 -0.8417  0.1484  0.2927
15808TIP3    H168915   4.378   4.026   2.906 -0.5610 -1.4402 -1.0581
15808TIP3    H268916   4.428   4.153   2.841 -1.8686 -0.1900  0.3270
15809TIP3   OH268917   6.011   4.968  10.775 -0.6631  0.0162 -0.0558
15809TIP3    H168918   5.946   4.957  10.845 -1.0164 -0.2387 -0.4142
15809TIP3    H268919   5.981   5.044  10.727 -3.0244 -2.2987 -2.6297
15810TIP3   OH268920   6.040   4.704  15.384 -0.4125  0.1660 -0.2358
15810TIP3    H168921   6.037   4.800  15.383 -4.4355  0.2209  1.5502
15810TIP3    H268922   5.983   4.678  15.312  0.4076 -0.9613 -0.5067
15811TIP3   OH268923   4.245   6.756   5.224 -0.3983 -0.7305  0.6393
15811TIP3    H168924   4.305   6.692   5.263  2.4811  1.1262 -0.4668
15811TIP3    H268925   4.257   6.745   5.130 -1.6862 -0.1508  0.3877
15812TIP3   OH268926   2.213   5.507  17.028 -0.1100  0.0763 -0.0999
15812TIP3    H168927   2.213   5.519  16.933 -0.8385  0.0612 -0.1041
15812TIP3    H268928   2.263   5.581  17.061  1.4040 -0.6926 -0.5791
15813TIP3   OH268929   4.772   1.257  14.570  0.1735  0.3798 -0.3712
15813TIP3    H168930   4.807   1.180  14.524  0.8281  0.2229  0.3795
15813TIP3    H268931   4.805   1.249  14.659  2.4938  2.9116 -0.8836
15814TIP3   OH268932   4.985   1.884  14.506 -0.0800  0.8235  0.3115
15814TIP3    H168933   5.063   1.939  14.506 -0.4751  1.3830 -0.0575
15814TIP3    H268934   4.993   1.833  14.587  0.5868  0.9871  0.3570
15815TIP3   OH268935   3.714   0.714   5.167 -0.4444 -0.8197  0.3486
15815TIP3    H168936   3.710   0.623   5.136  1.0673 -0.5310 -0.7898
15815TIP3    H268937   3.763   0.709   5.249  0.2499 -0.9720 -0.0650
15816TIP3   OH268938   6.499   1.885  14.551 -0.2697 -0.4377 -0.3006
15816TIP3    H168939   6.408   1.914  14.553 -0.4968 -1.0036 -1.5868
15816TIP3    H268940   6.545   1.949  14.605 -1.3661  0.0730  0.0584
15817TIP3   OH268941   0.371   6.751  11.379 -0.2464 -0.2370 -0.2528
15817TIP3    H168942   0.457   6.793  11.384 -0.9732  1.3138 -0.2360
15817TIP3    H268943   0.380   6.687  11.309  0.5901  0.7749 -1.1179
15818TIP3   OH268944   1.331   3.094   0.542  0.1098  0.0250  0.2082
15818TIP3    H168945   1.369   3.008   0.565 -1.2235 -0.9411 -1.0094
15818TIP3    H268946   1.282   3.120   0.620  0.4882 -0.3347  0.5753
15819TIP3   OH268947   3.884   4.704  13.180 -0.3795  0.8002  0.1457
15819TIP3    H168948   3.805   4.691  13.233  0.3689  0.6365  1.2500
15819TIP3    H268949   3.926   4.780  13.218  0.6525  0.1150  0.4149
15820TIP3   OH268950   0.339   0.892  16.485  0.1810 -0.2073  0.5514
15820TIP3    H168951   0.336   0.962  16.550 -1.3007 -0.3778  0.7093
15820TIP3    H268952   0.395   0.825  16.523  0.0533  0.0780  1.2526
15821TIP3   OH268953   1.737   4.383   2.173 -0.3214  0.3225 -0.4240
15821TIP3    H168954   1.823   4.406   2.208 -1.6002  1.6987  2.1331
15821TIP3    H268955   1.756   4.326   2.098  2.8458  2.5847 -1.5740
15822TIP3   OH268956   3.238   4.874  11.168 -0.4574  0.4007 -0.0173
15822TIP3    H168957   3.254   4.883  11.074  0.3145  0.0192  0.0751
15822TIP3    H268958   3.257   4.783  11.187  0.9995  0.8597  0.8161
15823TIP3   OH268959   2.261   3.160  15.346 -0.4535 -0.0745 -0.3197
15823TIP3    H168960   2.355   3.163  15.327 -1.0145  0.7140 -3.6569
15823TIP3    H268961   2.241   3.246  15.383  0.0745 -0.1333  0.1069
15824TIP3   OH268962   2.975   2.185   0.610  0.3936 -0.1059  0.4859
15824TIP3    H168963   2.918   2.191   0.687  0.2457  2.1441  0.2794
15824TIP3    H268964   2.915   2.167   0.538  0.2877 -0.3585  0.6350
15825TIP3   OH268965   4.148   4.278   0.267  0.2818  0.1758  0.4991
15825TIP3    H168966   4.063   4.320   0.252  0.0845 -0.5715 -0.5792
15825TIP3    H268967   4.136   4.187   0.239  1.6630  0.2644 -0.5144
15826TIP3   OH268968   1.431   0.905  12.064 -0.7049 -0.2354 -0.2530
15826TIP3    H168969   1.446   0.975  12.127  0.2051  0.6532 -1.3820
15826TIP3    H268970   1.518   0.868  12.049 -0.5735  0.7340 -2.2227
15827TIP3   OH268971   5.006   1.601   2.073  0.0243  1.0040 -0.4965
15827TIP3    H168972   4.946   1.637   2.139  1.1084  0.2618  0.9162
15827TIP3    H268973   4.995   1.506   2.079  0.2924  0.9188 -1.2469
15828TIP3   OH268974   6.197   0.879   6.227 -0.4081  0.1750 -0.3032
15828TIP3    H168975   6.219   0.954   6.281 -1.6465  0.7347 -0.5495
15828TIP3    H268976   6.221   0.803   6.280  0.7736  0.7281 -0.0174
15829TIP3   OH268977   0.958   6.740  15.072  0.7394 -0.2051  0.0707
15829TIP3    H168978   1.042   6.706  15.104  0.8557  0.7206  0.7727
15829TIP3    H268979   0.966   6.835  15.080 -0.0088 -0.0552 -0.8013
15830TIP3   OH268980   4.049   0.232   5.244  0.0080  0.0284  0.0598
15830TIP3    H168981   3.982   0.230   5.176  0.6377 -0.8541 -0.5714
15830TIP3    H268982   4.055   0.324   5.270 -0.2221  0.3930 -1.1140
15831TIP3   OH268983   2.336   3.203  13.912 -0.1719 -0.3184  0.0100
15831TIP3    H168984   2.399   3.274  13.925  1.0342 -1.0687 -1.3546
15831TIP3    H268985   2.390   3.129  13.884 -1.1564 -2.3246  2.8795
15832TIP3   OH268986   0.448   5.882   0.363 -0.5264 -0.4856  0.4132
15832TIP3    H168987   0.467   5.976   0.360  0.9110 -0.7495  0.6231
15832TIP3    H268988   0.428   5.859   0.272 -1.6541  0.1494  0.4780
15833TIP3   OH268989   4.721   4.358  11.801 -0.5542  0.1010 -0.0687
15833TIP3    H168990   4.763   4.300  11.865  1.3775 -0.0907 -1.4154
15833TIP3    H268991   4.725   4.444  11.841  1.5489  0.1575 -0.2637
15834TIP3   OH268992   1.877   0.989   1.406 -0.8217 -0.0593  0.1621
15834TIP3    H168993   1.857   0.899   1.380  1.2455 -0.6706  0.5263
15834TIP3    H268994   1.950   1.015   1.349  0.9810  0.0839  2.4065
15835TIP3   OH268995   4.056   4.454  10.552 -0.5500 -0.0890  0.5127
15835TIP3    H168996   4.029   4.545  10.546  1.0319  0.3386 -0.6313
15835TIP3    H268997   4.034   4.417  10.467  2.2142  0.2491 -0.4307
15836TIP3   OH268998   1.351   0.988   0.587  0.3925 -0.0560 -0.0992
15836TIP3    H168999   1.299   0.920   0.544 -1.2224  1.0483  0.0145
15836TIP3    H269000   1.287   1.051   0.620  1.7863  1.1155  0.5282
15837TIP3   OH269001   3.106   5.641  10.991  0.0371 -0.0701  0.5534
15837TIP3    H169002   3.177   5.704  10.981  1.0567 -1.2022  0.4837
15837TIP3    H269003   3.134   5.585  11.064 -0.5676 -0.8054  0.2334
15838TIP3   OH269004   6.370   1.076   0.006 -0.1535 -0.1079  0.2601
15838TIP3    H169005   6.415   1.016  -0.054 -1.1848  0.4216 -1.0894
15838TIP3    H269006   6.441   1.119   0.054  0.7221 -0.3816 -0.7480
15839TIP3   OH269007   4.942   6.065   3.645 -0.3210 -0.4367  0.8819
15839TIP3    H169008   4.892   6.022   3.714  0.6108 -0.7508  1.3686
15839TIP3    H269009   4.946   6.157   3.672 -1.2864 -0.2538  0.4446
15840TIP3   OH269010   3.098   5.333  13.221 -0.0040  0.1257 -0.1448
15840TIP3    H169011   3.046   5.258  13.249  0.9505 -0.2489  0.6991
15840TIP3    H269012   3.097   5.392  13.296 -2.0187  1.7335 -1.3084
15841TIP3   OH269013   3.544   0.998   0.748  0.0250  0.4682  0.5791
15841TIP3    H169014   3.489   1.073   0.770 -0.1013 -0.1641  2.6666
15841TIP3    H269015   3.518   0.931   0.811 -1.0744 -1.9873 -2.2131
15842TIP3   OH269016   3.736   5.730  16.646 -0.3191  0.3956  0.2699
15842TIP3    H169017   3.739   5.669  16.719  0.7507  0.6973  0.5013
15842TIP3    H269018   3.741   5.675  16.568  0.2594  0.1595  0.4698
15843TIP3   OH269019   3.039   1.826  16.325  0.4870 -0.3021  0.2909
15843TIP3    H169020   3.054   1.762  16.255  1.0886  0.0347  0.1024
15843TIP3    H269021   3.053   1.911  16.282  0.3465 -0.0720  0.6981
15844TIP3   OH269022   1.823   2.690   3.450 -0.2034  0.0974  0.1977
15844TIP3    H169023   1.890   2.657   3.510  1.4339 -0.0965 -1.6380
15844TIP3    H269024   1.872   2.741   3.386 -1.7539 -0.5024 -1.5338
15845TIP3   OH269025   2.453   5.226  13.870 -0.0784  0.3907 -0.1849
15845TIP3    H169026   2.393   5.300  13.861  0.1947  0.8160  1.2810
15845TIP3    H269027   2.406   5.164  13.926  0.3926  0.2273  0.0298
15846TIP3   OH269028   2.591   0.795   4.836  0.4443 -0.0026 -0.1721
15846TIP3    H169029   2.627   0.708   4.817  0.0932 -0.2990  0.4959
15846TIP3    H269030   2.606   0.808   4.929  1.9660  1.3572 -0.5735
15847TIP3   OH269031   3.025   4.509   3.357 -0.1355 -0.4128  0.3591
15847TIP3    H169032   3.006   4.415   3.356  1.2662 -0.7389 -1.3879
15847TIP3    H269033   3.031   4.533   3.264  1.8105  0.8847  0.7581
15848TIP3   OH269034   6.341   3.891  14.278 -0.8587  0.4060  0.3108
15848TIP3    H169035   6.268   3.867  14.221 -1.0284  1.4253  0.0852
15848TIP3    H269036   6.418   3.854  14.235 -0.6021  3.3608 -2.0639
15849TIP3   OH269037   2.045   6.128  15.179 -0.2774  0.0883 -0.2714
15849TIP3    H169038   1.994   6.076  15.117 -0.6219  1.5233 -1.2301
15849TIP3    H269039   1.998   6.211  15.186 -0.2613 -0.0116  1.9382
15850TIP3   OH269040   5.329   3.588  12.867 -0.0810 -0.0557  0.0241
15850TIP3    H169041   5.331   3.548  12.954  1.6956  1.3353  0.6950
15850TIP3    H269042   5.236   3.602  12.849 -0.6495 -2.7309  0.5091
15851TIP3   OH269043   0.886   3.146   5.214 -1.0036 -0.2839 -0.2824
15851TIP3    H169044   0.851   3.191   5.291  0.0152  0.9739 -0.5256
15851TIP3    H269045   0.979   3.133   5.233 -0.6817  0.2698 -1.3853
15852TIP3   OH269046   3.189   4.342   0.290  0.2279  0.6344  0.3798
15852TIP3    H169047   3.108   4.344   0.239  0.2421  0.2599  0.3389
15852TIP3    H269048   3.162   4.315   0.378  0.2036  1.2795  0.5739
15853TIP3   OH269049   4.922   5.530  11.362  0.6668 -0.3808 -0.0138
15853TIP3    H169050   4.855   5.485  11.414  0.8256  0.6855  1.1638
15853TIP3    H269051   4.940   5.470  11.289 -1.1569 -0.9387 -0.0606
15854TIP3   OH269052   4.995   2.363   5.248  0.5718 -0.2400  0.0347
15854TIP3    H169053   5.017   2.305   5.175 -0.7557 -0.1172 -0.5037
15854TIP3    H269054   4.904   2.390   5.231  1.2495  2.3528  0.0243
15855TIP3   OH269055   3.604   3.746   0.733 -0.7774 -0.0759  0.1691
15855TIP3    H169056   3.659   3.723   0.658 -0.4310  0.5147  0.2356
15855TIP3    H269057   3.624   3.679   0.799  0.8567  0.8395  0.6782
15856TIP3   OH269058   4.093   0.125  17.126  0.3824 -0.4424 -0.1973
15856TIP3    H169059   4.103   0.213  17.163 -3.7143  0.6755 -1.2458
15856TIP3    H269060   4.121   0.134  17.035 -1.8496  0.4461 -0.8658
15857TIP3   OH269061   6.403   6.392  14.640 -0.0418 -0.6500 -0.4042
15857TIP3    H169062   6.368   6.440  14.565 -0.2393 -1.2256 -0.6777
15857TIP3    H269063   6.334   6.396  14.706 -0.0010 -0.4362 -0.3739
15858TIP3   OH269064   4.570   0.814  16.006 -0.1152 -0.0106 -0.5556
15858TIP3    H169065   4.598   0.733  15.964  1.1997 -0.1699  0.5246
15858TIP3    H269066   4.645   0.839  16.060 -0.5825  1.8156 -0.7069
15859TIP3   OH269067   5.318   1.662  11.127 -0.0900 -0.3157 -0.0332
15859TIP3    H169068   5.386   1.600  11.099  1.1338  0.9768 -0.0634
15859TIP3    H269069   5.285   1.626  11.209  0.2185 -1.2634 -0.3058
15860TIP3   OH269070   4.698   1.459  10.927  0.1645 -0.3892 -0.1027
15860TIP3    H169071   4.762   1.530  10.923  0.7023 -0.9050 -0.9825
15860TIP3    H269072   4.615   1.500  10.902  0.0639  0.3479  1.3135
15861TIP3   OH269073   5.714   0.282   3.299 -0.0126 -0.2102 -1.1004
15861TIP3    H169074   5.634   0.243   3.265  0.1298 -0.7196 -0.8616
15861TIP3    H269075   5.684   0.341   3.369 -0.2183  0.0414 -1.3965
15862TIP3   OH269076   5.897   0.472  13.369 -0.7429  0.1859 -0.3968
15862TIP3    H169077   5.916   0.504  13.281 -2.9753  1.7000 -0.4184
15862TIP3    H269078   5.835   0.400  13.356 -1.7646  0.9860 -0.0609
15863TIP3   OH269079   4.102   5.670  15.971 -0.9037 -0.3235  0.2182
15863TIP3    H169080   4.100   5.580  16.003  0.8375 -1.0085 -1.4624
15863TIP3    H269081   4.178   5.709  16.014 -1.0726  0.0507  0.1814
15864TIP3   OH269082   2.647   3.469  10.527  0.1317  0.0839  0.2616
15864TIP3    H169083   2.576   3.426  10.574 -0.0426 -0.2254 -0.2770
15864TIP3    H269084   2.672   3.542  10.583  0.1512 -0.4776  0.9858
15865TIP3   OH269085   2.142   0.448   1.517  0.5340 -0.0774  0.1456
15865TIP3    H169086   2.167   0.514   1.582 -0.2702  0.4125 -0.0258
15865TIP3    H269087   2.078   0.492   1.462  1.2866 -0.4573 -1.0618
15866TIP3   OH269088   1.729   3.426  12.368  0.0821 -0.2724  0.4558
15866TIP3    H169089   1.788   3.427  12.292  0.0333  3.0373  0.2838
15866TIP3    H269090   1.644   3.450  12.333 -0.5917 -1.5124  1.1989
15867TIP3   OH269091   5.460   4.744  14.356 -0.2423 -0.7138 -0.2423
15867TIP3    H169092   5.478   4.821  14.302 -0.6591  0.3795  1.1211
15867TIP3    H269093   5.450   4.779  14.445 -1.8378 -2.1661  0.1968
15868TIP3   OH269094   6.620   5.992   2.372  0.2859 -0.3148  0.0872
15868TIP3    H169095   6.583   5.910   2.339  1.3293 -0.0517 -1.9529
15868TIP3    H269096   6.572   6.010   2.452 -0.4281 -2.5747  0.2434
15869TIP3   OH269097   4.155   2.529   2.204 -0.3426 -0.2002  0.0494
15869TIP3    H169098   4.169   2.595   2.272  0.2411 -1.5878  1.3488
15869TIP3    H269099   4.144   2.447   2.252  1.3743 -1.4640 -1.5395
15870TIP3   OH269100   1.575   0.166   2.231  0.4407  0.9049 -0.3769
15870TIP3    H169101   1.543   0.227   2.164 -0.9301  1.8038  1.0295
15870TIP3    H269102   1.628   0.221   2.289 -1.8344  1.1354  1.6204
15871TIP3   OH269103   2.657   1.461  15.287  0.6488  1.4538 -0.2180
15871TIP3    H169104   2.617   1.541  15.254 -1.0471  0.6758 -0.1758
15871TIP3    H269105   2.606   1.439  15.365  1.6217  0.7700  0.2470
15872TIP3   OH269106   2.245   0.771  13.985 -0.0698  0.4666  0.0080
15872TIP3    H169107   2.254   0.859  14.022  1.7620  0.4923 -0.3998
15872TIP3    H269108   2.268   0.713  14.057  0.3118  0.3936 -0.1699
15873TIP3   OH269109   1.721   4.522   1.769  0.1307 -0.0179 -0.3205
15873TIP3    H169110   1.683   4.553   1.852 -1.5016  0.2500 -1.1129
15873TIP3    H269111   1.782   4.453   1.795 -0.8974 -0.4591  1.0783
15874TIP3   OH269112   5.716   6.277   4.769 -0.2942  0.2598  0.0894
15874TIP3    H169113   5.681   6.296   4.682  0.1166 -1.0224 -0.3821
15874TIP3    H269114   5.809   6.297   4.761  0.0057 -1.1315 -0.2011
15875TIP3   OH269115   0.922   5.644   0.456  0.9952 -0.5605 -0.0812
15875TIP3    H169116   0.982   5.687   0.517  0.5099  0.6512 -0.4225
15875TIP3    H269117   0.884   5.716   0.405 -0.4505 -1.3301 -0.1396
15876TIP3   OH269118   4.208   5.832   1.746 -0.3340  0.2960  0.5423
15876TIP3    H169119   4.174   5.750   1.783  1.4415 -0.1107  1.3725
15876TIP3    H269120   4.156   5.845   1.667  0.5119 -2.6407 -0.6443
15877TIP3   OH269121   0.317   5.201   5.836 -0.3816  0.8162 -0.3756
15877TIP3    H169122   0.378   5.275   5.837 -0.0458  0.5964  1.8937
15877TIP3    H269123   0.230   5.241   5.842 -0.1462  1.1373  2.8776
15878TIP3   OH269124   0.106   1.802   3.092 -0.1097 -0.0640 -0.3906
15878TIP3    H169125   0.039   1.836   3.152  0.4551 -0.0289  0.2271
15878TIP3    H269126   0.187   1.807   3.142  0.1029 -1.6781 -0.5355
15879TIP3   OH269127   2.892   5.657  10.812  0.3123  0.1382 -0.0025
15879TIP3    H169128   2.979   5.652  10.851 -0.2066 -1.9546  0.9757
15879TIP3    H269129   2.840   5.591  10.858 -1.2364 -0.1140 -1.9599
15880TIP3   OH269130   5.732   5.796  12.187 -0.1181  0.2734  0.5800
15880TIP3    H169131   5.757   5.791  12.095  0.8377  1.9407  0.7082
15880TIP3    H269132   5.637   5.794  12.187 -0.1302  0.4566 -0.4497
15881TIP3   OH269133   2.778   2.960   2.455 -0.4651 -0.2919  0.3498
15881TIP3    H169134   2.850   2.991   2.399  0.6160  1.6168  2.6026
15881TIP3    H269135   2.819   2.895   2.512 -1.5821 -2.3129 -1.0564
15882TIP3   OH269136   0.038   5.282   2.786 -0.5502  0.1501 -0.4792
15882TIP3    H169137   0.013   5.207   2.841  1.1846 -0.9037 -1.0418
15882TIP3    H269138   0.131   5.295   2.804  0.0942 -0.2171 -3.0580
15883TIP3   OH269139   3.006   5.426  16.336  0.1562 -0.0293  0.3425
15883TIP3    H169140   3.054   5.504  16.363  0.8012  0.2443 -1.4451
15883TIP3    H269141   2.939   5.459  16.277  1.7374 -0.9158 -2.1143
15884TIP3   OH269142   3.624   2.707   5.169  0.0637  0.0617 -0.8280
15884TIP3    H169143   3.709   2.728   5.207 -1.3197 -0.2567  2.8181
15884TIP3    H269144   3.573   2.787   5.179 -0.4232 -0.0916 -1.9452
15885TIP3   OH269145   4.413   3.548   4.156  0.3173  0.0744  0.1706
15885TIP3    H169146   4.466   3.552   4.235 -0.1729  0.0162  0.5074
15885TIP3    H269147   4.345   3.614   4.169  1.1567  1.1957 -0.9051
15886TIP3   OH269148   5.926   3.067   0.726 -0.4848  0.1199  0.3076
15886TIP3    H169149   5.857   3.127   0.754  0.2712  0.9359  0.4793
15886TIP3    H269150   6.000   3.124   0.705  0.2442 -0.7497  0.4473
15887TIP3   OH269151   2.002   0.568   6.282 -0.0003  0.2755  0.3976
15887TIP3    H169152   2.096   0.548   6.277  0.2476  1.2271  0.9115
15887TIP3    H269153   1.999   0.663   6.290 -1.0606  0.3523 -0.5948
15888TIP3   OH269154   4.991   1.039  15.922 -0.2324  0.0638 -0.7078
15888TIP3    H169155   5.007   0.947  15.905 -2.3495 -0.2422 -1.1956
15888TIP3    H269156   4.916   1.062  15.868 -0.6461  1.7105  0.4669
15889TIP3   OH269157   3.497   5.789  15.081  0.3773 -0.7854  0.5088
15889TIP3    H169158   3.530   5.775  14.992 -0.2151  0.2937  0.0978
15889TIP3    H269159   3.486   5.884  15.088  0.3101 -0.8637  1.6999
15890TIP3   OH269160   2.519   4.870   2.993 -0.2042  0.7979  0.9550
15890TIP3    H169161   2.504   4.777   2.977  2.3250  0.2182  1.4577
15890TIP3    H269162   2.514   4.911   2.907 -0.2708  0.0210  0.5851
15891TIP3   OH269163   0.851   1.576  11.862  0.3156  0.7461  0.6286
15891TIP3    H169164   0.852   1.480  11.866  1.2066  0.7630  0.9042
15891TIP3    H269165   0.795   1.602  11.935 -1.1414  0.4115 -0.3102
15892TIP3   OH269166   4.890   0.102   3.711  0.3807  0.9048  0.1964
15892TIP3    H169167   4.805   0.060   3.724  1.3546 -1.0786  0.6084
15892TIP3    H269168   4.917   0.129   3.799 -0.0897  2.1442 -0.0224
15893TIP3   OH269169   6.236   2.799  12.107 -0.3852  0.1157 -0.1593
15893TIP3    H169170   6.185   2.729  12.146 -1.8481  1.3663  0.2947
15893TIP3    H269171   6.214   2.797  12.014 -0.6932  0.1855 -0.0886
15894TIP3   OH269172   2.219   1.506   0.443 -0.3491  0.0068  0.5239
15894TIP3    H169173   2.306   1.479   0.413 -0.3480  0.5459  0.0147
15894TIP3    H269174   2.160   1.485   0.371 -0.0355  3.2099 -0.8335
15895TIP3   OH269175   6.477   5.715   3.088 -0.4338  0.3318 -0.0333
15895TIP3    H169176   6.476   5.734   2.995 -1.2381 -1.7171 -0.4821
15895TIP3    H269177   6.465   5.620   3.094 -1.6529  0.5563  2.1878
15896TIP3   OH269178   2.512   2.452  16.171  0.1076  0.3710  0.1947
15896TIP3    H169179   2.448   2.463  16.240  0.1849 -0.5874  0.4235
15896TIP3    H269180   2.491   2.369  16.130  0.7418  0.4003 -0.2190
15897TIP3   OH269181   2.807   1.387  13.946 -0.1516 -0.0032  0.3016
15897TIP3    H169182   2.884   1.441  13.962  0.4455 -0.6888 -0.1875
15897TIP3    H269183   2.735   1.435  13.988  0.4548  0.8692  0.3801
15898TIP3   OH269184   0.304   5.507  11.707  0.2247 -0.0170  0.4397
15898TIP3    H169185   0.296   5.593  11.748  0.9619  0.8423 -1.1309
15898TIP3    H269186   0.252   5.513  11.627  1.1212 -0.6841 -0.2137
15899TIP3   OH269187   3.698   5.199   3.451 -0.2437 -0.0210 -0.1888
15899TIP3    H169188   3.754   5.161   3.519 -0.7475 -1.2271 -0.4167
15899TIP3    H269189   3.705   5.138   3.377 -1.6503 -0.0783 -0.3097
15900TIP3   OH269190   1.091   6.736   2.729 -0.2277  0.0071 -0.3726
15900TIP3    H169191   1.004   6.698   2.715 -0.3539  0.2437 -0.2343
15900TIP3    H269192   1.077   6.831   2.727 -0.2684  0.0691  1.3291
15901TIP3   OH269193   2.726   0.153  15.488  0.1904  0.5429 -0.2277
15901TIP3    H169194   2.705   0.174  15.579 -0.8111 -1.1960 -0.0161
15901TIP3    H269195   2.821   0.143  15.486  0.1354 -0.4306  0.8870
15902TIP3   OH269196   4.366   6.043  13.695 -0.3716  0.1237 -0.3376
15902TIP3    H169197   4.336   6.087  13.615  1.0501  1.3212 -0.2728
15902TIP3    H269198   4.433   5.982  13.665  0.5756  0.9841 -0.0460
15903TIP3   OH269199   5.976   6.189   0.473  0.1860 -0.1167 -0.1678
15903TIP3    H169200   5.933   6.271   0.494  0.1986 -0.5071  1.5789
15903TIP3    H269201   6.070   6.206   0.485  0.3559  0.0904 -1.6244
15904TIP3   OH269202   5.645   4.708   1.245 -0.2009 -0.7037 -0.5038
15904TIP3    H169203   5.712   4.693   1.179  1.2170  1.9903  0.1576
15904TIP3    H269204   5.683   4.675   1.326 -0.8784 -1.6717 -0.5567
15905TIP3   OH269205   1.349   5.250   2.423  0.0653  0.5262  0.4004
15905TIP3    H169206   1.403   5.230   2.500 -1.1675 -0.5552  1.0228
15905TIP3    H269207   1.312   5.336   2.443 -1.9689 -0.6522  2.0997
15906TIP3   OH269208   1.284   1.243   4.169  0.3220 -0.3878  0.4540
15906TIP3    H169209   1.344   1.172   4.190 -0.2338 -1.1274 -0.3986
15906TIP3    H269210   1.286   1.248   4.073  1.8541  2.0510  0.5242
15907TIP3   OH269211   0.296   2.306   1.335 -0.1650  0.1766 -0.1997
15907TIP3    H169212   0.300   2.400   1.354 -0.4488 -0.3274  2.9330
15907TIP3    H269213   0.207   2.292   1.302  0.1227  1.0954 -1.4146
15908TIP3   OH269214   6.743   4.264  11.270 -0.0977  0.2550 -0.1460
15908TIP3    H169215   6.743   4.175  11.236 -0.0457  0.2925 -0.2461
15908TIP3    H269216   6.737   4.320  11.192  0.6547  0.3555 -0.1434
15909TIP3   OH269217   5.650   1.401   0.788  0.2675 -0.1634  0.4284
15909TIP3    H169218   5.619   1.438   0.870  0.9209 -0.0902  0.6540
15909TIP3    H269219   5.735   1.444   0.773  0.2031 -0.2502 -0.2320
15910TIP3   OH269220   1.873   5.526   4.301 -0.1159 -0.1369 -0.0429
15910TIP3    H169221   1.966   5.536   4.321  0.0452  1.3538 -1.3273
15910TIP3    H269222   1.872   5.480   4.217 -0.5223 -0.0440 -0.0878
15911TIP3   OH269223   5.572   2.849   2.321  0.1906 -0.5739 -0.0400
15911TIP3    H169224   5.538   2.838   2.410  0.5507  0.4823  0.2389
15911TIP3    H269225   5.507   2.903   2.277 -0.1760 -1.4121 -0.5471
15912TIP3   OH269226   0.397   0.534   1.919 -0.8054 -0.5060 -0.6570
15912TIP3    H169227   0.442   0.450   1.920 -0.5169 -0.3497  0.1602
15912TIP3    H269228   0.366   0.546   2.008  1.7407  1.6047  0.0717
15913TIP3   OH269229   4.738   3.775   3.474 -0.1914  0.1084 -0.1699
15913TIP3    H169230   4.663   3.816   3.432 -1.3582  0.0154  1.7299
15913TIP3    H269231   4.741   3.687   3.436 -0.4649  0.4282 -0.9417
15914TIP3   OH269232   1.009   3.999   0.618  0.1225 -0.2485  0.0675
15914TIP3    H169233   0.926   4.041   0.595 -0.4446 -0.8032  1.0526
15914TIP3    H269234   0.986   3.934   0.684  1.1139 -1.5038 -0.7749
15915TIP3   OH269235   2.187   2.607   2.275 -0.2038  0.1956 -0.5559
15915TIP3    H169236   2.229   2.686   2.308 -0.8861  0.6014 -0.6521
15915TIP3    H269237   2.132   2.577   2.347 -2.5215  1.6716 -1.6163
15916TIP3   OH269238   1.682   2.120  12.956  0.3964  0.1093 -0.1735
15916TIP3    H169239   1.628   2.187  12.997  2.1395  0.6422  1.3907
15916TIP3    H269240   1.628   2.084  12.886 -0.5600  3.1729 -1.1250
15917TIP3   OH269241   3.534   4.835   0.180 -0.8355  0.2720  0.6792
15917TIP3    H169242   3.555   4.825   0.273 -0.4199 -1.5776  0.4167
15917TIP3    H269243   3.438   4.842   0.178 -0.8581  0.1661  1.2268
15918TIP3   OH269244   6.266   0.654  16.085  0.3956  0.5723  0.2598
15918TIP3    H169245   6.243   0.746  16.098 -2.9834 -0.0777 -0.2031
15918TIP3    H269246   6.218   0.608  16.154 -1.1904 -1.1306 -1.8548
15919TIP3   OH269247   3.050   3.420   6.546  0.7719  0.5100 -0.0984
15919TIP3    H169248   3.086   3.331   6.542 -0.4159 -0.0452  0.8628
15919TIP3    H269249   3.081   3.455   6.629  1.4831  1.1214 -0.6133
15920TIP3   OH269250   0.871   1.717  13.252 -0.2741  0.1648 -0.1552
15920TIP3    H169251   0.862   1.667  13.171 -0.7264  0.4922 -0.3094
15920TIP3    H269252   0.947   1.773  13.238  0.0465 -0.2504 -0.0998
15921TIP3   OH269253   1.891   1.387  13.543  0.3859  0.0822 -0.3579
15921TIP3    H169254   1.867   1.422  13.629  1.7339 -0.2299  0.1711
15921TIP3    H269255   1.838   1.308  13.534  1.3645 -0.7690  0.9168
15922TIP3   OH269256   2.112   3.407   4.647  0.2884  0.6189 -0.0848
15922TIP3    H169257   2.197   3.428   4.686  0.6062  0.1830 -0.5302
15922TIP3    H269258   2.057   3.382   4.721  1.4263 -2.0792 -0.0083
15923TIP3   OH269259   4.109   5.328  11.743  0.3511 -0.0137  1.0569
15923TIP3    H169260   4.034   5.335  11.684 -0.8322 -0.9361  2.3765
15923TIP3    H269261   4.079   5.367  11.825  0.5347 -2.2402  2.2530
15924TIP3   OH269262   2.703   1.483   0.005 -0.3588 -0.2554  0.4120
15924TIP3    H169263   2.612   1.457  -0.003 -0.0285 -1.3870  0.1955
15924TIP3    H269264   2.746   1.449  -0.073  0.6319 -1.5041  1.4465
15925TIP3   OH269265   3.447   1.940   5.981 -0.7545 -0.2577  0.5104
15925TIP3    H169266   3.358   1.913   5.957 -0.7430 -0.4347  0.6657
15925TIP3    H269267   3.504   1.883   5.929 -0.7182  0.7812 -0.6571
15926TIP3   OH269268   3.156   3.238  13.249  0.2571  0.2239 -0.1386
15926TIP3    H169269   3.225   3.171  13.255  1.5347  1.4139 -0.8327
15926TIP3    H269270   3.150   3.257  13.155 -2.9754 -1.7342 -0.4722
15927TIP3   OH269271   0.702   3.498   0.100  0.1605 -0.2649 -0.3345
15927TIP3    H169272   0.703   3.469   0.009  1.3957 -0.9015 -0.1430
15927TIP3    H269273   0.781   3.458   0.139  1.0365  1.9819  0.3660
15928TIP3   OH269274   4.666   2.872  14.857 -0.0039  0.2186  0.3431
15928TIP3    H169275   4.697   2.856  14.946 -1.3468 -0.7753  0.6633
15928TIP3    H269276   4.571   2.863  14.862 -0.1040  0.0417 -1.2152
15929TIP3   OH269277   5.333   5.659   2.396  0.1862  0.0734 -0.4303
15929TIP3    H169278   5.400   5.717   2.360 -0.4164  1.2128  0.2422
15929TIP3    H269279   5.257   5.716   2.412 -0.9804 -1.1885 -1.2302
15930TIP3   OH269280   1.509   1.818  14.595  0.3853 -0.4800  0.8782
15930TIP3    H169281   1.500   1.912  14.611  1.1041  0.4395 -3.0335
15930TIP3    H269282   1.603   1.802  14.602  0.4870 -0.4509 -0.2622
15931TIP3   OH269283   4.604   2.045  12.470 -0.2930 -0.1333  0.0121
15931TIP3    H169284   4.677   2.067  12.528 -1.3123  0.6589  1.0555
15931TIP3    H269285   4.613   2.105  12.396 -0.1289  0.2572  0.3459
15932TIP3   OH269286   0.965   4.504  16.920  0.0199  0.2828 -0.2167
15932TIP3    H169287   1.023   4.429  16.928 -1.2737 -0.6213  1.2058
15932TIP3    H269288   0.996   4.566  16.985  0.8346  0.8474 -1.1114
15933TIP3   OH269289   2.058   1.709  14.923 -0.1654  0.0132 -0.4689
15933TIP3    H169290   1.966   1.731  14.912 -0.0191  0.9001  0.0188
15933TIP3    H269291   2.062   1.662  15.006 -0.3148 -0.9307 -0.9797
15934TIP3   OH269292   1.100   4.925  15.117  0.4611  0.9628 -0.2500
15934TIP3    H169293   1.169   4.882  15.066 -0.8261  0.4343 -1.6325
15934TIP3    H269294   1.021   4.911  15.065 -1.2681 -0.9916  2.6502
15935TIP3   OH269295   6.684   2.683   5.102 -0.5010  0.2013  0.4707
15935TIP3    H169296   6.620   2.737   5.056  0.0618  0.9551  0.5707
15935TIP3    H269297   6.740   2.648   5.033  1.8627  3.2570  0.6572
15936TIP3   OH269298   2.798   6.570   0.663  0.4327 -0.3007 -0.0756
15936TIP3    H169299   2.842   6.607   0.740  0.3040 -0.2438 -0.0296
15936TIP3    H269300   2.705   6.573   0.685  0.3122  0.7510 -0.6942
15937TIP3   OH269301   1.197   4.162   3.686  0.5265 -0.3070  0.2103
15937TIP3    H169302   1.109   4.164   3.723  0.4608 -0.0609  0.0404
15937TIP3    H269303   1.207   4.073   3.653  0.3303 -0.3266  0.2029
15938TIP3   OH269304   0.163   5.968   0.247  0.5320  0.5080  0.2189
15938TIP3    H169305   0.171   5.903   0.316  0.4630  0.5772  0.2933
15938TIP3    H269306   0.137   6.048   0.293 -1.3367  0.1242 -0.0663
15939TIP3   OH269307   5.563   0.395  13.582  0.2472 -0.6509 -0.1118
15939TIP3    H169308   5.518   0.479  13.588  1.4502 -0.0248  0.6447
15939TIP3    H269309   5.568   0.377  13.488  0.7519  0.5616 -0.3366
15940TIP3   OH269310   3.784   1.015  12.584 -0.7639 -0.1198 -0.4377
15940TIP3    H169311   3.830   1.065  12.516  0.2616  1.1500  1.1177
15940TIP3    H269312   3.696   1.053  12.585 -1.2955 -1.2015 -2.0605
15941TIP3   OH269313   2.653   0.081  13.664 -0.6526  0.3971  0.4794
15941TIP3    H169314   2.568   0.124  13.661  0.0320  1.8421  0.8618
15941TIP3    H269315   2.715   0.147  13.633  0.6975  0.4012  2.8904
15942TIP3   OH269316   2.613   4.528  14.065  0.1366  0.2649  0.2264
15942TIP3    H169317   2.675   4.488  14.004  1.5849  2.5561  0.0643
15942TIP3    H269318   2.534   4.541  14.012  0.5635  0.0875 -0.4747
15943TIP3   OH269319   6.610   4.056  17.066  0.1290 -0.0130 -0.5259
15943TIP3    H169320   6.629   4.086  17.155 -0.4434 -0.2200 -0.3320
15943TIP3    H269321   6.518   4.078  17.052  0.4237  0.7613 -1.3701
15944TIP3   OH269322   4.554   3.501  14.225 -0.2226 -0.3581  0.5105
15944TIP3    H169323   4.597   3.583  14.249  0.8941 -1.4785  2.5848
15944TIP3    H269324   4.621   3.452  14.177 -0.8294 -0.1616 -0.5703
15945TIP3   OH269325   3.942   6.017  15.796  0.2467  0.5767 -0.2669
15945TIP3    H169326   3.847   6.028  15.802  0.3054  0.4312  1.1953
15945TIP3    H269327   3.954   5.931  15.754 -0.3035 -0.2038  1.0997
15946TIP3   OH269328   3.188   3.452  13.684  0.0319  0.0515  0.1073
15946TIP3    H169329   3.200   3.449  13.589 -0.6706 -0.8153  0.0277
15946TIP3    H269330   3.265   3.408  13.719  0.4554  0.6733 -0.0475
15947TIP3   OH269331   4.072   0.067  13.078 -0.1914 -0.2966  0.7603
15947TIP3    H169332   3.992   0.044  13.125 -0.9690 -0.2159 -0.4978
15947TIP3    H269333   4.117  -0.017  13.066  0.1987 -0.2762  1.9369
15948TIP3   OH269334   3.253   2.008  14.147  0.3679 -0.5515 -0.6139
15948TIP3    H169335   3.185   1.954  14.108 -1.2648  0.5210  0.6282
15948TIP3    H269336   3.243   2.093  14.104 -0.7888  0.3482  1.2899
15949TIP3   OH269337   5.262   1.291   3.134 -0.6813  0.3312 -0.5080
15949TIP3    H169338   5.213   1.335   3.204 -3.0150 -0.0041 -1.8344
15949TIP3    H269339   5.254   1.349   3.059  0.9847  0.2304 -0.8036
15950TIP3   OH269340   4.616   3.309   3.513  0.2566  0.1850  0.3137
15950TIP3    H169341   4.540   3.258   3.542  0.5555 -0.6578 -0.3588
15950TIP3    H269342   4.690   3.251   3.524  0.7516  0.8308  0.4799
15951TIP3   OH269343   3.418   3.127  14.748 -0.4775 -0.2416  0.3103
15951TIP3    H169344   3.463   3.055  14.793  0.2756  0.8209  1.3341
15951TIP3    H269345   3.483   3.158  14.685  0.2651  1.2453  1.7357
15952TIP3   OH269346   4.575   5.290  14.474 -0.2431  0.4968 -0.1905
15952TIP3    H169347   4.506   5.277  14.408 -0.2856  0.1954 -0.0889
15952TIP3    H269348   4.653   5.251  14.435 -0.5857 -0.9423  0.5015
15953TIP3   OH269349   3.201   5.568  14.887  0.5580  0.7192  0.1939
15953TIP3    H169350   3.262   5.612  14.829 -0.9782  2.2429 -0.3685
15953TIP3    H269351   3.190   5.629  14.960  0.6743 -0.1136  0.9207
15954TIP3   OH269352   3.230   1.714  13.874 -0.2817  0.1514  0.3425
15954TIP3    H169353   3.225   1.660  13.795 -0.0227  0.6212 -0.0085
15954TIP3    H269354   3.308   1.683  13.920 -1.9315 -1.9892  1.8609
15955TIP3   OH269355   4.127   3.839  13.012  0.2144  0.3247 -0.2194
15955TIP3    H169356   4.072   3.917  13.016 -0.9209 -0.3329 -2.0278
15955TIP3    H269357   4.156   3.826  13.103 -1.0608  1.7838  0.4402
15956TIP3   OH269358   5.898   1.281  13.773  0.1957  0.0500 -0.5205
15956TIP3    H169359   5.946   1.203  13.803 -0.8076 -0.1837  0.5712
15956TIP3    H269360   5.846   1.307  13.849 -0.0894  1.3250 -1.1272
15957TIP3   OH269361   6.191   0.381   1.129  0.4978 -0.3455 -0.8857
15957TIP3    H169362   6.118   0.381   1.190  0.2991 -0.5296 -1.1197
15957TIP3    H269363   6.260   0.430   1.173  0.4963 -0.8172 -0.3541
15958TIP3   OH269364   2.601   3.263  15.600 -0.2319  0.0788 -0.9421
15958TIP3    H169365   2.525   3.255  15.658 -1.0621  0.6979 -1.8963
15958TIP3    H269366   2.668   3.304  15.654 -0.5775 -0.4570 -0.0864
15959TIP3   OH269367   6.523   3.671  14.428  0.2080 -0.3024 -0.4435
15959TIP3    H169368   6.525   3.704  14.339 -1.8021 -0.5504 -0.6226
15959TIP3    H269369   6.614   3.676  14.458  1.0105 -0.6869 -2.6587
15960TIP3   OH269370   5.772   4.402  15.088 -0.1357 -0.2033 -0.4801
15960TIP3    H169371   5.825   4.481  15.098 -0.0996 -0.3541  0.6900
15960TIP3    H269372   5.827   4.343  15.036  0.8938 -0.3655  0.7331
15961TIP3   OH269373   2.633   4.985  11.492 -0.0859 -0.1894 -0.3990
15961TIP3    H169374   2.658   4.955  11.405  1.6250 -3.0454  0.9026
15961TIP3    H269375   2.710   5.032  11.524 -0.5812  0.5635 -0.2993
15962TIP3   OH269376   4.132   4.717  12.777 -0.0816 -0.3896 -0.1684
15962TIP3    H169377   4.098   4.801  12.808  0.8502 -0.4525  1.0958
15962TIP3    H269378   4.222   4.737  12.749 -0.3742 -0.6645 -1.3522
15963TIP3   OH269379   6.509   3.451  16.389 -0.4592  0.1340 -0.7109
15963TIP3    H169380   6.552   3.380  16.437  2.0108  1.5692 -0.6277
15963TIP3    H269381   6.492   3.415  16.302  0.5677 -0.6678 -0.6024
15964TIP3   OH269382   2.723   5.208   1.565 -0.5674 -0.4540  0.5508
15964TIP3    H169383   2.744   5.164   1.484 -0.3744 -0.5551  0.6564
15964TIP3    H269384   2.654   5.271   1.541  1.0978  1.1862 -0.1839
15965TIP3   OH269385   1.990   3.240   1.909  0.3440  0.2896 -0.5730
15965TIP3    H169386   1.949   3.311   1.860 -0.7882 -1.1564 -1.8051
15965TIP3    H269387   2.084   3.256   1.902  0.1192  1.3006 -1.3722
15966TIP3   OH269388   1.039   2.874  16.951  0.2840  0.2004  0.4314
15966TIP3    H169389   1.090   2.819  16.892  2.2138  0.7679  1.4658
15966TIP3    H269390   0.965   2.905  16.898  0.5233 -1.3442 -0.8815
15967TIP3   OH269391   1.967   4.964   1.071 -0.1340  0.2073  0.0996
15967TIP3    H169392   1.898   5.027   1.051 -2.1783 -1.8189  0.2446
15967TIP3    H269393   1.980   4.916   0.989  0.0325 -0.3932  0.4700
15968TIP3   OH269394   1.415   1.395  11.632 -0.1000  0.1768 -0.4914
15968TIP3    H169395   1.451   1.483  11.624 -0.0205  0.4113  1.7806
15968TIP3    H269396   1.491   1.337  11.633 -0.1509  0.0586 -1.9577
15969TIP3   OH269397   5.902   2.860   0.519  0.3271  0.4954  0.0054
15969TIP3    H169398   5.994   2.886   0.515 -0.1840  2.3996 -0.1101
15969TIP3    H269399   5.871   2.891   0.603 -0.3257  0.2426 -0.1342
15970TIP3   OH269400   4.310   0.028  11.704  0.4170 -0.6299  0.0627
15970TIP3    H169401   4.353   0.081  11.771 -2.4622  0.0132  1.5265
15970TIP3    H269402   4.335  -0.062  11.725  0.8217 -0.3081  1.0174
15971TIP3   OH269403   4.137   2.434  15.251  0.4867 -0.1447 -0.3927
15971TIP3    H169404   4.071   2.485  15.204  2.0980  0.5726 -1.9857
15971TIP3    H269405   4.215   2.440  15.197  1.7381 -1.4110  1.1681
15972TIP3   OH269406   0.449   5.351  11.843 -0.0757  0.0875  0.0965
15972TIP3    H169407   0.381   5.306  11.894 -0.5002  0.3910 -0.2003
15972TIP3    H269408   0.401   5.410  11.785  0.4291  0.1060 -0.3089
15973TIP3   OH269409   4.707   6.780   2.283  0.3515 -0.4784  0.3654
15973TIP3    H169410   4.678   6.713   2.222 -1.4846  1.4430 -0.9939
15973TIP3    H269411   4.797   6.799   2.256  0.1013 -0.7640 -0.7251
15974TIP3   OH269412   3.455   5.563   5.077  0.1020  0.5291 -0.1898
15974TIP3    H169413   3.494   5.506   5.144  1.3736 -1.1103 -2.1947
15974TIP3    H269414   3.373   5.518   5.053  0.0914  0.6440 -0.3667
15975TIP3   OH269415   4.019   4.554   3.755 -0.3553 -0.1033  0.4663
15975TIP3    H169416   3.975   4.638   3.765 -0.5209 -0.3866  2.7371
15975TIP3    H269417   4.110   4.571   3.778  0.9314  0.4702 -4.1549
15976TIP3   OH269418   2.786   4.909  11.931  0.4079  0.0767 -0.3838
15976TIP3    H169419   2.825   4.856  11.861  0.2865 -0.1677 -0.2667
15976TIP3    H269420   2.857   4.967  11.959 -0.1422  1.8179 -2.2893
15977TIP3   OH269421   0.911   2.563  13.232 -0.3677 -0.5440  0.4381
15977TIP3    H169422   0.859   2.547  13.153 -0.7548  0.2300  0.5235
15977TIP3    H269423   0.964   2.484  13.243 -0.1576 -0.5786 -0.7155
15978TIP3   OH269424   6.419   6.032   5.542  0.3125 -0.3040 -0.6089
15978TIP3    H169425   6.441   5.945   5.577 -1.9135 -1.3235 -1.5416
15978TIP3    H269426   6.335   6.054   5.582  1.0657  1.7170  0.0001
15979TIP3   OH269427   0.521   1.735   0.855  0.1813  0.2866 -0.1823
15979TIP3    H169428   0.431   1.767   0.867 -0.2716 -0.1943 -1.9656
15979TIP3    H269429   0.518   1.645   0.889  0.6572  1.0258  1.9741
15980TIP3   OH269430   5.570   0.521   4.223 -0.2549  0.3446  0.2940
15980TIP3    H169431   5.656   0.519   4.264 -0.5339  1.5579  0.9810
15980TIP3    H269432   5.572   0.596   4.164 -0.4575 -0.3317 -0.6061
15981TIP3   OH269433   4.959   2.411   3.699  0.0445 -0.4412  0.3038
15981TIP3    H169434   4.955   2.434   3.792  0.2487  1.3575 -0.0933
15981TIP3    H269435   4.885   2.457   3.660  0.1449 -0.9267 -0.4858
15982TIP3   OH269436   2.662   6.473  15.934 -0.3696  0.1519 -0.6044
15982TIP3    H169437   2.662   6.560  15.896  0.1433  0.3953 -0.0579
15982TIP3    H269438   2.697   6.484  16.022 -0.9662 -0.4979 -0.2679
15983TIP3   OH269439   5.396   0.473   0.509  0.3813 -0.6046  0.8631
15983TIP3    H169440   5.314   0.440   0.545 -0.7937  0.7282 -0.4380
15983TIP3    H269441   5.390   0.452   0.415 -0.4808  3.1192 -0.0741
15984TIP3   OH269442   5.490   5.868  13.749  0.1484 -0.5018  0.3015
15984TIP3    H169443   5.561   5.853  13.687  0.9027  0.5261  0.8972
15984TIP3    H269444   5.443   5.784  13.752 -0.0746 -0.5108 -1.8405
15985TIP3   OH269445   1.817   3.408  12.106 -0.1283 -0.2217 -0.2674
15985TIP3    H169446   1.852   3.320  12.121  0.8176  0.1679 -0.0922
15985TIP3    H269447   1.822   3.420  12.011 -2.3745 -1.1881 -0.5460
15986TIP3   OH269448   5.581   2.305   2.357 -0.0585  0.2281  0.8217
15986TIP3    H169449   5.515   2.374   2.349 -0.7629 -0.3343  1.5884
15986TIP3    H269450   5.606   2.286   2.267 -0.1272  1.2189  0.5794
15987TIP3   OH269451   0.826   3.415   3.637  0.2111  0.1072 -0.6440
15987TIP3    H169452   0.825   3.503   3.599  3.5120  0.7070  0.3213
15987TIP3    H269453   0.794   3.358   3.566 -1.7697  1.9865 -1.3672
15988TIP3   OH269454   0.854   6.392  16.725  0.5833 -0.3627 -0.1914
15988TIP3    H169455   0.775   6.431  16.763  0.1210 -2.4134  1.1324
15988TIP3    H269456   0.884   6.456  16.660 -0.5943  1.7153  1.2069
15989TIP3   OH269457   6.243   0.384   4.553 -0.1461  0.3521 -0.3325
15989TIP3    H169458   6.191   0.328   4.497 -1.7063  1.4150 -0.0081
15989TIP3    H269459   6.244   0.339   4.638  0.1114 -0.0323 -0.5349
15990TIP3   OH269460   6.610   6.593  13.522 -0.3542  0.8591 -0.5394
15990TIP3    H169461   6.661   6.515  13.498 -0.6342  0.2766  0.6775
15990TIP3    H269462   6.673   6.664  13.522  0.4574  0.1778  0.7936
15991TIP3   OH269463   2.542   2.282   4.751  0.0885  0.3637  0.0303
15991TIP3    H169464   2.562   2.243   4.666 -2.8666 -2.5451  0.4700
15991TIP3    H269465   2.464   2.335   4.736 -1.1054 -1.0430  1.0476
15992TIP3   OH269466   3.058   0.952  11.974 -0.1469 -0.2316  0.2637
15992TIP3    H169467   3.042   0.859  11.956 -0.0599 -0.1489 -0.2296
15992TIP3    H269468   3.119   0.952  12.048  0.3045 -0.5719 -0.1070
15993TIP3   OH269469   4.880   3.953   3.609 -0.0801  0.1354  0.6317
15993TIP3    H169470   4.820   3.895   3.564 -1.3929  0.6856  1.6071
15993TIP3    H269471   4.896   3.910   3.693  0.7815  0.0701  0.4433
15994TIP3   OH269472   4.523   3.488  11.868  0.2240 -0.4084  0.3013
15994TIP3    H169473   4.555   3.567  11.824 -2.1984 -0.7710 -2.4116
15994TIP3    H269474   4.580   3.418  11.836 -0.0802 -0.3074 -0.4945
15995TIP3   OH269475   3.139   2.987  11.111  0.1037 -0.0166  0.1051
15995TIP3    H169476   3.182   3.031  11.185  0.2509  3.2594 -1.7390
15995TIP3    H269477   3.052   2.965  11.144  1.1040 -1.3485  2.0824
15996TIP3   OH269478   6.127   1.068  15.565 -0.9602  0.3789  0.0955
15996TIP3    H169479   6.133   1.085  15.471  0.2735  0.7419  0.2134
15996TIP3    H269480   6.196   1.004  15.582 -0.4215  1.1469  0.9182
15997TIP3   OH269481   2.764   0.557   2.317  0.0468  0.4834 -0.2668
15997TIP3    H169482   2.722   0.552   2.403 -0.7955 -2.2649 -0.7437
15997TIP3    H269483   2.691   0.560   2.254  0.6502  2.1836 -0.9396
15998TIP3   OH269484   1.470   0.193  11.529  0.2355  0.0714 -0.6612
15998TIP3    H169485   1.430   0.107  11.519  0.3091  0.2228 -2.6171
15998TIP3    H269486   1.397   0.254  11.526  0.2241  0.1213  0.3029
15999TIP3   OH269487   0.170   0.547  11.193  0.0425  0.3884  0.0773
15999TIP3    H169488   0.188   0.627  11.144 -0.7714  0.7447  0.3515
15999TIP3    H269489   0.123   0.576  11.271 -1.0510 -0.4363 -0.2555
16000TIP3   OH269490   1.389   1.605  16.128 -0.3747  0.3440  0.7735
16000TIP3    H169491   1.303   1.577  16.095 -1.0678  1.6373  1.4043
16000TIP3    H269492   1.438   1.524  16.139 -0.0874 -0.2598 -3.3007
16001TIP3   OH269493   4.731   0.645   2.171 -0.1560  0.2004 -0.4951
16001TIP3    H169494   4.681   0.710   2.219  0.0456  1.0834 -1.4377
16001TIP3    H269495   4.674   0.621   2.097 -0.7051 -1.5578  0.4453
16002TIP3   OH269496   4.712   3.292  10.396  0.5133  0.1395 -0.6641
16002TIP3    H169497   4.629   3.254  10.368  1.0765 -0.8808 -0.9793
16002TIP3    H269498   4.711   3.380  10.358 -0.7044  0.3900 -0.1014
16003TIP3   OH269499   1.032   4.299  12.134 -0.7889  0.4830 -0.1155
16003TIP3    H169500   0.944   4.291  12.097 -1.1972 -0.1979  0.9696
16003TIP3    H269501   1.026   4.259  12.220  0.6765  0.1431 -0.1451
16004TIP3   OH269502   2.087   6.217   0.849 -0.4254 -0.3508  0.2392
16004TIP3    H169503   2.094   6.147   0.914 -0.4992  0.1463  0.7967
16004TIP3    H269504   2.088   6.172   0.765 -0.3629 -1.0124  0.5849
16005TIP3   OH269505   1.809   3.998  12.568 -0.6031 -0.4697  0.1036
16005TIP3    H169506   1.903   3.988  12.581 -0.8211 -0.7745  1.5937
16005TIP3    H269507   1.800   4.077  12.513  0.5391 -1.0161 -0.9069
16006TIP3   OH269508   3.617   4.753   2.100 -0.2357  0.1651  0.3256
16006TIP3    H169509   3.702   4.744   2.056 -1.4061 -1.3392 -1.8258
16006TIP3    H269510   3.581   4.835   2.068  1.4333  2.2840  3.3741
16007TIP3   OH269511   2.117   5.504   3.480 -0.1923  0.8600 -0.0403
16007TIP3    H169512   2.046   5.468   3.534 -0.4275  1.0964 -0.1883
16007TIP3    H269513   2.197   5.470   3.520 -0.4129  0.0749 -0.2371
16008TIP3   OH269514   6.825   0.908   5.482  0.2961  0.3938  0.0970
16008TIP3    H169515   6.734   0.931   5.501  0.5395  0.5576  1.0820
16008TIP3    H269516   6.875   0.986   5.504  0.8750 -0.2859  1.2663
16009TIP3   OH269517   1.484   5.032   5.370 -0.0174 -0.1599 -0.1959
16009TIP3    H169518   1.410   5.062   5.318 -0.3235 -1.4091 -0.5036
16009TIP3    H269519   1.558   5.085   5.340 -0.2037 -0.7960 -1.8455
16010TIP3   OH269520   4.552   1.494   0.744  0.3018  0.3963 -0.1256
16010TIP3    H169521   4.644   1.494   0.719  0.2373  1.5980 -0.4158
16010TIP3    H269522   4.508   1.539   0.671 -0.5308 -0.2868 -0.0552
16011TIP3   OH269523   5.855   5.742  12.572  0.8698 -0.3206 -0.3305
16011TIP3    H169524   5.890   5.813  12.627  1.9867 -1.3357  0.3216
16011TIP3    H269525   5.843   5.669  12.632 -0.5549 -0.6097 -0.9382
16012TIP3   OH269526   6.147   3.018   2.148  0.2797  0.3390 -0.0424
16012TIP3    H169527   6.129   3.111   2.164  0.3164  0.7043 -1.9561
16012TIP3    H269528   6.060   2.976   2.153  0.4001  0.2017  2.1112
16013TIP3   OH269529   5.016   4.164  13.703  0.7796 -0.0660 -0.2782
16013TIP3    H169530   4.957   4.175  13.777 -0.2879  1.5832 -1.3204
16013TIP3    H269531   5.005   4.072  13.677  0.6947 -0.4934  1.1738
16014TIP3   OH269532   0.557   1.175  15.105 -0.7367  0.0697 -0.0918
16014TIP3    H169533   0.528   1.137  15.021  0.3018 -1.2356  0.1041
16014TIP3    H269534   0.651   1.159  15.107 -0.2538  2.6127  0.0862
16015TIP3   OH269535   6.796   5.047  13.653 -0.6166  0.0391 -0.5209
16015TIP3    H169536   6.875   5.062  13.601 -0.4635 -0.1438 -0.3474
16015TIP3    H269537   6.727   5.031  13.589 -0.7170  1.1207 -0.6977
16016TIP3   OH269538   1.194   3.224  11.800 -0.2836 -0.2835 -0.2669
16016TIP3    H169539   1.124   3.178  11.755 -0.1933  0.2498 -0.9768
16016TIP3    H269540   1.274   3.197  11.754 -0.2442  0.6500 -0.7784
16017TIP3   OH269541   3.373   4.284  11.948  0.3103  0.2557 -0.1112
16017TIP3    H169542   3.383   4.198  11.907  1.3195  0.4871 -0.3954
16017TIP3    H269543   3.352   4.343  11.876  0.2438  0.3507 -0.0143
16018TIP3   OH269544   1.490   2.146  13.867 -0.8414  0.2812  0.3044
16018TIP3    H169545   1.503   2.241  13.867  0.5885  0.2060  3.3596
16018TIP3    H269546   1.455   2.126  13.954  1.4081 -2.2277  0.7754
16019TIP3   OH269547   5.327   1.762  16.244  0.0757  0.6429 -0.1124
16019TIP3    H169548   5.385   1.792  16.173  0.0408  1.8155  0.3468
16019TIP3    H269549   5.361   1.675  16.266  1.0425  0.8919 -0.5386
16020TIP3   OH269550   0.858   4.411   3.829 -0.2262 -0.2945  0.3447
16020TIP3    H169551   0.914   4.364   3.767  0.3196 -0.5667  1.0395
16020TIP3    H269552   0.778   4.430   3.779  1.1613  1.7594 -1.2616
16021TIP3   OH269553   3.019   5.383  11.523  0.2522  0.1261 -0.3442
16021TIP3    H169554   3.051   5.351  11.607  1.1961  0.2896 -0.6345
16021TIP3    H269555   2.944   5.439  11.545  0.1435 -0.2917  0.3413
16022TIP3   OH269556   6.387   0.127  15.163 -0.9359  0.0481 -0.2209
16022TIP3    H169557   6.429   0.204  15.123  0.3716 -0.2805  0.4759
16022TIP3    H269558   6.319   0.102  15.100 -1.3515  1.7160 -0.5067
16023TIP3   OH269559   4.419   2.705   4.015  0.9067 -0.3854 -0.2901
16023TIP3    H169560   4.483   2.635   4.003 -0.3035 -1.9606  1.8239
16023TIP3    H269561   4.381   2.689   4.101 -2.0840  0.6489 -1.2657
16024TIP3   OH269562   3.691   5.902  16.957  0.2712  0.2532 -0.3170
16024TIP3    H169563   3.612   5.852  16.936  0.8700 -0.6758 -0.4304
16024TIP3    H269564   3.677   5.932  17.047 -1.0516  1.7966 -0.9647
16025TIP3   OH269565   5.582   2.735  13.736  0.3187  0.2048 -0.5782
16025TIP3    H169566   5.493   2.728  13.770  0.9005  0.7758  1.1840
16025TIP3    H269567   5.596   2.654  13.687 -0.6404 -0.6143  0.4535
16026TIP3   OH269568   5.148   0.966   6.580 -0.4409  0.1817 -0.5555
16026TIP3    H169569   5.161   0.907   6.506  0.8722 -1.1484  0.6650
16026TIP3    H269570   5.179   1.051   6.548  2.1033 -0.8050 -0.9437
16027TIP3   OH269571   5.741   1.918   1.182  0.4007  0.3830 -0.4345
16027TIP3    H169572   5.736   1.995   1.239  2.0509 -0.1989  0.5823
16027TIP3    H269573   5.680   1.855   1.220  0.9293  0.2760  0.2381
16028TIP3   OH269574   2.723   6.394  14.323  0.2418  0.4691 -0.0265
16028TIP3    H169575   2.681   6.455  14.383 -0.3523  1.2107 -1.1547
16028TIP3    H269576   2.656   6.374  14.258  1.0690  0.2294 -0.8338
16029TIP3   OH269577   4.176   3.016   6.541  0.0196 -0.2861  0.1654
16029TIP3    H169578   4.178   2.971   6.626 -3.0325  0.4371  0.7388
16029TIP3    H269579   4.205   2.949   6.479 -0.6209 -1.8362  1.4419
16030TIP3   OH269580   0.965   5.310  17.289  0.3303 -0.0278 -0.0701
16030TIP3    H169581   1.044   5.256  17.294  0.0162 -0.4945 -0.1356
16030TIP3    H269582   0.992   5.386  17.238  0.3003 -0.9923 -1.6105
16031TIP3   OH269583   2.282   1.019  16.204  0.3427 -0.1207  0.1521
16031TIP3    H169584   2.252   0.928  16.194  0.7609 -0.0727 -2.0840
16031TIP3    H269585   2.203   1.068  16.229 -0.0445 -0.9711  0.6403
16032TIP3   OH269586   3.170   6.773  15.233  0.3912  0.3889 -0.0814
16032TIP3    H169587   3.089   6.778  15.183  0.6851  0.8479 -0.5205
16032TIP3    H269588   3.209   6.859  15.224  0.6992  0.3209  0.5259
16033TIP3   OH269589   5.926   6.078  11.678  0.0829 -0.4733  0.6905
16033TIP3    H169590   5.918   6.090  11.583 -0.5777  0.0989  0.8109
16033TIP3    H269591   5.961   5.990  11.688  0.3163 -0.4802 -0.0880
16034TIP3   OH269592   1.854   4.251   6.275  0.2297 -1.1640  0.2322
16034TIP3    H169593   1.822   4.165   6.250 -1.5292 -0.6174  0.5178
16034TIP3    H269594   1.795   4.280   6.344  0.7358  0.3258  0.0745
16035TIP3   OH269595   0.312   1.191  14.587  0.0068  0.6741 -0.5125
16035TIP3    H169596   0.320   1.257  14.519 -1.1823  0.4962 -0.8380
16035TIP3    H269597   0.275   1.237  14.662 -0.7432  0.3950 -0.7122
16036TIP3   OH269598   0.509   2.598   3.301  0.2804 -0.3435 -0.3710
16036TIP3    H169599   0.437   2.536   3.314 -0.3919  0.7986  2.0915
16036TIP3    H269600   0.504   2.622   3.209 -0.9517 -2.0986 -0.8182
16037TIP3   OH269601   1.103   6.095  14.617  0.0620  0.0586  0.2226
16037TIP3    H169602   1.022   6.127  14.578 -0.2240 -0.5205  0.3238
16037TIP3    H269603   1.155   6.062  14.544  0.0193  0.0293  0.2063
16038TIP3   OH269604   0.048   6.668  14.188  0.1484 -0.4404  0.1045
16038TIP3    H169605   0.035   6.701  14.277  1.5670  1.0455 -0.1976
16038TIP3    H269606   0.064   6.746  14.135 -2.1750 -1.1324 -1.8095
16039TIP3   OH269607   5.437   1.264  12.199 -0.5671  0.2830 -0.3310
16039TIP3    H169608   5.520   1.302  12.169 -0.6672  0.2432 -0.6618
16039TIP3    H269609   5.443   1.267  12.295  0.4988 -1.2319 -0.3266
16040TIP3   OH269610   6.194   3.875   1.398  0.3824  0.5961 -0.2796
16040TIP3    H169611   6.162   3.945   1.341  1.4198  1.1545 -0.2122
16040TIP3    H269612   6.160   3.899   1.485  0.4851  0.8662 -0.3104
16041TIP3   OH269613   2.454   0.782  13.709  0.7706 -0.1469 -0.4286
16041TIP3    H169614   2.525   0.770  13.645  0.2963  0.9951 -1.2072
16041TIP3    H269615   2.374   0.777  13.656  0.1489 -2.5945  0.5933
16042TIP3   OH269616   3.627   4.790  15.442  0.2705  0.2377 -0.8388
16042TIP3    H169617   3.642   4.850  15.515  0.5285 -1.5045  0.6162
16042TIP3    H269618   3.620   4.703  15.483 -0.7361 -0.6685 -2.7782
16043TIP3   OH269619   1.156   5.341   3.557  0.3338 -0.0477  0.1745
16043TIP3    H169620   1.140   5.343   3.652 -0.7191 -1.1594  0.0459
16043TIP3    H269621   1.127   5.253   3.530 -0.1066  0.5263 -1.2953
16044TIP3   OH269622   1.722   2.845  14.558 -0.1680 -0.3550 -0.3166
16044TIP3    H169623   1.721   2.841  14.462  1.3166 -0.4385 -0.3579
16044TIP3    H269624   1.677   2.765  14.586  1.7770 -1.7523 -0.9897
16045TIP3   OH269625   5.726   0.004  12.207 -0.0679 -0.6730  0.6243
16045TIP3    H169626   5.820   0.013  12.194 -0.0860 -0.7176  0.4712
16045TIP3    H269627   5.718  -0.062  12.276  0.0215 -0.4751  0.8259
16046TIP3   OH269628   4.603   6.718   4.094 -0.5383  0.8320 -0.2050
16046TIP3    H169629   4.675   6.674   4.050 -2.1887 -1.6324 -0.6820
16046TIP3    H269630   4.634   6.730   4.184  0.1905 -1.0383 -0.1538
16047TIP3   OH269631   5.366   1.181   0.589 -0.0779  0.2583 -0.1137
16047TIP3    H169632   5.384   1.274   0.577  0.1583  0.1367 -0.7504
16047TIP3    H269633   5.451   1.143   0.614  0.3135 -0.1121 -1.8904
16048TIP3   OH269634   5.902   5.839  10.518  0.1703  0.1738  0.6885
16048TIP3    H169635   5.967   5.895  10.559  0.5119  0.6532 -0.4642
16048TIP3    H269636   5.927   5.750  10.543  1.4566  0.3295  0.0279
16049TIP3   OH269637   4.877   6.605  15.583  0.4367  0.1203 -0.5220
16049TIP3    H169638   4.891   6.513  15.560 -3.1192 -0.7101  0.0426
16049TIP3    H269639   4.961   6.633  15.621  1.5912 -2.8987 -0.5637
16050TIP3   OH269640   1.828   3.582   0.779 -0.0078 -0.3491 -0.4005
16050TIP3    H169641   1.873   3.523   0.718  1.3698 -0.8565  1.0262
16050TIP3    H269642   1.813   3.528   0.857 -0.5746  0.6340  0.1822
16051TIP3   OH269643   6.536   3.895   1.124 -0.0134 -0.4634 -0.0462
16051TIP3    H169644   6.460   3.846   1.155 -0.2982  0.2587  0.4141
16051TIP3    H269645   6.552   3.961   1.192  0.4823 -0.0415 -0.5606
16052TIP3   OH269646   3.887   1.622  11.780 -0.4384 -0.1634  0.2573
16052TIP3    H169647   3.822   1.563  11.819 -0.5016  0.4742  1.1681
16052TIP3    H269648   3.860   1.631  11.689  0.3269 -2.5627 -0.2775
16053TIP3   OH269649   0.216   1.485   3.808 -0.4879 -0.1649  0.1300
16053TIP3    H169650   0.229   1.559   3.867  0.2960  0.4051 -0.7341
16053TIP3    H269651   0.139   1.439   3.844  0.2144 -0.0925  1.8155
16054TIP3   OH269652   0.640   5.253  16.109  0.0187 -0.0435  0.6279
16054TIP3    H169653   0.699   5.328  16.106  1.0282 -0.7580  1.8362
16054TIP3    H269654   0.696   5.178  16.089 -1.0971 -0.4605 -1.2044
16055TIP3   OH269655   4.370   1.425  12.520  0.0177  0.0580  0.4736
16055TIP3    H169656   4.407   1.509  12.545  1.3731 -0.9160  1.9508
16055TIP3    H269657   4.406   1.407  12.433 -0.7844  1.2534 -0.1277
16056TIP3   OH269658   2.849   2.622  14.453 -0.4429  0.3688 -0.5935
16056TIP3    H169659   2.895   2.573  14.521 -2.7665 -0.7799  0.2709
16056TIP3    H269660   2.898   2.704  14.445  0.9124 -0.1889  1.2001
16057TIP3   OH269661   5.626   0.111   5.047 -0.1040 -0.6367  0.1507
16057TIP3    H169662   5.541   0.147   5.070  0.4201  0.6436  0.2206
16057TIP3    H269663   5.688   0.181   5.071  0.8750 -1.2008 -0.6733
16058TIP3   OH269664   5.967   4.892   3.080  0.0230  0.3025  0.4989
16058TIP3    H169665   5.929   4.931   3.001  1.8484 -0.0530 -0.6204
16058TIP3    H269666   6.055   4.931   3.086  0.5115 -0.8821  1.4464
16059TIP3   OH269667   1.318   2.218  10.947 -0.0511 -0.4257  0.5773
16059TIP3    H169668   1.244   2.214  10.886 -0.1387 -0.7178  0.7005
16059TIP3    H269669   1.381   2.275  10.904  0.1296 -1.0782 -0.0605
16060TIP3   OH269670   0.939   2.620  10.567 -0.2969  0.2808  0.6370
16060TIP3    H169671   0.947   2.626  10.662  1.0346 -0.5251  0.5922
16060TIP3    H269672   0.999   2.687  10.533 -2.8762  2.6187  0.3258
16061TIP3   OH269673   1.332   5.100   0.744 -0.7242  0.3023  0.0251
16061TIP3    H169674   1.314   5.074   0.653 -2.1584 -0.5169  0.5090
16061TIP3    H269675   1.292   5.186   0.753 -1.7486 -0.1692  0.2099
16062TIP3   OH269676   6.224   4.786   4.488  0.3428  0.1399 -0.1404
16062TIP3    H169677   6.212   4.812   4.579 -0.3706 -0.2874 -0.1046
16062TIP3    H269678   6.317   4.797   4.471  0.5116  0.0086  0.7049
16063TIP3   OH269679   0.221   4.238  13.898 -0.7312  0.4414 -0.0441
16063TIP3    H169680   0.286   4.287  13.847 -1.1785  1.5585  0.4403
16063TIP3    H269681   0.201   4.162  13.843  2.2683 -0.9018  0.5324
16064TIP3   OH269682   1.665   0.977  13.991 -0.0675  0.1067 -0.1223
16064TIP3    H169683   1.643   0.970  14.084 -0.2931  0.4673 -0.1431
16064TIP3    H269684   1.616   0.907  13.949 -0.8999  0.6715 -0.1173
16065TIP3   OH269685   1.813   6.469  17.074 -0.2636  0.2797  0.8440
16065TIP3    H169686   1.874   6.406  17.035  1.0373  1.4747  0.8778
16065TIP3    H269687   1.727   6.428  17.065  0.4740 -1.2070  0.2940
16066TIP3   OH269688   1.601   4.052  13.171 -0.1785  0.0414  0.0393
16066TIP3    H169689   1.677   4.105  13.193  0.5992 -0.9241 -0.2291
16066TIP3    H269690   1.562   4.028  13.255 -0.0560  0.3612  0.1855
16067TIP3   OH269691   1.044   6.142  17.248 -0.0665  0.1439  0.2315
16067TIP3    H169692   1.097   6.212  17.285 -0.0541 -0.2055  0.8783
16067TIP3    H269693   1.107   6.075  17.222 -0.0065  0.6843 -1.1144
16068TIP3   OH269694   6.044   5.799  14.151 -0.0321 -0.0073  0.4039
16068TIP3    H169695   5.961   5.776  14.191 -0.9958  0.6702 -1.1262
16068TIP3    H269696   6.106   5.801  14.224 -1.3250 -0.5693  1.5661
16069TIP3   OH269697   1.824   4.913  12.124  0.3861 -0.4323  0.0980
16069TIP3    H169698   1.916   4.922  12.097  0.5996  1.1919  1.2173
16069TIP3    H269699   1.806   4.992  12.174 -0.7951 -1.9937  2.3206
16070TIP3   OH269700   2.219   1.693   5.075  0.6916 -0.5538  0.2957
16070TIP3    H169701   2.313   1.677   5.084  0.3776 -2.0568  1.1993
16070TIP3    H269702   2.199   1.670   4.984  1.4279  1.1854 -0.3422
16071TIP3   OH269703   6.624   5.486   4.129 -0.4502  0.4130 -0.1402
16071TIP3    H169704   6.564   5.448   4.064  1.8239 -0.3086 -1.9580
16071TIP3    H269705   6.572   5.552   4.174 -2.3922  0.3916 -2.1666
16072TIP3   OH269706   1.428   5.188   5.070  0.5211 -0.1535 -0.4574
16072TIP3    H169707   1.502   5.229   5.115  0.6722 -0.1006 -0.7477
16072TIP3    H269708   1.467   5.150   4.991 -0.2863  3.0000 -2.5638
16073TIP3   OH269709   5.983   5.880   3.652  0.6245  0.1514 -0.0296
16073TIP3    H169710   5.972   5.895   3.559 -2.2323 -3.2818 -0.4639
16073TIP3    H269711   6.075   5.856   3.662  0.7450 -0.4644 -2.1764
16074TIP3   OH269712   1.061   5.254   5.396  0.2532 -0.3601  0.6917
16074TIP3    H169713   0.971   5.252   5.362 -0.0344  1.8224  1.1471
16074TIP3    H269714   1.110   5.198   5.337 -0.9103  0.5475 -1.2475
16075TIP3   OH269715   4.242   6.663  16.271 -0.2618  0.0439 -0.3007
16075TIP3    H169716   4.255   6.655  16.176 -0.1764  1.1587 -0.3891
16075TIP3    H269717   4.326   6.693  16.304 -0.7385  1.1558 -0.0743
16076TIP3   OH269718   4.660   0.241  16.322  0.3385 -0.1040  0.1755
16076TIP3    H169719   4.608   0.239  16.402 -1.0663  0.1556 -0.7000
16076TIP3    H269720   4.651   0.154  16.285  0.1325  0.0786 -0.2141
16077TIP3   OH269721   3.043   1.123  14.537 -0.1199 -0.1959 -0.9214
16077TIP3    H169722   3.018   1.216  14.540  0.7936  0.0511 -0.5215
16077TIP3    H269723   3.108   1.118  14.467 -0.2861 -0.5701 -1.0508
16078TIP3   OH269724   4.801   4.528  15.536 -0.6877 -0.0349 -0.6296
16078TIP3    H169725   4.821   4.527  15.442  1.5207  0.9171 -0.2343
16078TIP3    H269726   4.883   4.502  15.577 -0.9351  1.7688  1.1208
16079TIP3   OH269727   1.334   2.121  16.686 -0.3319 -0.2614 -0.2208
16079TIP3    H169728   1.429   2.119  16.673  0.2573 -0.0834  3.2263
16079TIP3    H269729   1.305   2.034  16.659  1.2019 -1.1716  0.9277
16080TIP3   OH269730   1.149   1.213   0.189  0.3948  0.2420  0.4186
16080TIP3    H169731   1.241   1.193   0.169  0.0780 -1.2484  0.4115
16080TIP3    H269732   1.152   1.251   0.277  1.1587  1.5810 -0.1444
16081TIP3   OH269733   0.948   3.672  16.205 -0.0861  0.3889  0.2736
16081TIP3    H169734   0.984   3.736  16.267 -0.2586  1.1544 -0.4113
16081TIP3    H269735   1.025   3.625  16.173  0.1973  1.1664 -0.2300
16082TIP3   OH269736   1.247   1.731  12.192 -0.1569 -0.1108  0.3610
16082TIP3    H169737   1.160   1.705  12.160 -0.3441  1.8125 -0.8540
16082TIP3    H269738   1.297   1.649  12.195 -1.1633 -0.8674 -1.7323
16083TIP3   OH269739   5.362   2.678   4.835 -0.1515  0.2010  0.3344
16083TIP3    H169740   5.352   2.660   4.741 -0.0847 -0.5257  0.4613
16083TIP3    H269741   5.450   2.715   4.842 -0.4707  1.0680  0.0071
16084TIP3   OH269742   4.999   2.787  12.964  0.1479 -0.1155  0.3276
16084TIP3    H169743   5.017   2.777  12.870 -2.2639 -0.0262 -0.2158
16084TIP3    H269744   5.079   2.759  13.007  1.6405  0.6837 -1.7734
16085TIP3   OH269745   6.580   5.314  12.711  0.1326 -0.2107  0.3721
16085TIP3    H169746   6.529   5.395  12.710 -0.0528 -0.3281  0.3495
16085TIP3    H269747   6.642   5.325  12.639  0.7631  0.3278  0.9751
16086TIP3   OH269748   2.858   1.657  15.316  0.2069 -0.5293  0.2885
16086TIP3    H169749   2.950   1.630  15.319  0.4543  0.0697 -0.8831
16086TIP3    H269750   2.809   1.575  15.318  0.8508 -0.9787 -0.9130
16087TIP3   OH269751   5.916   0.105  16.027  0.2161 -0.3193 -0.6894
16087TIP3    H169752   5.990   0.151  15.985  0.7395 -1.2713 -0.8432
16087TIP3    H269753   5.957   0.051  16.094 -0.6209  1.3094  1.2398
16088TIP3   OH269754   0.518   1.375  14.096 -0.2704  0.1718 -0.2652
16088TIP3    H169755   0.496   1.410  14.009  0.6380  1.8525  0.1457
16088TIP3    H269756   0.598   1.420  14.121 -0.6864 -0.0276  1.6033
16089TIP3   OH269757   0.268   0.097   1.958  0.2395  0.1389  0.3815
16089TIP3    H169758   0.265   0.049   1.875  0.0186  0.8680 -0.0379
16089TIP3    H269759   0.340   0.056   2.006  2.6090  1.8002 -1.4910
16090TIP3   OH269760   2.914   5.978   2.096 -0.6996  0.6264 -0.2009
16090TIP3    H169761   2.918   5.937   2.183 -0.9190  0.6390 -0.1853
16090TIP3    H269762   2.859   6.055   2.108  1.7396  2.4147  0.3605
16091TIP3   OH269763   3.624   1.902  14.245 -0.0657  0.3526 -0.2432
16091TIP3    H169764   3.594   1.841  14.178  1.0389 -1.4920  0.8504
16091TIP3    H269765   3.685   1.959  14.200  0.2019 -0.4680 -0.9586
16092TIP3   OH269766   2.038   1.006   4.910 -0.1325 -0.3940 -0.0000
16092TIP3    H169767   2.021   1.096   4.937 -0.0194  0.3405 -2.1819
16092TIP3    H269768   2.101   0.973   4.974  2.2832  2.1398 -0.8884
16093TIP3   OH269769   0.777   0.236   3.973 -0.1869  0.4246  0.3262
16093TIP3    H169770   0.769   0.324   3.936 -0.9227  0.4087  0.4244
16093TIP3    H269771   0.855   0.199   3.931 -1.8967 -0.2065 -2.5419
16094TIP3   OH269772   5.493   0.014   0.104  0.1448  0.6120  0.0594
16094TIP3    H169773   5.572   0.045   0.148 -0.0051  2.0574 -0.6264
16094TIP3    H269774   5.482   0.074   0.030 -0.7835 -0.4601 -0.7127
16095TIP3   OH269775   5.441   3.432   5.121  0.0941  0.1958 -0.2312
16095TIP3    H169776   5.468   3.495   5.054 -0.3633  0.3297 -0.2963
16095TIP3    H269777   5.375   3.378   5.078  1.0665 -0.8640 -0.4275
16096TIP3   OH269778   1.535   0.786  15.786 -0.5298  0.2447  0.1524
16096TIP3    H169779   1.631   0.795  15.790 -0.4843 -0.5249  2.0860
16096TIP3    H269780   1.503   0.876  15.797 -0.0145  0.3829  0.6256
16097TIP3   OH269781   1.480   5.363   6.451 -0.2847 -0.3139 -0.4017
16097TIP3    H169782   1.447   5.343   6.539 -0.0164  0.1259 -0.1990
16097TIP3    H269783   1.411   5.415   6.411 -0.0686  0.1656 -0.1623
16098TIP3   OH269784   2.748   0.120   2.560 -0.2491  0.0479 -0.5734
16098TIP3    H169785   2.705   0.052   2.508  2.3627  0.0003 -2.8730
16098TIP3    H269786   2.814   0.072   2.611 -0.2230  0.5817 -0.0945
16099TIP3   OH269787   3.306   0.470   6.888  0.0285  0.1866  0.1972
16099TIP3    H169788   3.272   0.510   6.808 -0.0649 -0.5997 -0.1649
16099TIP3    H269789   3.359   0.539   6.929 -1.0957  1.0577  0.2071
16100TIP3   OH269790   0.948   5.590   1.851  0.7181 -0.2342  0.3269
16100TIP3    H169791   1.041   5.570   1.844  0.7147 -0.6460  1.2318
16100TIP3    H269792   0.910   5.561   1.768  1.2879 -0.7161  0.2265
16101TIP3   OH269793   4.596   0.582  15.807  0.1804  0.3663  0.2469
16101TIP3    H169794   4.641   0.498  15.820  1.4844  0.6875 -1.7803
16101TIP3    H269795   4.528   0.562  15.742 -1.7903  0.1973  2.2578
16102TIP3   OH269796   1.909   0.875  15.586  0.2885 -0.3276 -0.2023
16102TIP3    H169797   1.996   0.883  15.626  0.2165 -0.3966 -0.0324
16102TIP3    H269798   1.916   0.801  15.527  0.1143 -0.8580  0.4235
16103TIP3   OH269799   4.928   5.920   2.555  0.1651 -0.4991 -0.3001
16103TIP3    H169800   4.855   5.944   2.497  1.4121  0.0249 -1.7282
16103TIP3    H269801   4.943   5.997   2.608 -0.5112 -0.7207  0.2278
16104TIP3   OH269802   2.137   0.366   4.702 -0.1935  0.1481  0.1626
16104TIP3    H169803   2.107   0.388   4.614  0.6399  0.1873 -0.1233
16104TIP3    H269804   2.097   0.433   4.758 -0.3323  0.4225 -0.2570
16105TIP3   OH269805   5.319   4.793   0.571 -0.2677 -0.1899 -0.4655
16105TIP3    H169806   5.386   4.860   0.555 -0.7868  0.0057 -1.9873
16105TIP3    H269807   5.309   4.749   0.487 -1.2761 -0.9477  0.0344
16106TIP3   OH269808   6.282   0.561  11.264 -0.8278  0.0339  0.1590
16106TIP3    H169809   6.239   0.570  11.179  0.8682 -0.4882 -0.8132
16106TIP3    H269810   6.309   0.650  11.287  0.8029 -0.0950 -1.0608
16107TIP3   OH269811   2.047   6.340   4.120  0.5338  0.0989 -0.0541
16107TIP3    H169812   2.044   6.254   4.076  1.5960  0.4785 -0.9075
16107TIP3    H269813   1.995   6.397   4.063  0.5398  0.2241  0.0660
16108TIP3   OH269814   5.086   4.722  11.581  0.1213  0.3995  0.2577
16108TIP3    H169815   5.108   4.649  11.638  1.2461  1.0430  0.6659
16108TIP3    H269816   5.066   4.794  11.640  1.1114  1.0180 -0.1362
16109TIP3   OH269817   1.044   3.331  15.233  0.0966  0.1019  0.2056
16109TIP3    H169818   1.011   3.420  15.246 -1.9923 -0.5450 -0.2334
16109TIP3    H269819   0.990   3.277  15.291  0.4462 -1.0211 -0.4872
16110TIP3   OH269820   1.824   0.397   0.672 -0.1018 -0.2814  0.2808
16110TIP3    H169821   1.892   0.434   0.616  0.2606 -2.0069 -0.5024
16110TIP3    H269822   1.764   0.470   0.690  1.3577  1.0049  0.0917
16111TIP3   OH269823   6.747   0.646  11.345  0.3133  0.2148  0.0505
16111TIP3    H169824   6.692   0.609  11.276 -1.6670  0.0312  1.6539
16111TIP3    H269825   6.752   0.739  11.325  1.1787 -0.0873 -1.2454
16112TIP3   OH269826   2.968   2.223  16.898  0.2013  0.3693 -0.2480
16112TIP3    H169827   3.048   2.270  16.872  0.0672  1.8421  1.7561
16112TIP3    H269828   3.000   2.153  16.956  0.1913 -0.4596 -1.2236
16113TIP3   OH269829   0.696   1.858   5.784 -0.0136 -0.6914 -0.2257
16113TIP3    H169830   0.690   1.943   5.828 -1.7223 -0.4177 -0.9028
16113TIP3    H269831   0.636   1.802   5.833  4.3341 -2.9957  3.1272
16114TIP3   OH269832   4.413   1.397   4.881  0.8328 -0.0020 -0.5148
16114TIP3    H169833   4.326   1.437   4.873  0.7219 -0.2601 -0.5926
16114TIP3    H269834   4.403   1.330   4.948  1.0951  0.3037 -0.1699
16115TIP3   OH269835   0.113   5.916   4.537 -0.3451  0.4444 -0.8899
16115TIP3    H169836   0.201   5.909   4.574  0.0034  0.7642 -1.6342
16115TIP3    H269837   0.111   6.002   4.496 -1.8744  1.5271  1.2758
16116TIP3   OH269838   1.842   1.890   6.919  0.4089  0.3785  0.4613
16116TIP3    H169839   1.929   1.930   6.923  1.4571 -1.7730  0.4572
16116TIP3    H269840   1.809   1.895   7.009  0.5126  1.2366  0.4564
16117TIP3   OH269841   1.406   0.822   1.246 -0.0445  0.1792  0.1442
16117TIP3    H169842   1.446   0.738   1.267 -0.7283 -0.0020  0.8133
16117TIP3    H269843   1.438   0.844   1.159  0.1692 -0.7605 -0.0227
16118TIP3   OH269844   5.911   5.290   0.977  0.5587  0.0173 -0.0795
16118TIP3    H169845   5.835   5.248   0.937 -0.3829 -0.0660  1.6912
16118TIP3    H269846   5.876   5.371   1.015  1.2606 -0.1883  1.0531
16119TIP3   OH269847   2.227   6.345  16.856  0.1060 -0.2706 -0.0868
16119TIP3    H169848   2.317   6.313  16.843 -0.5723 -2.0723 -0.7208
16119TIP3    H269849   2.222   6.425  16.804  1.6085  0.4316  0.7538
16120TIP3   OH269850   1.853   6.751  11.687  0.2978  0.2668  0.0896
16120TIP3    H169851   1.833   6.799  11.607  0.8674  0.0588 -0.1867
16120TIP3    H269852   1.849   6.817  11.757 -1.7746  0.1542  0.1378
16121TIP3   OH269853   5.212   2.351  16.219 -0.5752  0.2745 -0.3937
16121TIP3    H169854   5.133   2.397  16.191 -1.4143 -0.8728  0.0542
16121TIP3    H269855   5.189   2.259  16.218  0.9342 -0.1411 -0.7844
16122TIP3   OH269856   2.811   3.156  14.999  1.0591 -0.7526 -0.3264
16122TIP3    H169857   2.774   3.070  15.018  2.5960 -1.4932 -0.4856
16122TIP3    H269858   2.764   3.186  14.921 -0.9378 -0.4814  0.9195
16123TIP3   OH269859   5.025   1.875   6.346  0.3876 -0.6517  0.4512
16123TIP3    H169860   5.112   1.848   6.376 -0.2186 -0.9584  2.0098
16123TIP3    H269861   4.967   1.854   6.419 -0.9586 -0.1843 -0.4579
16124TIP3   OH269862   2.156   2.815  12.826  0.0546  0.4911  0.4229
16124TIP3    H169863   2.219   2.755  12.786  2.7908  3.3795  0.0514
16124TIP3    H269864   2.071   2.775  12.808  1.6221 -2.9227 -0.2783
16125TIP3   OH269865   3.891   1.172  11.952  0.1073  0.1596  0.7212
16125TIP3    H169866   3.945   1.203  12.026  0.6264 -2.3546  1.4998
16125TIP3    H269867   3.911   1.078  11.946 -0.6675  0.1037 -2.0357
16126TIP3   OH269868   6.491   5.437  17.305  0.4409  0.4573 -0.3322
16126TIP3    H169869   6.451   5.499  17.245 -2.6118 -0.9087  0.0603
16126TIP3    H269870   6.449   5.455  17.390 -0.6522 -2.0681 -0.2305
16127TIP3   OH269871   5.735   0.564  14.101 -0.3952  0.7603  0.5826
16127TIP3    H169872   5.826   0.562  14.130  0.1882  3.1612 -0.7901
16127TIP3    H269873   5.708   0.472  14.101  2.6897 -0.3074 -0.8741
16128TIP3   OH269874   4.967   3.240   3.144  0.0847  0.0573  0.2308
16128TIP3    H169875   5.003   3.291   3.071 -0.3634 -1.0388 -0.7849
16128TIP3    H269876   4.872   3.245   3.133 -0.0484 -3.6409 -1.9169
16129TIP3   OH269877   3.142   0.611   0.859  0.3144 -0.3339  0.1054
16129TIP3    H169878   3.160   0.591   0.951  0.2388  0.5296  0.3199
16129TIP3    H269879   3.126   0.526   0.818 -4.3962 -0.6336  1.8785
16130TIP3   OH269880   2.151   3.590   5.845 -0.4648 -0.2072  0.0346
16130TIP3    H169881   2.192   3.609   5.760 -0.6830 -1.7993 -0.4560
16130TIP3    H269882   2.199   3.645   5.907  0.3580  0.2610 -0.9809
16131TIP3   OH269883   0.326   4.788  14.769 -0.0814  0.2679 -0.0453
16131TIP3    H169884   0.333   4.860  14.707 -1.2544  0.5940  0.1906
16131TIP3    H269885   0.236   4.757  14.761  0.1807 -0.6666  0.4180
16132TIP3   OH269886   1.006   5.893   4.023 -0.3798  0.8638  0.7930
16132TIP3    H169887   1.006   5.979   4.065  0.0559  1.5394 -0.5275
16132TIP3    H269888   0.964   5.908   3.938  1.5257  0.2324 -0.3187
16133TIP3   OH269889   6.263   6.410   1.092  0.2166 -0.3188 -0.3854
16133TIP3    H169890   6.254   6.449   1.005 -0.7313 -1.6379 -0.8983
16133TIP3    H269891   6.355   6.425   1.114  0.0476  1.6668 -0.7833
16134TIP3   OH269892   0.707   1.345  16.344  0.0949  0.1271  0.3336
16134TIP3    H169893   0.736   1.364  16.433 -0.5266  0.1776  0.5311
16134TIP3    H269894   0.660   1.424  16.317 -0.2437 -0.1244  0.1873
16135TIP3   OH269895   1.749   2.959   2.489  1.2101  0.1152 -0.2438
16135TIP3    H169896   1.808   2.890   2.517  1.7813  1.5300  2.4039
16135TIP3    H269897   1.806   3.030   2.461  0.6323 -0.3447 -2.8582
16136TIP3   OH269898   0.702   2.126  14.927 -0.0830  0.0658  0.3278
16136TIP3    H169899   0.656   2.054  14.884  1.1382 -0.4848 -0.1193
16136TIP3    H269900   0.729   2.090  15.011  0.1364  0.1517  0.2943
16137TIP3   OH269901   1.988   2.123   3.682  0.2570 -0.0655  0.1873
16137TIP3    H169902   1.898   2.150   3.667  0.0005  0.0376  1.6927
16137TIP3    H269903   1.982   2.030   3.703  0.4505  0.0179  0.6285
16138TIP3   OH269904   2.820   5.183  11.484 -0.7897 -0.1045  0.1441
16138TIP3    H169905   2.870   5.146  11.412  1.2789  0.3549  1.2374
16138TIP3    H269906   2.885   5.232  11.535 -2.5245  1.1262  1.2938
16139TIP3   OH269907   6.752   3.721   1.992  0.3658  0.0363  0.2328
16139TIP3    H169908   6.760   3.817   1.999 -0.3534  0.2165 -1.0447
16139TIP3    H269909   6.768   3.703   1.899 -1.4267 -0.8493  0.0551
16140TIP3   OH269910   5.218   0.192  15.259  0.3230 -0.0941 -0.1880
16140TIP3    H169911   5.143   0.168  15.205  0.5669  1.2561 -1.1526
16140TIP3    H269912   5.294   0.176  15.203  0.6744 -0.0214  0.2583
16141TIP3   OH269913   4.737   4.341   3.147 -0.5977  0.8616  0.0803
16141TIP3    H169914   4.792   4.301   3.214  0.3033  0.6541 -0.7732
16141TIP3    H269915   4.723   4.430   3.178  1.6152  1.4531 -0.4743
16142TIP3   OH269916   3.522   3.417   4.937 -0.1643 -0.0478  0.6652
16142TIP3    H169917   3.575   3.349   4.896 -2.0586 -0.4148 -1.3991
16142TIP3    H269918   3.438   3.374   4.956 -0.3673  0.9440  2.1998
16143TIP3   OH269919   6.303   1.501   3.530 -0.1511 -0.3248  0.5163
16143TIP3    H169920   6.394   1.532   3.531 -0.3438  0.3000  2.3901
16143TIP3    H269921   6.276   1.511   3.439  1.6617 -0.6026 -0.1125
16144TIP3   OH269922   0.683   1.671   3.398  0.5420 -0.1079  0.1839
16144TIP3    H169923   0.709   1.661   3.489 -1.1712 -3.0824  0.4675
16144TIP3    H269924   0.602   1.621   3.391 -0.2521  1.3708 -2.6310
16145TIP3   OH269925   2.886   1.888  12.583  0.1722 -0.1467 -0.1486
16145TIP3    H169926   2.917   1.856  12.668  3.9885  0.2787 -1.1840
16145TIP3    H269927   2.880   1.982  12.594 -1.1806 -0.2437  0.1093
16146TIP3   OH269928   6.381   0.420  13.548 -0.5950 -0.2531 -0.0224
16146TIP3    H169929   6.405   0.332  13.578 -0.3456 -0.3008 -0.3560
16146TIP3    H269930   6.287   0.415  13.532 -0.4435 -0.7186 -0.8722
16147TIP3   OH269931   2.255   4.226  11.530 -0.4667 -0.3184  0.1956
16147TIP3    H169932   2.162   4.248  11.530 -0.0267  1.8140 -1.0238
16147TIP3    H269933   2.273   4.197  11.441 -0.0996 -1.5649  0.6492
16148TIP3   OH269934   2.911   3.737  14.289  0.1518  0.0456 -0.1725
16148TIP3    H169935   2.969   3.748  14.365 -1.1774  0.2699  0.8504
16148TIP3    H269936   2.857   3.815  14.288 -1.4363 -0.9957  0.0884
16149TIP3   OH269937   1.801   2.461  16.400  0.1063  0.1485 -0.7191
16149TIP3    H169938   1.743   2.529  16.364 -0.6096 -0.6310 -1.0578
16149TIP3    H269939   1.876   2.510  16.432 -1.2835  1.3421  0.9114
16150TIP3   OH269940   5.405   3.496  15.980  0.4258 -0.7206 -0.3515
16150TIP3    H169941   5.436   3.564  16.040  0.8537  0.3288 -1.7114
16150TIP3    H269942   5.466   3.423  15.993  1.1306 -0.1229 -0.2089
16151TIP3   OH269943   4.732   2.854   1.769 -0.2239 -0.0333 -0.1160
16151TIP3    H169944   4.793   2.869   1.697 -0.3006 -3.0197 -0.9517
16151TIP3    H269945   4.646   2.856   1.728 -0.3971  0.0933  0.2533
16152TIP3   OH269946   1.442   4.041   4.083  0.1123 -0.4892  0.0217
16152TIP3    H169947   1.479   4.044   4.171 -0.0264 -1.3891  0.1170
16152TIP3    H269948   1.360   4.090   4.089 -0.5310 -1.6053  0.7153
16153TIP3   OH269949   0.402   1.414   2.556 -0.2165  0.0433 -0.0376
16153TIP3    H169950   0.431   1.369   2.635 -0.8522 -0.8141 -0.2779
16153TIP3    H269951   0.441   1.363   2.484 -0.8437 -0.0684 -0.3080
16154TIP3   OH269952   0.201   2.022  11.998  0.3765 -0.0434  0.6798
16154TIP3    H169953   0.133   1.966  11.960  0.0075  0.1843  1.0047
16154TIP3    H269954   0.276   2.010  11.940 -0.1157  0.1381 -0.0109
16155TIP3   OH269955   5.604   5.634   3.107 -0.7848  0.5565 -0.0668
16155TIP3    H169956   5.675   5.671   3.160 -0.5074 -0.1820  0.0939
16155TIP3    H269957   5.575   5.707   3.052  2.3547  0.1113 -2.6212
16156TIP3   OH269958   6.111   4.292  13.711  0.5237 -0.3342  0.4238
16156TIP3    H169959   6.023   4.325  13.729  0.2129 -1.0929  0.3350
16156TIP3    H269960   6.157   4.297  13.795  0.6954  0.9209  0.2732
16157TIP3   OH269961   3.799   6.390   0.118  0.4219  0.7596  0.7054
16157TIP3    H169962   3.767   6.313   0.072  0.5276  1.5419 -0.7345
16157TIP3    H269963   3.878   6.360   0.163  1.0573  0.2552 -0.6938
16158TIP3   OH269964   5.302   1.395  15.589  0.8728  0.2531 -0.4149
16158TIP3    H169965   5.292   1.310  15.633  0.6732  0.7890  0.6054
16158TIP3    H269966   5.396   1.412  15.592  0.7194  0.9335  1.0856
16159TIP3   OH269967   4.147   5.899   0.833 -0.2848  0.4254 -0.0768
16159TIP3    H169968   4.121   5.848   0.757  0.7654  0.9857 -0.8315
16159TIP3    H269969   4.221   5.951   0.803 -2.6402  4.1962 -0.0755
16160TIP3   OH269970   4.129   2.002  11.194 -0.4486  0.2307 -0.3089
16160TIP3    H169971   4.100   1.915  11.219  0.2946  0.3578  1.0880
16160TIP3    H269972   4.091   2.060  11.260  0.6544  0.7227 -0.0827
16161TIP3   OH269973   5.146   5.643   3.038  0.4463  0.2937  0.6645
16161TIP3    H169974   5.230   5.600   3.053  0.1707 -0.6343 -0.3807
16161TIP3    H269975   5.080   5.576   3.054 -0.0208  0.5023 -0.3076
16162TIP3   OH269976   5.669   5.633  12.394  0.4352  0.3030  0.5387
16162TIP3    H169977   5.699   5.669  12.478  1.1857  0.7866  0.0780
16162TIP3    H269978   5.691   5.701  12.330  0.4773 -0.3421 -0.1450
16163TIP3   OH269979   5.918   1.470  14.837 -0.3110  0.2869 -0.3689
16163TIP3    H169980   5.862   1.464  14.759  1.6835  1.3249 -1.9760
16163TIP3    H269981   5.969   1.550  14.824  2.5431 -1.2896  0.2876
16164TIP3   OH269982   6.525   1.471   0.300  0.1344  0.7615 -0.1055
16164TIP3    H169983   6.579   1.549   0.314  1.3288  0.2901 -1.6799
16164TIP3    H269984   6.503   1.474   0.207 -1.5138  0.2455  0.2340
16165TIP3   OH269985   6.153   3.621  16.698 -0.5363  0.4483 -0.1208
16165TIP3    H169986   6.129   3.628  16.791 -1.5349 -1.2049 -0.2372
16165TIP3    H269987   6.232   3.566  16.698  1.0415  2.5595 -0.0918
16166TIP3   OH269988   3.091   1.495   1.353  0.0851  0.0610  0.0101
16166TIP3    H169989   3.161   1.464   1.296  0.1920  1.2485 -0.5349
16166TIP3    H269990   3.011   1.481   1.302 -0.1553 -1.6254  0.7703
16167TIP3   OH269991   0.554   2.713   6.377 -0.2712  0.2701  0.0703
16167TIP3    H169992   0.462   2.714   6.402 -0.5850  1.5324 -1.0835
16167TIP3    H269993   0.571   2.621   6.355 -0.9782 -0.1540  1.1706
16168TIP3   OH269994   0.941   5.570  11.270  0.1627  0.0484  0.3529
16168TIP3    H169995   0.884   5.541  11.199  0.4943  0.6511 -0.1752
16168TIP3    H269996   0.907   5.655  11.296  1.7248  1.1482 -1.0492
16169TIP3   OH269997   1.369   3.265   5.393  0.9429 -0.0942  0.4727
16169TIP3    H169998   1.441   3.315   5.355  0.8138 -1.0255 -1.0804
16169TIP3    H269999   1.402   3.237   5.479  1.6172  1.2445  0.6667
16170TIP3   OH270000   3.812   5.901   4.597 -0.3379 -0.5932  0.2378
16170TIP3    H170001   3.815   5.911   4.502  0.6644  0.5720  0.3680
16170TIP3    H270002   3.719   5.893   4.618 -0.6609  0.3981 -0.7330
16171TIP3   OH270003   0.369   6.033   1.168  0.1909 -0.5130  0.4792
16171TIP3    H170004   0.302   6.016   1.102  0.7069 -0.9812  0.0580
16171TIP3    H270005   0.341   6.113   1.211  1.0141  1.1431 -1.8576
16172TIP3   OH270006   2.497   3.972   5.803 -0.1394  0.3482  0.3196
16172TIP3    H170007   2.494   4.016   5.888  2.7574  0.8574  0.2640
16172TIP3    H270008   2.532   3.885   5.823 -1.2120 -0.2080 -0.1619
16173TIP3   OH270009   3.908   5.610  15.412 -0.1397 -0.1047  0.0392
16173TIP3    H170010   3.922   5.699  15.380 -2.0145  0.2738  0.1603
16173TIP3    H270011   3.884   5.560  15.334  0.3813 -0.3888  0.0571
16174TIP3   OH270012   0.786   3.864  17.101  0.9217  0.0675 -0.2306
16174TIP3    H170013   0.841   3.803  17.150 -1.1459 -2.5107 -0.9266
16174TIP3    H270014   0.720   3.893  17.164  2.0994  2.0163  0.1999
16175TIP3   OH270015   1.266   3.991   5.390  0.0437 -0.3144 -0.9093
16175TIP3    H170016   1.295   3.905   5.360  3.1523  1.1168 -2.3640
16175TIP3    H270017   1.274   3.987   5.485  1.6759 -1.1588 -1.0520
16176TIP3   OH270018   5.224   1.629   0.015  0.4829  0.2855 -0.1515
16176TIP3    H170019   5.306   1.660   0.052  1.4226 -0.0912 -1.8313
16176TIP3    H270020   5.166   1.705   0.017  0.4196  0.2439  2.1499
16177TIP3   OH270021   4.845   6.067  12.072  0.3393  0.4374 -0.0876
16177TIP3    H170022   4.823   5.974  12.064 -1.9131  1.0606 -2.4690
16177TIP3    H270023   4.940   6.070  12.059  0.3515 -1.4653 -0.8454
16178TIP3   OH270024   4.516   6.064   5.979 -0.2861 -0.0481 -0.1148
16178TIP3    H170025   4.568   5.984   5.969 -0.3208  0.1598 -2.4077
16178TIP3    H270026   4.481   6.058   6.068  2.2154 -1.0419  0.9050
16179TIP3   OH270027   1.424   3.521  14.614  0.5702  0.2633 -0.3263
16179TIP3    H170028   1.424   3.437  14.660  0.9580  0.6519  0.3768
16179TIP3    H270029   1.383   3.582  14.674  1.4054  0.8552 -0.3438
16180TIP3   OH270030   4.712   1.817   5.921  0.1360 -0.6500 -0.0075
16180TIP3    H170031   4.777   1.830   5.852 -0.9515 -0.0689 -0.9417
16180TIP3    H270032   4.758   1.842   6.002  1.3946 -1.2597 -0.5046
16181TIP3   OH270033   0.397   5.907  13.373  0.3201 -0.4680 -0.7191
16181TIP3    H170034   0.311   5.911  13.332  0.2839 -1.0432 -0.7005
16181TIP3    H270035   0.434   5.823  13.346  0.7152 -0.3989 -0.4143
16182TIP3   OH270036   3.797   6.825  15.021  0.1328 -0.3548 -0.1297
16182TIP3    H170037   3.776   6.756  14.958  1.3912 -0.7208 -0.1773
16182TIP3    H270038   3.724   6.886  15.016 -0.4739 -1.1310 -0.8835
16183TIP3   OH270039   1.671   1.715  13.979 -0.3537 -0.0576 -0.2652
16183TIP3    H170040   1.681   1.631  14.023 -2.2483 -1.5745 -2.5257
16183TIP3    H270041   1.761   1.743  13.960  0.3190 -1.3535  0.8459
16184TIP3   OH270042   2.813   3.301   3.088 -0.3578 -0.6890 -0.3541
16184TIP3    H170043   2.796   3.368   3.154  2.8904  0.6931 -0.7318
16184TIP3    H270044   2.785   3.341   3.006 -0.6511 -0.8033 -0.3138
16185TIP3   OH270045   6.745   6.692  15.359 -0.3223 -0.0684 -0.6193
16185TIP3    H170046   6.692   6.737  15.293 -1.8188 -1.7449 -0.6251
16185TIP3    H270047   6.774   6.611  15.316  0.3001 -0.2702  0.1520
16186TIP3   OH270048   4.027   0.536  13.633 -0.3749  0.2317  0.0070
16186TIP3    H170049   4.035   0.481  13.711 -1.1314 -0.1714 -0.1849
16186TIP3    H270050   4.117   0.550  13.604 -0.1697 -1.4213 -0.2752
16187TIP3   OH270051   5.337   1.627  17.031  0.0955 -0.3804 -0.0992
16187TIP3    H170052   5.399   1.606  17.101 -0.2590  1.8194  0.9586
16187TIP3    H270053   5.319   1.543  16.988  2.2471 -1.3802  0.8357
16188TIP3   OH270054   2.924   1.169   3.411 -0.8396  0.0188 -0.0066
16188TIP3    H170055   3.014   1.166   3.378 -0.5620  0.8272  0.6455
16188TIP3    H270056   2.916   1.256   3.450 -0.8839 -1.1333  2.7502
16189TIP3   OH270057   3.094   4.975   1.655 -0.2126  0.4892  0.0735
16189TIP3    H170058   3.152   4.955   1.729 -0.8469 -1.6833  0.0457
16189TIP3    H270059   3.039   4.897   1.646 -1.2624  1.3789 -1.6620
16190TIP3   OH270060   1.206   5.221  17.188  0.1215  0.0565 -0.2118
16190TIP3    H170061   1.233   5.293  17.244 -1.3376 -0.0213  0.6388
16190TIP3    H270062   1.230   5.142  17.236  0.5324 -0.0314 -0.5491
16191TIP3   OH270063   1.001   0.991  12.400 -0.0467  0.2709  0.5609
16191TIP3    H170064   0.998   0.918  12.338  1.1814 -1.0741  2.0153
16191TIP3    H270065   0.910   0.999  12.431 -0.5058  0.4216 -0.7518
16192TIP3   OH270066   0.440   0.924  16.232  0.1947  1.0314  0.2535
16192TIP3    H170067   0.394   0.924  16.316 -1.6951 -1.4533 -0.6575
16192TIP3    H270068   0.502   0.852  16.238  2.0631  2.5485  0.4010
16193TIP3   OH270069   1.371   1.237   1.040  0.3394 -0.1407  0.1951
16193TIP3    H170070   1.334   1.321   1.069  1.0111 -0.4165  2.0136
16193TIP3    H270071   1.298   1.175   1.046  0.5122 -0.2478  1.7125
16194TIP3   OH270072   2.862   4.373   0.683 -0.0142  0.6780 -0.2701
16194TIP3    H170073   2.777   4.408   0.709 -0.7620 -0.8648 -0.5257
16194TIP3    H270074   2.908   4.357   0.766 -0.0710  1.2434 -0.1235
16195TIP3   OH270075   4.019   6.695  12.543 -0.0021  0.0814 -0.1972
16195TIP3    H170076   3.925   6.706  12.553 -0.2494  0.5326 -2.5165
16195TIP3    H270077   4.056   6.729  12.625 -1.7423  1.4100  0.1012
16196TIP3   OH270078   0.716   2.011   1.948  0.5084  0.2287 -0.1933
16196TIP3    H170079   0.710   2.023   1.853 -1.4653 -0.4333 -0.1865
16196TIP3    H270080   0.748   1.922   1.959  0.1049  0.0752 -0.2472
16197TIP3   OH270081   5.629   0.352  12.435  0.4614 -0.5177 -0.3261
16197TIP3    H170082   5.724   0.361  12.437  0.5320 -1.3273  0.8099
16197TIP3    H270083   5.598   0.397  12.514 -0.2672  1.1749 -1.5053
16198TIP3   OH270084   1.873   3.028  14.119 -0.4189 -0.7507 -0.5177
16198TIP3    H170085   1.965   3.010  14.136 -0.1115  0.8057 -0.3473
16198TIP3    H270086   1.867   3.124  14.118 -1.7109 -0.8010 -2.3260
16199TIP3   OH270087   6.323   2.247   4.286 -0.4879  0.5779 -0.0714
16199TIP3    H170088   6.388   2.288   4.229  0.0093 -0.6340 -0.4095
16199TIP3    H270089   6.246   2.235   4.229  0.0657 -0.7846 -0.5620
16200TIP3   OH270090   5.174   4.578   5.238 -0.6646 -0.0487 -0.7653
16200TIP3    H170091   5.205   4.629   5.313  0.1362  0.6197 -1.5429
16200TIP3    H270092   5.253   4.554   5.191 -0.9159 -2.8210  0.0527
16201TIP3   OH270093   3.973   5.295   2.087  0.0371 -0.3552 -0.1597
16201TIP3    H170094   3.910   5.223   2.082  0.9332 -1.2655  0.9416
16201TIP3    H270095   4.057   5.255   2.067  0.3730  0.6964 -0.9258
16202TIP3   OH270096   0.005   1.147  14.036  0.1639 -0.1380  0.2925
16202TIP3    H170097   0.045   1.061  14.051 -0.3672 -0.4949 -0.3127
16202TIP3    H270098   0.080   1.206  14.030  0.5332 -0.5348  0.7968
16203TIP3   OH270099   3.028   4.486   2.527 -0.4159 -0.1997  0.0884
16203TIP3    H170100   2.978   4.431   2.467 -0.5418  1.0601 -0.9801
16203TIP3    H270101   3.119   4.457   2.515 -0.2209  1.1248 -1.9382
16204TIP3   OH270102   4.643   6.034   2.850  0.2703  0.5810 -0.3540
16204TIP3    H170103   4.680   6.108   2.899 -0.6205 -0.7537  2.5263
16204TIP3    H270104   4.708   5.965   2.860  0.3258  0.4305 -1.6115
16205TIP3   OH270105   1.827   5.272  11.851  0.3083 -0.2715  0.3816
16205TIP3    H170106   1.877   5.295  11.772  0.1868 -1.5734 -0.1023
16205TIP3    H270107   1.803   5.356  11.890 -0.2543  0.4216 -1.3703
16206TIP3   OH270108   4.490   4.845  16.116 -0.1066  0.4789  0.1955
16206TIP3    H170109   4.433   4.921  16.105  0.4850  1.1487  1.5424
16206TIP3    H270110   4.492   4.803  16.030 -0.7103  1.7937 -0.4749
16207TIP3   OH270111   2.327   5.507   0.314  1.0563 -0.0879  0.2298
16207TIP3    H170112   2.293   5.592   0.343 -0.2712 -0.5052 -0.0179
16207TIP3    H270113   2.343   5.519   0.220  0.4290 -0.2286  0.0976
16208TIP3   OH270114   2.406   1.288   0.811  0.1499 -0.0590 -0.2977
16208TIP3    H170115   2.380   1.203   0.848  0.2620  0.0947  0.1366
16208TIP3    H270116   2.353   1.352   0.859  1.7229  0.3175  1.0296
16209TIP3   OH270117   0.769   2.108  15.644 -0.4104 -0.3466 -0.1865
16209TIP3    H170118   0.735   2.165  15.712 -0.3020 -0.0822 -0.3523
16209TIP3    H270119   0.697   2.048  15.624 -0.7318  0.1124 -0.4273
16210TIP3   OH270120   2.735   2.674   0.814  0.3644  0.7157  0.3575
16210TIP3    H170121   2.708   2.584   0.831  1.8249  0.1770 -0.0230
16210TIP3    H270122   2.665   2.710   0.761  0.0978 -0.4322 -0.1100
16211TIP3   OH270123   6.354   1.166  13.729 -0.4213  0.3082  0.0014
16211TIP3    H170124   6.274   1.137  13.684 -0.8714 -1.0448  1.5381
16211TIP3    H270125   6.406   1.208  13.661 -1.7347 -0.2354 -1.4099
16212TIP3   OH270126   4.902   6.755   5.573  0.6619 -0.8262 -0.0040
16212TIP3    H170127   4.841   6.762   5.646  0.1387 -3.0506 -0.1463
16212TIP3    H270128   4.989   6.764   5.613  0.3374 -0.9383  0.7407
16213TIP3   OH270129   6.421   1.367  15.668  0.3214 -0.6320 -0.3339
16213TIP3    H170130   6.514   1.364  15.645  0.3335 -3.3417 -0.2070
16213TIP3    H270131   6.418   1.350  15.762 -0.3086 -0.8120 -0.3777
16214TIP3   OH270132   1.961   5.479  13.455 -0.0227 -0.6828  0.1309
16214TIP3    H170133   2.047   5.454  13.423 -0.3308 -0.3620 -0.9828
16214TIP3    H270134   1.946   5.423  13.531  1.2942 -0.5208  0.5346
16215TIP3   OH270135   0.243   5.024   6.265  0.3184  0.3710  0.9984
16215TIP3    H170136   0.253   5.114   6.296  1.6945  1.5838 -2.4484
16215TIP3    H270137   0.160   5.023   6.217 -1.1475 -1.0944  3.3901
16216TIP3   OH270138   4.704   6.522   4.841 -0.5540  0.0032  0.3514
16216TIP3    H170139   4.775   6.470   4.804 -0.7070  0.4108 -0.5455
16216TIP3    H270140   4.746   6.600   4.877 -0.4215 -0.3183  0.9023
16217TIP3   OH270141   5.161   1.384  16.324  0.2440  0.2679  0.1639
16217TIP3    H170142   5.094   1.367  16.258  0.4164  1.9416 -0.4951
16217TIP3    H270143   5.163   1.305  16.378  0.7025 -1.5477 -2.3499
16218TIP3   OH270144   6.262   3.378  13.002 -0.0825 -0.2221 -0.3411
16218TIP3    H170145   6.323   3.304  12.999 -0.4360 -0.5916  1.1315
16218TIP3    H270146   6.284   3.425  13.082  0.0264  1.2162 -1.1647
16219TIP3   OH270147   1.831   4.004  12.923  0.2025 -0.1335 -0.1546
16219TIP3    H170148   1.849   3.923  12.970  0.5483  0.2427  0.3723
16219TIP3    H270149   1.745   3.991  12.883  0.3431 -0.8301 -0.2375
16220TIP3   OH270150   4.024   6.020   0.403 -0.5889  0.5208 -0.6822
16220TIP3    H170151   4.008   5.927   0.419  1.9468 -0.1134 -1.4651
16220TIP3    H270152   3.965   6.042   0.331 -1.6431 -0.3056 -0.0966
16221TIP3   OH270153   6.547   4.651   3.949  0.0064  0.2893  0.3541
16221TIP3    H170154   6.520   4.693   4.031 -0.0444 -0.4955  0.7465
16221TIP3    H270155   6.554   4.723   3.886 -3.1636  0.5626  0.1617
16222TIP3   OH270156   4.815   3.690   5.678  0.4216 -0.2956  0.2147
16222TIP3    H170157   4.870   3.768   5.673  0.0220 -0.0882 -1.3349
16222TIP3    H270158   4.733   3.722   5.718 -0.2712  0.4338 -1.6847
16223TIP3   OH270159   4.764   5.474  12.719  0.1972 -0.3746  0.0706
16223TIP3    H170160   4.829   5.436  12.779  0.1152  0.2192  0.5492
16223TIP3    H270161   4.749   5.406  12.653 -0.0094 -1.2078  0.9531
16224TIP3   OH270162   4.329   5.133   1.725  0.3334 -0.9318 -0.2307
16224TIP3    H170163   4.240   5.158   1.701  0.5291 -1.2151 -1.3267
16224TIP3    H270164   4.384   5.184   1.665  0.8751 -1.2343  0.0067
16225TIP3   OH270165   4.406   3.295   6.791  0.1307  0.0032 -0.5851
16225TIP3    H170166   4.435   3.204   6.782 -0.1219 -0.0633 -0.7484
16225TIP3    H270167   4.470   3.345   6.740  1.3769  0.1410  1.0515
16226TIP3   OH270168   6.743   6.219   1.379  0.0971 -0.1513  0.0596
16226TIP3    H170169   6.733   6.231   1.284  1.9958  0.8766 -0.0631
16226TIP3    H270170   6.665   6.260   1.416  1.2912  3.4473 -0.9268
16227TIP3   OH270171   5.728   1.075   5.293 -0.5899  0.4267  0.3568
16227TIP3    H170172   5.685   1.161   5.299 -1.2329  0.0746  0.9400
16227TIP3    H270173   5.749   1.065   5.200 -0.7308  1.1090  0.2429
16228TIP3   OH270174   2.510   2.268  12.621 -0.0125  0.2801 -0.8899
16228TIP3    H170175   2.535   2.192  12.569 -1.8061  0.0622 -1.5043
16228TIP3    H270176   2.473   2.329  12.557 -1.5901  0.3079  0.0099
16229TIP3   OH270177   3.628   4.309  13.720  0.1233 -0.6075 -0.1938
16229TIP3    H170178   3.719   4.327  13.741  0.1865 -1.0560 -0.0681
16229TIP3    H270179   3.632   4.241  13.654 -0.1262 -0.8818  0.0707
16230TIP3   OH270180   1.713   4.883  12.727 -0.0439  0.6444  0.5122
16230TIP3    H170181   1.708   4.830  12.647 -0.5755  0.6908  0.5120
16230TIP3    H270182   1.681   4.825  12.796  0.5993  0.5362  0.7337
16231TIP3   OH270183   0.489   2.885  14.273 -0.0188  0.1419  0.1235
16231TIP3    H170184   0.464   2.968  14.232 -0.5226 -0.0152  0.1081
16231TIP3    H270185   0.558   2.909  14.334 -0.5500  0.6633  0.5352
16232TIP3   OH270186   2.448   0.175   4.402 -0.3464  0.1355  0.3575
16232TIP3    H170187   2.495   0.099   4.366 -1.2874 -0.7867  0.9985
16232TIP3    H270188   2.507   0.249   4.389 -0.0770 -0.3835 -1.8610
16233TIP3   OH270189   0.947   4.626   0.153 -0.3882 -0.6120 -0.2071
16233TIP3    H170190   1.032   4.627   0.109 -0.0794 -0.6242  0.3782
16233TIP3    H270191   0.894   4.690   0.106 -0.4640 -1.5138 -1.3783
16234TIP3   OH270192   3.936   2.739  14.423 -0.1949  0.1759 -0.1536
16234TIP3    H170193   4.017   2.782  14.451 -0.3025  0.2580  0.0271
16234TIP3    H270194   3.960   2.695  14.341  1.2459 -3.4314  1.9260
16235TIP3   OH270195   0.194   2.557  16.757 -0.1269  0.9300  0.8070
16235TIP3    H170196   0.280   2.597  16.767  0.4076 -0.2389  1.1034
16235TIP3    H270197   0.180   2.510  16.839 -0.5829  0.2508  0.3554
16236TIP3   OH270198   5.881   2.380   4.263 -0.1309  0.8521  0.2253
16236TIP3    H170199   5.849   2.469   4.244  1.3424  1.3971  0.1783
16236TIP3    H270200   5.831   2.353   4.340 -1.3314  1.3071 -0.3739
16237TIP3   OH270201   5.276   3.551  16.712  0.1232  0.4697 -0.3930
16237TIP3    H170202   5.185   3.520  16.715  0.1036  0.5940  2.5188
16237TIP3    H270203   5.271   3.641  16.745  1.3450  0.3385  0.1796
16238TIP3   OH270204   3.983   1.644   0.662  0.1627  0.0788  0.3606
16238TIP3    H170205   4.044   1.607   0.726 -1.6204 -0.7650  1.6633
16238TIP3    H270206   3.910   1.676   0.714 -2.3129 -2.4328 -1.2852
16239TIP3   OH270207   6.192   4.053   0.012  0.2965  0.1281  0.2564
16239TIP3    H170208   6.277   4.078   0.049  0.1949  0.8256  0.0393
16239TIP3    H270209   6.213   3.990  -0.056  0.5088 -0.9866  1.3153
16240TIP3   OH270210   0.339   3.288   1.759 -0.3632 -0.8787 -0.3449
16240TIP3    H170211   0.398   3.212   1.761  3.8014  2.0606  0.0797
16240TIP3    H270212   0.350   3.324   1.671 -0.3711  0.5222  0.2039
16241TIP3   OH270213   2.690   5.001  14.282  0.4438 -0.1713 -0.1326
16241TIP3    H170214   2.646   4.933  14.230 -0.8887  0.4583  0.1188
16241TIP3    H270215   2.643   5.082  14.259  0.9122  0.3808  0.8103
16242TIP3   OH270216   4.490   4.160   1.707 -0.0103  0.0938  0.5288
16242TIP3    H170217   4.532   4.172   1.622 -0.3897  1.1596  0.4727
16242TIP3    H270218   4.555   4.113   1.760  0.8307  0.7844  0.1262
16243TIP3   OH270219   3.413   0.507  14.585  0.6267  0.0536  0.6960
16243TIP3    H170220   3.464   0.554  14.650  0.2102 -0.2899  1.2857
16243TIP3    H270221   3.396   0.571  14.516  1.8316  0.1751  0.4871
16244TIP3   OH270222   2.158   5.771  16.774 -0.7218 -0.3855 -0.0771
16244TIP3    H170223   2.071   5.771  16.815 -0.8486 -0.9882 -0.3354
16244TIP3    H270224   2.218   5.752  16.846 -0.8818 -0.7559 -0.0353
16245TIP3   OH270225   4.205   6.197   3.960 -0.4160 -0.0525 -0.2348
16245TIP3    H170226   4.130   6.256   3.957  0.0707  0.6591  0.7327
16245TIP3    H270227   4.176   6.124   4.014 -1.1422 -0.8988 -1.7389
16246TIP3   OH270228   1.168   6.220  15.856 -0.2886 -0.3381 -0.5791
16246TIP3    H170229   1.130   6.270  15.784  0.3001  0.6448 -0.2201
16246TIP3    H270230   1.093   6.186  15.905 -0.6886 -0.5328 -1.3118
16247TIP3   OH270231   3.408   6.377   2.913  0.4285  0.6268 -0.0361
16247TIP3    H170232   3.376   6.467   2.902 -1.4556 -0.0210 -0.1229
16247TIP3    H270233   3.461   6.380   2.993  0.3786  1.8078 -0.0338
16248TIP3   OH270234   1.281   2.077   1.079  0.7628 -0.2316  0.4458
16248TIP3    H170235   1.276   1.982   1.081  1.9891 -0.3113  0.4334
16248TIP3    H270236   1.370   2.097   1.110  0.6317  0.8912  0.1307
16249TIP3   OH270237   1.997   3.114   0.212 -0.0880 -0.3181 -0.9127
16249TIP3    H170238   2.044   3.034   0.188  0.7668  0.1970 -1.0015
16249TIP3    H270239   2.041   3.183   0.163  0.5410  0.4994  0.7387
16250TIP3   OH270240   5.326   3.008  17.277  0.7866  0.0364 -0.3806
16250TIP3    H170241   5.417   2.976  17.282 -0.5775 -4.4492  0.4687
16250TIP3    H270242   5.300   3.020  17.368  0.0939 -0.3482 -0.5162
16251TIP3   OH270243   3.463   4.193   5.634  0.1359  0.0832 -0.0951
16251TIP3    H170244   3.463   4.197   5.539  0.8516 -0.8373 -0.1410
16251TIP3    H270245   3.397   4.128   5.656  1.0647 -0.8583 -0.0340
16252TIP3   OH270246   6.772   1.430  12.887  0.1040 -0.8274 -0.3643
16252TIP3    H170247   6.709   1.465  12.824 -0.2034  0.5561  0.6559
16252TIP3    H270248   6.855   1.471  12.862 -0.0251 -0.2520  0.1381
16253TIP3   OH270249   4.824   5.778   2.976 -0.2030  0.4872  0.3819
16253TIP3    H170250   4.800   5.821   3.058 -0.5793  0.5463  0.2425
16253TIP3    H270251   4.907   5.820   2.950 -0.1347  0.5365  0.6789
16254TIP3   OH270252   5.168   1.968  12.907  0.2981 -0.1508 -0.1815
16254TIP3    H170253   5.195   2.000  12.821  1.4702 -1.3755 -0.3109
16254TIP3    H270254   5.236   2.000  12.967 -1.1048  1.6471  0.5085
16255TIP3   OH270255   1.548   5.114   1.342 -0.6211 -0.3494 -0.9720
16255TIP3    H170256   1.617   5.060   1.302 -0.4184 -1.7872  1.1483
16255TIP3    H270257   1.596   5.186   1.384 -0.5830 -0.2659 -1.1605
16256TIP3   OH270258   2.932   5.480  14.802 -0.2210 -0.0184 -0.4927
16256TIP3    H170259   2.995   5.539  14.843 -1.2174  0.6773  0.1061
16256TIP3    H270260   2.931   5.506  14.710 -0.2702  0.5582 -0.3327
16257TIP3   OH270261   5.547   0.786  14.508  0.1010  0.1883  0.3668
16257TIP3    H170262   5.496   0.780  14.427 -1.3238 -2.0834  1.3409
16257TIP3    H270263   5.615   0.719  14.499  1.2952  1.3961  0.1876
16258TIP3   OH270264   6.369   1.892   3.782 -0.0438  0.0150  0.1779
16258TIP3    H170265   6.324   1.906   3.699  0.2849  2.4534  0.3382
16258TIP3    H270266   6.434   1.824   3.764 -0.3471  0.1156 -1.3859
16259TIP3   OH270267   0.525   3.880  11.140 -0.2104 -0.2883  0.4550
16259TIP3    H170268   0.587   3.840  11.201  0.7476  0.6783  0.1376
16259TIP3    H270269   0.441   3.838  11.161  0.0801  0.0327  2.4390
16260TIP3   OH270270   3.080   6.032   3.692  0.1490 -0.4919 -0.6144
16260TIP3    H170271   3.095   5.956   3.748 -0.6571 -1.0881 -1.1696
16260TIP3    H270272   3.115   6.006   3.607 -1.5072 -0.8790 -1.2171
16261TIP3   OH270273   3.624   2.913   3.287 -0.0270 -0.6723  0.2992
16261TIP3    H170274   3.542   2.947   3.251  0.1147 -0.9053 -0.2599
16261TIP3    H270275   3.670   2.990   3.321 -0.2343 -0.4694  0.1154
16262TIP3   OH270276   0.166   3.539   4.463  0.0230  0.1009  0.0465
16262TIP3    H170277   0.080   3.564   4.496  0.2830  2.1571 -0.6852
16262TIP3    H270278   0.225   3.608   4.494  0.9533  0.0117 -1.4087
16263TIP3   OH270279   2.881   2.789   6.513  0.0297  0.0592 -0.0229
16263TIP3    H170280   2.797   2.808   6.554  0.0343 -0.3824  0.1975
16263TIP3    H270281   2.941   2.855   6.551  0.4263 -1.3705  2.0234
16264TIP3   OH270282   2.579   2.244   1.414  0.2194  0.2951 -0.7382
16264TIP3    H170283   2.617   2.304   1.350  1.3723 -0.0490 -0.4198
16264TIP3    H270284   2.651   2.184   1.434 -0.3197  0.0094  0.3980
16265TIP3   OH270285   5.123   5.752   4.202  0.4995 -0.2129  0.4677
16265TIP3    H170286   5.102   5.801   4.282 -1.3009  0.5492 -0.4109
16265TIP3    H270287   5.187   5.807   4.156 -2.4619  2.2048 -1.1548
16266TIP3   OH270288   5.066   3.642  12.878  0.2782 -0.0572  0.7315
16266TIP3    H170289   5.015   3.712  12.837  1.8285  0.0503 -1.1917
16266TIP3    H270290   5.001   3.587  12.921 -1.2907  0.9568 -0.2261
16267TIP3   OH270291   2.437   0.396   0.110 -0.5355 -0.1864 -0.6986
16267TIP3    H170292   2.376   0.442   0.053 -0.6519 -0.7104 -1.0042
16267TIP3    H270293   2.492   0.346   0.050  0.9121  1.1054 -0.5073
16268TIP3   OH270294   5.753   3.655  17.262  0.3085  0.1120 -0.0399
16268TIP3    H170295   5.686   3.600  17.221 -0.7227  0.7917  0.6810
16268TIP3    H270296   5.807   3.593  17.311  0.9131 -0.5738 -1.5178
16269TIP3   OH270297   4.779   5.292   2.711 -0.0580 -0.5357 -0.4377
16269TIP3    H170298   4.834   5.364   2.743  0.5334 -1.3318  0.3910
16269TIP3    H270299   4.699   5.335   2.681  0.7531  0.5888 -1.0907
16270TIP3   OH270300   6.519   4.257  13.840 -0.6343 -0.1719  0.2515
16270TIP3    H170301   6.506   4.178  13.892 -2.1287  0.1382  0.4003
16270TIP3    H270302   6.473   4.325  13.889 -1.7814  0.1948 -1.2519
16271TIP3   OH270303   4.166   1.808  13.334  0.1517  0.2973 -0.1442
16271TIP3    H170304   4.129   1.720  13.329  2.0530 -0.5054 -1.4345
16271TIP3    H270305   4.207   1.821  13.249  1.2667  1.7918  0.5819
16272TIP3   OH270306   2.152   3.232  12.122  0.5708  0.2013  0.1167
16272TIP3    H170307   2.085   3.208  12.058  1.3216 -1.0730 -0.2389
16272TIP3    H270308   2.127   3.184  12.201  0.3213  0.7999  0.4026
16273TIP3   OH270309   0.194   6.621  15.611  0.6267  0.6729 -0.2640
16273TIP3    H170310   0.288   6.606  15.606  0.3433 -1.3657 -0.4872
16273TIP3    H270311   0.155   6.536  15.592 -1.2285  0.6400  2.9511
16274TIP3   OH270312   5.249   4.684   1.634  0.6760 -0.0934 -0.7764
16274TIP3    H170313   5.334   4.702   1.594  0.9876 -0.3992 -0.2613
16274TIP3    H270314   5.263   4.693   1.728  0.3314 -0.9054 -0.6359
16275TIP3   OH270315   2.567   2.870  13.028 -0.1417 -0.3567  0.0898
16275TIP3    H170316   2.520   2.851  13.109  0.3653 -0.6757  0.3169
16275TIP3    H270317   2.531   2.953  12.997  2.0061  1.6369  2.4853
16276TIP3   OH270318   1.121   2.181  10.296  0.2962  0.1668  0.4516
16276TIP3    H170319   1.029   2.192  10.323  0.2588  1.0787 -0.0133
16276TIP3    H270320   1.147   2.098  10.335 -0.6659 -0.0019  0.7731
16277TIP3   OH270321   5.886   1.537   0.755  0.2552  0.0503 -0.7365
16277TIP3    H170322   5.881   1.526   0.660  1.4675  0.3186 -0.8560
16277TIP3    H270323   5.963   1.486   0.781 -1.9954 -2.9764  0.6292
16278TIP3   OH270324   5.968   4.657   5.325  0.0920  0.5405  0.3001
16278TIP3    H170325   5.978   4.710   5.405  0.0479  0.3599  0.4277
16278TIP3    H270326   5.877   4.670   5.299 -0.2061 -0.2395  0.8900
16279TIP3   OH270327   1.153   1.279  16.568 -0.1776 -0.1101  0.1837
16279TIP3    H170328   1.129   1.366  16.601  0.6387  0.3177 -0.3225
16279TIP3    H270329   1.083   1.221  16.600 -1.1633  0.8637 -0.1441
16280TIP3   OH270330   0.869   0.222   2.684 -0.5523  0.3154  0.2918
16280TIP3    H170331   0.862   0.293   2.621  0.7432 -0.4500 -0.7902
16280TIP3    H270332   0.950   0.177   2.659 -0.1872 -0.2241  2.3086
16281TIP3   OH270333   6.227   1.392   1.372  0.0308 -0.2815 -0.1865
16281TIP3    H170334   6.311   1.429   1.345 -0.4381 -0.8837 -2.7385
16281TIP3    H270335   6.241   1.298   1.370 -0.5595 -0.3712 -0.1852
16282TIP3   OH270336   2.112   2.847   0.991 -0.1041  0.7009  0.5173
16282TIP3    H170337   2.026   2.806   0.981 -1.1348  2.6007  1.1396
16282TIP3    H270338   2.111   2.920   0.928  0.9377  0.9356  0.7533
16283TIP3   OH270339   4.191   5.746  10.448  0.1013 -0.0628  0.3637
16283TIP3    H170340   4.119   5.691  10.418  0.6549  0.3799 -2.0102
16283TIP3    H270341   4.150   5.829  10.473 -0.2868 -0.0292 -0.3676
16284TIP3   OH270342   0.317   2.725  13.293 -0.0184  0.3036 -0.4368
16284TIP3    H170343   0.353   2.807  13.259 -0.3241  0.5128 -0.2519
16284TIP3    H270344   0.279   2.748  13.377 -0.3468  0.0283 -0.5063
16285TIP3   OH270345   5.316   6.565  15.962  0.0348 -0.0057  0.3421
16285TIP3    H170346   5.236   6.516  15.942  0.5137 -0.2242 -1.1686
16285TIP3    H270347   5.382   6.528  15.903  1.7739 -1.1567  2.8178
16286TIP3   OH270348   1.763   0.138   0.894 -0.3839 -0.0151  0.4413
16286TIP3    H170349   1.722   0.052   0.899 -0.0037 -0.1798  0.7988
16286TIP3    H270350   1.847   0.122   0.851 -0.3434  0.1901  0.4403
16287TIP3   OH270351   2.145   2.278   3.118 -0.1592 -0.6675  0.5699
16287TIP3    H170352   2.210   2.241   3.058  0.6051  0.3785  0.7277
16287TIP3    H270353   2.074   2.214   3.119  1.0756 -2.0823  0.7693
16288TIP3   OH270354   4.147   1.489   4.898  0.3056  0.3128  0.7156
16288TIP3    H170355   4.148   1.552   4.970  0.2144  0.7123  0.3706
16288TIP3    H270356   4.060   1.449   4.903 -0.0504  1.0043  0.2654
16289TIP3   OH270357   1.144   4.192   2.779  0.0485 -0.1833  0.0809
16289TIP3    H170358   1.136   4.155   2.867 -1.9979  1.1538  0.5282
16289TIP3    H270359   1.175   4.119   2.725  0.6439 -1.2230  1.7632
16290TIP3   OH270360   0.589   6.036  16.854 -0.4365 -0.0809 -0.5117
16290TIP3    H170361   0.503   5.993  16.850 -0.2935 -0.4196  0.0969
16290TIP3    H270362   0.648   5.969  16.887  0.2435 -0.1114 -1.7404
16291TIP3   OH270363   6.707   1.427   1.567  0.2412  0.4056 -0.3756
16291TIP3    H170364   6.630   1.483   1.573  0.9118  1.2867  0.2402
16291TIP3    H270365   6.771   1.468   1.625  1.4421  0.1098 -1.4553
16292TIP3   OH270366   5.432   1.229   0.933 -0.9250 -0.1083  0.5854
16292TIP3    H170367   5.445   1.245   1.026 -0.1138 -0.6000  0.5614
16292TIP3    H270368   5.520   1.235   0.895 -1.2202 -0.1121 -0.1171
16293TIP3   OH270369   2.615   2.913  14.182  0.1629 -0.0875  0.1135
16293TIP3    H170370   2.696   2.935  14.137 -0.6052  1.8816 -0.4282
16293TIP3    H270371   2.625   2.951  14.269 -0.6791  1.4543 -0.4151
16294TIP3   OH270372   2.471   2.287   3.030  0.1687  0.4745  0.3544
16294TIP3    H170373   2.537   2.263   2.965  0.7629  1.2261  0.6594
16294TIP3    H270374   2.453   2.380   3.012  0.5394  0.7645  1.4173
16295TIP3   OH270375   0.502   1.561  12.281 -0.0621 -0.4317  0.3894
16295TIP3    H170376   0.596   1.545  12.275  0.0062 -0.4949  1.4053
16295TIP3    H270377   0.477   1.521  12.364 -0.8564  0.2108  0.4692
16296TIP3   OH270378   6.492   5.378  14.865  0.2067 -0.8022  0.1711
16296TIP3    H170379   6.557   5.329  14.816  0.9393  0.1349  0.1841
16296TIP3    H270380   6.446   5.431  14.800 -0.8327 -1.7436  0.1044
16297TIP3   OH270381   0.396   3.298   2.167 -0.0607  0.6049 -0.8517
16297TIP3    H170382   0.329   3.317   2.233  0.1628  0.9528 -0.7205
16297TIP3    H270383   0.420   3.384   2.133  1.5175  0.6522  0.2908
16298TIP3   OH270384   4.298   6.557   4.095 -0.2419  0.4960  0.1960
16298TIP3    H170385   4.303   6.468   4.127 -0.7501  0.3700 -0.0618
16298TIP3    H270386   4.294   6.611   4.174 -0.3490  0.2645  0.3497
16299TIP3   OH270387   2.499   0.013  11.746 -0.2655 -0.5449 -0.4731
16299TIP3    H170388   2.516  -0.078  11.770 -0.6755 -0.5939 -0.3759
16299TIP3    H270389   2.407   0.015  11.720 -0.2880 -0.1343 -0.3670
16300TIP3   OH270390   5.256   3.965  12.099 -0.0588 -0.7983 -0.1025
16300TIP3    H170391   5.268   3.879  12.140  0.1763 -0.9966 -0.5849
16300TIP3    H270392   5.171   3.959  12.056 -1.1489 -0.0011  1.7924
16301TIP3   OH270393   3.191   3.290   0.043 -0.0089 -0.2629 -0.1756
16301TIP3    H170394   3.249   3.365   0.047  0.3773 -0.5771  0.2662
16301TIP3    H270395   3.107   3.322   0.077 -0.1147  0.2019 -0.8581
16302TIP3   OH270396   6.020   3.575   0.279  0.1344 -0.0684 -0.0109
16302TIP3    H170397   6.104   3.609   0.309  0.2993  0.0153 -0.5583
16302TIP3    H270398   5.958   3.646   0.299  0.1032 -0.3185  0.8263
16303TIP3   OH270399   2.234   1.781  12.131  0.5832  0.1363  0.0662
16303TIP3    H170400   2.222   1.776  12.226  0.4831  0.2026  0.0566
16303TIP3    H270401   2.316   1.829  12.120  1.3918 -1.1851  0.1472
16304TIP3   OH270402   6.291   4.074   1.934  0.1532 -0.0051  0.3117
16304TIP3    H170403   6.342   4.093   1.856 -2.3004  0.2948 -1.3429
16304TIP3    H270404   6.313   4.144   1.996  0.8068  0.8012 -0.8045
16305TIP3   OH270405   3.272   4.445  17.208 -0.6060  0.0602  0.3433
16305TIP3    H170406   3.345   4.472  17.152 -1.6239  0.8142 -0.6814
16305TIP3    H270407   3.197   4.495  17.175 -2.1095 -2.3590 -0.1453
16306TIP3   OH270408   1.359   6.663   6.152  0.1161  0.0525  0.0435
16306TIP3    H170409   1.293   6.716   6.107  0.5966  1.1737  0.6263
16306TIP3    H270410   1.317   6.637   6.234 -0.8442 -2.1816 -1.0445
16307TIP3   OH270411   0.654   0.407  12.217  0.1269  0.0730 -0.6454
16307TIP3    H170412   0.704   0.482  12.249  0.9118 -0.2221 -1.1477
16307TIP3    H270413   0.570   0.413  12.263  1.1825 -0.3237  1.4421
16308TIP3   OH270414   0.918   5.646   3.053 -0.0305  0.3876 -0.4815
16308TIP3    H170415   0.903   5.589   2.978 -0.1665  0.4458 -0.4977
16308TIP3    H270416   0.942   5.587   3.124 -0.0650  0.3199 -0.5266
16309TIP3   OH270417   4.794   1.499   1.275 -0.7491  0.4700  0.1073
16309TIP3    H170418   4.859   1.437   1.306 -3.7995 -2.9961  0.3240
16309TIP3    H270419   4.794   1.489   1.180 -1.2910 -0.0039  0.1474
16310TIP3   OH270420   0.144   5.736   1.837  0.2136 -0.2467 -0.4848
16310TIP3    H170421   0.138   5.756   1.931 -0.4879  0.3661 -0.6518
16310TIP3    H270422   0.198   5.807   1.802 -1.4684  0.8856 -0.9171
16311TIP3   OH270423   1.940   3.137  13.202  0.3884  0.3844 -0.1018
16311TIP3    H170424   1.992   3.216  13.184 -0.2462  0.5740 -1.1758
16311TIP3    H270425   1.925   3.139  13.297 -2.2344  3.2530 -0.4094
16312TIP3   OH270426   0.136   6.629   4.838 -0.1506  0.1935 -0.4601
16312TIP3    H170427   0.160   6.721   4.840  0.9783 -0.0558 -1.5651
16312TIP3    H270428   0.113   6.611   4.747 -0.2413 -0.6460 -0.2859
16313TIP3   OH270429   3.612   5.959   1.872  0.2208  0.1064  0.1443
16313TIP3    H170430   3.630   5.907   1.951 -4.4674  1.0525  2.1309
16313TIP3    H270431   3.535   5.918   1.833 -0.0266  2.1205 -1.6562
16314TIP3   OH270432   4.474   5.804  16.154 -0.3504  0.6507  0.3831
16314TIP3    H170433   4.401   5.866  16.148  1.0357  2.2163 -1.5078
16314TIP3    H270434   4.504   5.812  16.245 -0.8245  2.0439  0.4532
16315TIP3   OH270435   1.289   6.818  11.551 -0.4652 -0.4688 -0.1318
16315TIP3    H170436   1.307   6.767  11.472  1.4897  2.2797 -1.6357
16315TIP3    H270437   1.199   6.847  11.541 -0.7599 -1.4740 -0.5216
16316TIP3   OH270438   5.554   1.025  12.109  0.3416 -0.9351 -0.3810
16316TIP3    H170439   5.533   1.031  12.202 -0.1513 -0.2538 -0.5301
16316TIP3    H270440   5.521   0.939  12.083 -1.8604 -0.1284 -0.4858
16317TIP3   OH270441   1.433   2.648  12.399 -0.4714  0.3502 -0.2660
16317TIP3    H170442   1.527   2.641  12.410 -0.2850  0.6330 -1.5622
16317TIP3    H270443   1.402   2.557  12.395 -0.2637  0.2593  0.1870
16318TIP3   OH270444   3.760   3.012  14.959 -1.1029 -0.4305 -0.3345
16318TIP3    H170445   3.838   2.965  14.989  0.4657  2.2658  0.1912
16318TIP3    H270446   3.729   3.058  15.037 -1.3436  0.9591 -1.2121
16319TIP3   OH270447   4.594   3.447  14.592  0.0412  0.0407 -0.2568
16319TIP3    H170448   4.580   3.459  14.686  0.2285 -0.4309 -0.1653
16319TIP3    H270449   4.689   3.448  14.582  0.0007  1.2766 -0.6068
16320TIP3   OH270450   4.982   6.822   1.166  0.2124  0.0420  0.2153
16320TIP3    H170451   5.017   6.779   1.088 -2.2074 -1.1092 -0.3590
16320TIP3    H270452   4.887   6.818   1.153 -0.2308  0.4329  2.9258
16321TIP3   OH270453   2.512   4.879   5.778 -0.1998 -0.3260  0.3477
16321TIP3    H170454   2.472   4.811   5.723  0.9444 -0.3730 -0.4645
16321TIP3    H270455   2.606   4.862   5.771  0.0749  1.0776  0.4891
16322TIP3   OH270456   3.640   5.644   3.090  0.6212  0.2880  0.6074
16322TIP3    H170457   3.730   5.614   3.102  0.3175 -0.1581  1.9362
16322TIP3    H270458   3.586   5.572   3.123 -0.2325  0.5355 -0.1979
16323TIP3   OH270459   0.896   2.412  13.697 -0.1498 -0.3481  0.0080
16323TIP3    H170460   0.827   2.424  13.763 -0.0485  1.2621 -0.1447
16323TIP3    H270461   0.859   2.449  13.617  0.9318  0.6700 -0.0414
16324TIP3   OH270462   1.545   1.837  12.420  0.6260  0.3451  0.6041
16324TIP3    H170463   1.479   1.905  12.409 -0.7402 -1.1326 -0.8731
16324TIP3    H270464   1.607   1.852  12.348 -0.6923 -0.9935 -0.8932
16325TIP3   OH270465   0.169   2.663   0.197  0.5451 -0.5350 -0.2565
16325TIP3    H170466   0.166   2.732   0.130 -2.7009 -2.3761 -2.2983
16325TIP3    H270467   0.249   2.614   0.178  2.1799  1.7101  0.3666
16326TIP3   OH270468   4.514   1.967  15.093 -0.3160 -0.3633 -0.2043
16326TIP3    H170469   4.484   2.033  15.156  0.4470 -0.3675  0.1736
16326TIP3    H270470   4.501   2.009  15.008 -2.1606 -0.6811 -0.1287
16327TIP3   OH270471   6.109   4.333   5.967  0.0982 -0.5316  0.2168
16327TIP3    H170472   6.060   4.280   6.030  0.6027  0.4589  1.4750
16327TIP3    H270473   6.090   4.424   5.992 -0.3975 -0.0854 -1.6165
16328TIP3   OH270474   2.860   2.413  12.567  0.0861 -0.1748  0.3312
16328TIP3    H170475   2.884   2.466  12.491 -1.0634 -0.3325 -0.1672
16328TIP3    H270476   2.780   2.454  12.601  1.4004  0.8403  2.4407
16329TIP3   OH270477   2.027   5.110  15.515 -0.3262  0.1612 -0.0004
16329TIP3    H170478   1.976   5.169  15.569 -1.0255 -0.2319 -0.2192
16329TIP3    H270479   2.115   5.147  15.516 -0.2904  0.1154  1.4759
16330TIP3   OH270480   0.878   4.455  11.156 -0.8630  0.3089  0.2265
16330TIP3    H170481   0.934   4.462  11.233  0.2383  0.9452 -0.5977
16330TIP3    H270482   0.921   4.510  11.090 -1.6809 -0.3569 -0.8984
16331TIP3   OH270483   4.026   4.208   3.716 -0.3762 -0.4487  0.7853
16331TIP3    H170484   4.054   4.222   3.806  0.6737 -1.5856  0.6661
16331TIP3    H270485   4.051   4.117   3.697  0.0782 -0.0085 -0.8637
16332TIP3   OH270486   3.020   2.961   5.485 -0.3889  0.3088 -0.3836
16332TIP3    H170487   2.983   2.874   5.500 -0.0883  0.3282  0.5559
16332TIP3    H270488   3.089   2.947   5.420  0.0054 -0.2530  0.1459
16333TIP3   OH270489   3.359   4.050  12.686  0.0150 -0.0780  0.2027
16333TIP3    H170490   3.277   4.006  12.663  1.1670 -2.0916 -0.3239
16333TIP3    H270491   3.374   4.026  12.777 -0.0781  0.4822  0.3710
16334TIP3   OH270492   0.609   4.917  15.644 -0.1821 -0.8016 -0.4468
16334TIP3    H170493   0.613   4.864  15.563  1.1283  0.5006 -1.2900
16334TIP3    H270494   0.677   4.984  15.632 -0.4172 -0.1604  1.4673
16335TIP3   OH270495   2.240   5.729   4.111  0.8562 -0.4032 -0.2511
16335TIP3    H170496   2.226   5.663   4.043  2.2290  0.3994 -1.3648
16335TIP3    H270497   2.335   5.730   4.125  0.7555  0.5963  0.5137
16336TIP3   OH270498   2.739   0.430  11.096  0.1492  0.0166  0.2518
16336TIP3    H170499   2.815   0.390  11.137 -1.0781 -0.5160  2.1229
16336TIP3    H270500   2.684   0.356  11.071  0.1828  0.3968 -1.0350
16337TIP3   OH270501   3.416   3.923  13.520 -0.5465  0.0750 -0.5364
16337TIP3    H170502   3.414   4.017  13.502 -0.1910  0.1002 -0.4509
16337TIP3    H270503   3.352   3.886  13.460 -1.5974  0.5139  0.2724
16338TIP3   OH270504   2.955   2.489   6.541  0.1913 -0.2128 -0.7186
16338TIP3    H170505   3.002   2.430   6.601  0.0811 -0.5686 -0.9793
16338TIP3    H270506   2.939   2.567   6.593  0.6978 -0.2533 -0.4912
16339TIP3   OH270507   2.227   3.203  11.710 -0.9384 -0.2506 -0.1356
16339TIP3    H170508   2.244   3.110  11.696  0.2843  0.0103 -0.4668
16339TIP3    H270509   2.157   3.204  11.777 -0.6721 -1.3907  0.1905
16340TIP3   OH270510   4.316   1.327   5.151 -0.2435 -0.4777 -0.2629
16340TIP3    H170511   4.254   1.400   5.156  0.7613  0.5441 -1.8758
16340TIP3    H270512   4.367   1.334   5.232  0.2781  1.0502 -0.6899
16341TIP3   OH270513   2.933   3.697  16.915  0.6334  0.0739  0.6071
16341TIP3    H170514   3.017   3.737  16.939  1.4073 -1.7446  1.1293
16341TIP3    H270515   2.957   3.613  16.877 -0.9759 -0.6930  1.1983
16342TIP3   OH270516   5.560   5.741  13.396  0.1631  0.2893 -0.1627
16342TIP3    H170517   5.480   5.791  13.412  0.2690  0.0016  1.4080
16342TIP3    H270518   5.615   5.759  13.473  2.2507  1.6633 -1.8583
16343TIP3   OH270519   3.944   0.835  15.960  0.5231  0.0036 -0.2977
16343TIP3    H170520   3.977   0.769  16.020 -0.9497 -2.1181 -1.6766
16343TIP3    H270521   3.895   0.896  16.016 -1.0833 -2.0724  0.7043
16344TIP3   OH270522   2.196   3.319  14.110  0.7380 -0.5632  0.0712
16344TIP3    H170523   2.238   3.257  14.050  0.9941  0.5948 -0.9650
16344TIP3    H270524   2.103   3.298  14.104  0.7054 -0.1135 -1.1401
16345TIP3   OH270525   3.691   3.868  14.745 -0.2591  0.4490 -0.6815
16345TIP3    H170526   3.752   3.812  14.794 -0.2383  0.7749 -0.3342
16345TIP3    H270527   3.605   3.827  14.760 -0.3235  0.8442  0.0602
16346TIP3   OH270528   0.365   2.387  10.788 -0.1881 -0.0081  0.2286
16346TIP3    H170529   0.365   2.379  10.693  0.9634 -0.1577  0.2323
16346TIP3    H270530   0.444   2.342  10.817 -1.2225 -1.1879  1.3770
16347TIP3   OH270531   3.353   4.142   0.533 -0.2135 -0.3076  0.0700
16347TIP3    H170532   3.296   4.154   0.609  0.8074 -0.7155  0.9459
16347TIP3    H270533   3.371   4.230   0.501 -0.7031 -0.1352  0.2661
16348TIP3   OH270534   1.590   1.182  11.895  0.4069  0.0165  0.0916
16348TIP3    H170535   1.653   1.156  11.827  1.1554  1.6741  0.1020
16348TIP3    H270536   1.632   1.157  11.977  2.8554  4.1603  0.3829
16349TIP3   OH270537   2.780   4.857  12.643  0.6082 -0.5168  0.2847
16349TIP3    H170538   2.815   4.777  12.604  0.7809 -0.4710  0.3496
16349TIP3    H270539   2.687   4.838  12.656  0.3989 -0.2930 -0.7893
16350TIP3   OH270540   1.797   2.668  17.292  0.3540 -0.2192 -0.1742
16350TIP3    H170541   1.730   2.646  17.228  0.6359 -0.0710 -0.5242
16350TIP3    H270542   1.863   2.599  17.283  0.1043 -0.5401  0.3883
16351TIP3   OH270543   0.905   3.289   4.268  0.4906  0.4881 -0.2355
16351TIP3    H170544   0.992   3.262   4.239  0.5680 -1.2367  1.4401
16351TIP3    H270545   0.921   3.332   4.352 -0.2574  0.3739 -0.0351
16352TIP3   OH270546   0.811   1.804  15.044  0.3106  0.5393  0.0372
16352TIP3    H170547   0.903   1.814  15.019  0.2351 -0.4333 -0.6833
16352TIP3    H270548   0.814   1.772  15.134  0.6948  0.0331 -0.1510
16353TIP3   OH270549   3.815   4.833   1.129  0.1143 -0.2912  0.1162
16353TIP3    H170550   3.741   4.794   1.082  0.7645  0.1362 -1.3107
16353TIP3    H270551   3.816   4.924   1.101 -0.2439  0.3434  1.9874
16354TIP3   OH270552   2.144   2.767   2.839  0.3613 -0.4850  0.0738
16354TIP3    H170553   2.203   2.692   2.834  1.8679  0.3533  2.9331
16354TIP3    H270554   2.192   2.839   2.799  0.4314 -0.2602  0.5534
16355TIP3   OH270555   0.348   3.114  14.886  0.3196 -0.1849  0.1458
16355TIP3    H170556   0.276   3.064  14.848 -1.1531  1.4009  0.6970
16355TIP3    H270557   0.326   3.205  14.868  2.1529  0.3600  0.4448
16356TIP3   OH270558   5.748   1.590  11.471 -0.2481  0.2328 -0.3771
16356TIP3    H170559   5.653   1.592  11.482 -0.2158  0.1113 -0.0858
16356TIP3    H270560   5.773   1.682  11.468 -0.0374  0.3453  2.4697
16357TIP3   OH270561   5.135   5.730  16.180  0.0756 -0.1459 -0.7659
16357TIP3    H170562   5.156   5.723  16.273  0.2942  2.8935 -0.4870
16357TIP3    H270563   5.042   5.708  16.174  0.3954 -1.7767 -0.0937
16358TIP3   OH270564   0.565   3.297   1.138 -0.0850  0.1460 -0.2702
16358TIP3    H170565   0.482   3.337   1.111 -0.6763  0.2454  1.5554
16358TIP3    H270566   0.626   3.370   1.146 -0.7806  0.5832  1.6752
16359TIP3   OH270567   6.071   6.699   0.751 -0.1225  0.1645  0.4016
16359TIP3    H170568   6.022   6.654   0.681 -0.1543 -0.1389  0.6171
16359TIP3    H270569   6.004   6.721   0.816  0.3517 -2.7572  2.0534
16360TIP3   OH270570   1.252   0.896   1.715 -0.6125  0.3881  0.5527
16360TIP3    H170571   1.272   0.965   1.651  1.1656  0.5848  1.2503
16360TIP3    H270572   1.212   0.826   1.663  0.9831  0.4473 -0.8410
16361TIP3   OH270573   4.073   2.455   0.841  0.3699  0.0940  0.6420
16361TIP3    H170574   4.095   2.547   0.828 -2.2313  0.8031  0.6842
16361TIP3    H270575   4.112   2.411   0.766  2.2940  1.0796  1.0065
16362TIP3   OH270576   2.102   2.342   5.474  0.1536 -0.3280 -0.3256
16362TIP3    H170577   2.092   2.386   5.558 -0.4716 -0.0263 -0.5497
16362TIP3    H270578   2.033   2.380   5.419  1.2850  0.3437 -1.3355
16363TIP3   OH270579   2.601   5.506  16.760 -0.2043 -0.1374  0.0035
16363TIP3    H170580   2.567   5.495  16.671 -0.1094  0.9456 -0.1796
16363TIP3    H270581   2.640   5.422  16.781  0.6021 -0.1312 -1.3520
16364TIP3   OH270582   2.551   0.941   5.260 -0.2171  0.2028  0.6650
16364TIP3    H170583   2.547   0.847   5.241 -1.5717  0.7165 -2.2238
16364TIP3    H270584   2.641   0.966   5.241 -0.3030 -0.2312 -0.3915
16365TIP3   OH270585   3.222   1.360   2.234 -0.2347 -0.1315 -0.0500
16365TIP3    H170586   3.245   1.417   2.308  1.3396  0.0929 -0.6727
16365TIP3    H270587   3.167   1.414   2.178 -0.1290  0.2200  0.1837
16366TIP3   OH270588   2.261   0.250   0.718  0.1402 -0.1639  0.0540
16366TIP3    H170589   2.333   0.283   0.664  1.1398 -1.6783  0.4111
16366TIP3    H270590   2.284   0.277   0.807  0.4248 -0.9122  0.2091
16367TIP3   OH270591   2.714   3.222  14.178 -0.0577  0.0340 -0.4310
16367TIP3    H170592   2.694   3.216  14.272 -1.4674  2.2408 -0.4880
16367TIP3    H270593   2.793   3.171  14.167 -0.2862 -0.9555  1.8199
16368TIP3   OH270594   2.683   2.394   0.893  0.0816  0.8248  0.0596
16368TIP3    H170595   2.728   2.324   0.940  1.5003  0.9456 -1.0632
16368TIP3    H270596   2.689   2.369   0.801  0.6265  2.4185 -0.3748
16369TIP3   OH270597   2.367   2.778  13.240 -0.1592 -0.3031 -0.3677
16369TIP3    H170598   2.311   2.815  13.172  0.5287 -1.0254 -1.3609
16369TIP3    H270599   2.306   2.748  13.308 -0.9800 -0.8517 -1.3163
16370TIP3   OH270600   5.651   3.792  11.311 -0.4878 -0.0477  0.4096
16370TIP3    H170601   5.579   3.852  11.288  0.3606  0.0786 -2.3532
16370TIP3    H270602   5.730   3.846  11.302  0.0745 -0.6724  1.5060
16371TIP3   OH270603   5.171   0.574  16.340  0.0154  0.5572 -0.2154
16371TIP3    H170604   5.095   0.521  16.363 -1.0267  0.9960 -2.4529
16371TIP3    H270605   5.135   0.648  16.292  1.8993  0.4845 -1.8462
16372TIP3   OH270606   1.907   2.733   0.424  0.7768 -0.1329  0.0481
16372TIP3    H170607   1.972   2.790   0.465  1.1570  0.1600 -0.9374
16372TIP3    H270608   1.958   2.674   0.370  0.3260 -0.9456  0.4932
16373TIP3   OH270609   0.167   1.664   1.973 -0.0551  0.2266  0.4927
16373TIP3    H170610   0.076   1.656   1.944  0.6713 -0.5532 -1.8100
16373TIP3    H270611   0.191   1.576   2.001  0.3604  0.1081 -0.2000
16374TIP3   OH270612   1.934   0.352   0.972  0.2255 -0.4337  0.5114
16374TIP3    H170613   1.869   0.284   0.955 -1.4729  0.9031  1.3642
16374TIP3    H270614   1.897   0.431   0.936  1.9674  0.1731 -0.0639
16375TIP3   OH270615   3.228   3.560   4.706  0.3226 -0.2965  0.2718
16375TIP3    H170616   3.183   3.484   4.744 -0.8506  0.1596 -0.1402
16375TIP3    H270617   3.298   3.522   4.653  1.2083 -0.9847  1.8693
16376TIP3   OH270618   5.737   6.391  11.070 -0.2811 -0.3710 -0.2883
16376TIP3    H170619   5.739   6.409  10.976 -0.5953  0.9102 -0.0771
16376TIP3    H270620   5.685   6.464  11.107  0.9247 -0.1321  1.0225
16377TIP3   OH270621   5.370   6.394   3.055 -0.2290 -0.2783 -0.8513
16377TIP3    H170622   5.344   6.315   3.103 -0.8679  0.0457 -0.6546
16377TIP3    H270623   5.372   6.366   2.963  1.8425 -1.1284 -0.5918
16378TIP3   OH270624   5.743   4.431   0.734 -0.0731 -0.0763  0.0666
16378TIP3    H170625   5.720   4.361   0.673 -0.6151  1.6201 -1.7901
16378TIP3    H270626   5.825   4.401   0.774  0.3608 -1.2378 -1.5704
16379TIP3   OH270627   5.703   5.144  12.968 -0.0887  0.3265 -0.0568
16379TIP3    H170628   5.692   5.206  12.896 -2.2352 -0.2933 -0.3445
16379TIP3    H270629   5.797   5.143  12.985  0.1414  2.7424 -0.8265
16380TIP3   OH270630   4.958   4.695   4.617 -0.8398 -0.4371 -0.2885
16380TIP3    H170631   4.905   4.773   4.600  0.0180  0.5658  1.3830
16380TIP3    H270632   4.896   4.631   4.653 -1.3646 -0.1653 -0.7052
16381TIP3   OH270633   3.021   4.251   4.494  0.4802 -0.0685 -0.1891
16381TIP3    H170634   3.083   4.324   4.495 -0.6628  0.9444  1.1755
16381TIP3    H270635   3.012   4.226   4.586 -1.7357  0.3878 -0.2258
16382TIP3   OH270636   2.150   5.412   0.961 -0.2130 -0.0023  0.1523
16382TIP3    H170637   2.188   5.470   1.026 -0.8517  1.4672 -0.7464
16382TIP3    H270638   2.130   5.468   0.886 -0.2152 -1.4992 -1.0289
16383TIP3   OH270639   0.616   5.485  14.714  0.0188  0.1763  0.2570
16383TIP3    H170640   0.551   5.418  14.735  1.5478 -1.4178  0.1371
16383TIP3    H270641   0.678   5.441  14.656  0.1401  2.2322 -1.2829
16384TIP3   OH270642   2.202   6.069   3.852  0.5766  0.2351 -0.6592
16384TIP3    H170643   2.153   6.021   3.919  1.1456 -1.4494 -1.3899
16384TIP3    H270644   2.243   6.141   3.900 -2.1932  1.4565  0.0539
16385TIP3   OH270645   4.865   1.812   4.115 -0.4164 -0.2698 -0.4782
16385TIP3    H170646   4.843   1.722   4.089  0.2994  0.0376 -2.2236
16385TIP3    H270647   4.874   1.807   4.210  0.2480 -2.1880 -0.5999
16386TIP3   OH270648   1.131   0.453  12.202  0.0727 -0.0894 -0.0675
16386TIP3    H170649   1.133   0.457  12.298  1.1885 -0.5102 -0.0635
16386TIP3    H270650   1.221   0.466  12.175 -0.4971  2.0255 -1.1814
16387TIP3   OH270651   4.173   5.066  11.851  0.3152  0.2424  0.4910
16387TIP3    H170652   4.265   5.067  11.879  0.3590 -0.6353  0.4298
16387TIP3    H270653   4.154   5.156  11.826  1.5282  0.2018 -0.6822
16388TIP3   OH270654   5.408   6.663  15.676 -0.0610 -0.4980 -0.1944
16388TIP3    H170655   5.416   6.742  15.728  0.3601 -0.3320 -0.5065
16388TIP3    H270656   5.437   6.592  15.734 -2.2000 -0.6858  0.7227
16389TIP3   OH270657   3.260   6.584   2.961  0.4437  0.3025  0.2693
16389TIP3    H170658   3.237   6.615   3.049 -0.7242 -0.2360  0.1700
16389TIP3    H270659   3.193   6.621   2.904  1.1262  0.5457 -0.3883
16390TIP3   OH270660   0.267   2.723  12.923  0.1624 -0.5635 -0.0115
16390TIP3    H170661   0.304   2.684  12.843  0.8066  0.9289 -0.4696
16390TIP3    H270662   0.341   2.766  12.965 -0.5517  0.2605  0.4206
16391TIP3   OH270663   1.527   4.820   5.552 -0.1804 -0.4212 -0.0956
16391TIP3    H170664   1.551   4.880   5.482 -0.5146 -0.8690 -0.6000
16391TIP3    H270665   1.435   4.839   5.570  0.3548  0.9413  1.4856
16392TIP3   OH270666   0.426   1.354   3.692  0.3656  0.3595  0.4146
16392TIP3    H170667   0.343   1.380   3.732 -0.6664 -2.3982  0.3282
16392TIP3    H270668   0.443   1.267   3.728  1.3306 -0.6538 -2.2674
16393TIP3   OH270669   4.306   5.967  13.155  0.4070  0.0252  0.0428
16393TIP3    H170670   4.350   5.887  13.127  0.8284 -0.9085  3.0157
16393TIP3    H270671   4.358   6.038  13.115  0.3017 -1.1184 -2.2496
16394TIP3   OH270672   5.563   3.845  15.908 -0.2417 -0.5212  0.7356
16394TIP3    H170673   5.518   3.777  15.858  0.5184 -0.7886  0.4115
16394TIP3    H270674   5.608   3.798  15.978  1.0975 -0.4876 -0.0651
16395TIP3   OH270675   4.390   4.390  11.692 -0.0638 -0.4047 -0.0596
16395TIP3    H170676   4.366   4.473  11.652 -2.1073  0.1360  2.0590
16395TIP3    H270677   4.389   4.408  11.786  0.9574 -2.4793  0.4178
16396TIP3   OH270678   5.715   1.319   3.724 -0.3059  0.4035  0.1511
16396TIP3    H170679   5.627   1.283   3.710 -0.2263  1.1828 -3.1496
16396TIP3    H270680   5.772   1.241   3.729 -0.7752 -0.0764 -1.4479
16397TIP3   OH270681   1.537   1.942  11.866 -0.0386  0.0434 -0.1628
16397TIP3    H170682   1.487   1.917  11.944  1.6928 -0.2360  0.8975
16397TIP3    H270683   1.470   1.967  11.802 -1.5346 -0.4928  1.1287
16398TIP3   OH270684   3.441   5.339   6.269 -0.2722  0.0133  0.1123
16398TIP3    H170685   3.450   5.254   6.312  1.7985 -0.6068 -1.3952
16398TIP3    H270686   3.514   5.391   6.303 -0.6224  0.6672 -0.1213
16399TIP3   OH270687   1.638   4.276  16.618  0.2484 -0.2207  0.4799
16399TIP3    H170688   1.622   4.237  16.532  1.5787 -0.6103  0.3815
16399TIP3    H270689   1.566   4.337  16.630 -1.3359 -1.9156  0.1712
16400TIP3   OH270690   6.813   2.156  11.092  0.7143  0.1774 -0.2157
16400TIP3    H170691   6.755   2.224  11.057 -0.2558 -0.3171  0.3806
16400TIP3    H270692   6.784   2.143  11.182  2.3021  0.4808  0.3739
16401TIP3   OH270693   4.850   2.075  11.921  0.6864  0.1064  0.5045
16401TIP3    H170694   4.919   2.139  11.939  1.7577 -0.4472 -1.3216
16401TIP3    H270695   4.858   2.058  11.827 -1.7080 -0.2851  0.3088
16402TIP3   OH270696   4.840   4.712  16.149  0.2346  0.1990 -0.3235
16402TIP3    H170697   4.807   4.691  16.062 -1.3366 -3.2006  0.9100
16402TIP3    H270698   4.928   4.676  16.151  0.1206 -0.0871 -0.3981
16403TIP3   OH270699   6.230   3.003  12.596 -0.4680 -0.0442 -0.2339
16403TIP3    H170700   6.176   3.059  12.540  1.8430  0.7128 -1.8516
16403TIP3    H270701   6.212   3.033  12.685 -2.2590  0.5287 -0.7521
16404TIP3   OH270702   4.047   2.857  11.144  0.4719  0.3840  0.1097
16404TIP3    H170703   3.957   2.888  11.150  0.5625  0.4409  1.4134
16404TIP3    H270704   4.039   2.762  11.133  0.2337  0.5981 -1.7940
16405TIP3   OH270705   4.404   2.550  13.177  0.1084 -0.0641  0.0121
16405TIP3    H170706   4.465   2.506  13.118 -0.1598  1.3408 -1.3940
16405TIP3    H270707   4.453   2.627  13.208 -0.3603  0.1512  0.2219
16406TIP3   OH270708   2.289   3.908   6.290 -0.4604 -0.4613  0.8844
16406TIP3    H170709   2.359   3.957   6.332 -1.8286  2.3866  0.1200
16406TIP3    H270710   2.220   3.903   6.357 -1.1421  0.6796  0.3236
16407TIP3   OH270711   4.091   4.091   0.734 -0.0530 -0.3193 -0.3126
16407TIP3    H170712   4.030   4.030   0.775 -0.6056  0.2814 -0.2255
16407TIP3    H270713   4.176   4.047   0.737 -0.5462 -1.3261 -0.7780
16408TIP3   OH270714   3.011   3.816  14.545  0.3752 -0.0746  0.1796
16408TIP3    H170715   3.015   3.899  14.593  1.8805  0.0448 -0.0829
16408TIP3    H270716   2.940   3.767  14.586 -0.5768  1.3599  0.3027
16409TIP3   OH270717   1.746   2.805   0.826 -0.9042 -0.1385 -0.2179
16409TIP3    H170718   1.827   2.855   0.815 -0.8548 -0.5045 -1.8092
16409TIP3    H270719   1.694   2.856   0.888  1.8702 -1.6237  3.7103
16410TIP3   OH270720   6.642   6.220   3.792  0.0683  0.5927 -0.1874
16410TIP3    H170721   6.649   6.172   3.709  1.5157  0.4147  0.0181
16410TIP3    H270722   6.669   6.309   3.771  2.0358  0.1770  0.3843
16411TIP3   OH270723   5.538   4.892   3.761 -0.2462 -0.0374  0.5780
16411TIP3    H170724   5.599   4.907   3.689  0.0601  0.4696  0.9348
16411TIP3    H270725   5.451   4.903   3.721 -0.0607  1.7207  0.5735
16412TIP3   OH270726   1.507   6.651   6.905 -0.5098  0.1092 -0.0973
16412TIP3    H170727   1.414   6.629   6.909 -0.4117 -0.2119  0.7158
16412TIP3    H270728   1.515   6.708   6.828 -1.0044 -1.5925 -1.4733
16413TIP3   OH270729   5.703   6.360   0.405 -0.4060  0.9246 -0.1272
16413TIP3    H170730   5.759   6.352   0.328  0.9864  1.0831  0.8133
16413TIP3    H270731   5.677   6.452   0.406  1.6779  1.5739  0.9168
16414TIP3   OH270732   4.262   2.973   2.869  0.1412  0.3266  0.1346
16414TIP3    H170733   4.252   2.904   2.935 -0.7919 -0.1146 -0.4586
16414TIP3    H270734   4.219   2.939   2.791 -0.0559  1.4540 -0.2645
16415TIP3   OH270735   5.658   5.986  17.068 -0.7715 -0.0416 -0.3172
16415TIP3    H170736   5.693   6.071  17.095 -1.7180  0.0875  0.5332
16415TIP3    H270737   5.606   5.956  17.143 -0.6403 -1.2714 -0.6883
16416TIP3   OH270738   4.780   4.883  11.666 -0.1478  0.0502  0.2333
16416TIP3    H170739   4.845   4.921  11.725  0.0941  0.7014 -0.4346
16416TIP3    H270740   4.697   4.895  11.712  0.0345  0.5736  0.4379
16417TIP3   OH270741   3.587   3.172   1.420  0.1541 -0.0666 -0.1869
16417TIP3    H170742   3.503   3.164   1.465 -0.2417 -1.1390 -1.0827
16417TIP3    H270743   3.615   3.262   1.438 -2.7746  1.4972 -2.5843
16418TIP3   OH270744   2.371   6.252  13.246  0.3204 -0.2932 -0.0179
16418TIP3    H170745   2.392   6.300  13.326  0.6909 -0.8555  0.2202
16418TIP3    H270746   2.311   6.183  13.275 -1.8071  1.1636 -0.6427
16419TIP3   OH270747   4.995   5.005   0.719  0.8570  0.4378 -0.0349
16419TIP3    H170748   4.941   4.973   0.791  2.6582  0.9509  1.6351
16419TIP3    H270749   5.085   5.000   0.752  2.2095 -2.6628 -3.4985
16420TIP3   OH270750   0.931   0.369   2.440 -0.0752 -0.5475  0.4760
16420TIP3    H170751   0.885   0.352   2.358 -0.3542 -0.1631  0.5479
16420TIP3    H270752   1.020   0.339   2.425 -0.0489 -0.2018 -0.0681
16421TIP3   OH270753   4.212   5.278   3.167  0.6418  0.0192 -0.3866
16421TIP3    H170754   4.249   5.317   3.087 -1.8065 -1.9719 -2.6970
16421TIP3    H270755   4.198   5.186   3.144 -1.3340 -0.3429  1.8790
16422TIP3   OH270756   4.251   4.097  13.352 -0.3995  0.0080 -0.4067
16422TIP3    H170757   4.285   4.086  13.263  2.8373  0.8700  0.5927
16422TIP3    H270758   4.199   4.177  13.349 -1.0362 -0.4317 -1.6717
16423TIP3   OH270759   6.448   5.500  16.268  0.1484 -1.0964  0.0085
16423TIP3    H170760   6.475   5.573  16.323 -0.2820 -2.2488  1.8189
16423TIP3    H270761   6.503   5.508  16.190  0.6815  0.6694  0.5123
16424TIP3   OH270762   5.334   1.037  13.101 -0.9314  0.3803  1.0304
16424TIP3    H170763   5.409   1.070  13.151  3.0557 -1.4095 -2.9715
16424TIP3    H270764   5.321   0.948  13.133 -0.5194  0.3005  0.9873
16425TIP3   OH270765   2.694   6.349  11.993  0.3998 -0.2276  0.4990
16425TIP3    H170766   2.619   6.406  12.013 -0.0462 -0.2166 -1.0417
16425TIP3    H270767   2.679   6.322  11.903 -0.1824 -4.0339  1.5844
16426TIP3   OH270768   1.711   6.127  10.739 -0.6161 -0.1561 -0.2878
16426TIP3    H170769   1.720   6.082  10.655 -0.5038 -0.5251 -0.0763
16426TIP3    H270770   1.620   6.157  10.741 -0.6937 -0.3833 -0.4202
16427TIP3   OH270771   6.370   4.841   4.736  0.2067  0.8465 -0.2167
16427TIP3    H170772   6.352   4.829   4.829 -0.1974  0.5158 -0.3328
16427TIP3    H270773   6.416   4.761   4.710 -0.6496  0.4477 -0.5364
16428TIP3   OH270774   2.990   5.184   0.156  0.9784  0.0109 -0.0510
16428TIP3    H170775   2.934   5.108   0.170  1.8603 -0.6975 -0.2424
16428TIP3    H270776   2.972   5.241   0.230 -0.3685  0.0493 -0.3820
16429TIP3   OH270777   5.930   2.249  15.574  0.4323  0.4770 -0.1097
16429TIP3    H170778   6.013   2.240  15.528 -0.6738  0.8564 -2.3013
16429TIP3    H270779   5.955   2.268  15.665  2.7038 -0.2450 -0.5233
16430TIP3   OH270780   2.765   6.691  14.156 -0.1203 -0.3572 -0.7050
16430TIP3    H170781   2.751   6.658  14.068  2.3180 -2.2200 -0.5073
16430TIP3    H270782   2.678   6.692  14.196 -1.0677 -0.8533 -2.6505
16431TIP3   OH270783   1.788   0.545  13.803 -0.2702 -0.2128 -0.5064
16431TIP3    H170784   1.817   0.516  13.890 -3.6044  0.7914  1.1447
16431TIP3    H270785   1.737   0.471  13.769  2.6124 -1.3715 -2.6294
16432TIP3   OH270786   4.861   4.743   2.502 -0.4912 -0.0474 -0.6531
16432TIP3    H170787   4.804   4.792   2.562 -1.9831 -1.4224 -0.8649
16432TIP3    H270788   4.858   4.793   2.420 -0.3132  0.6031 -0.2707
16433TIP3   OH270789   1.986   4.029   0.562 -0.4823 -0.5178 -0.6840
16433TIP3    H170790   1.977   3.935   0.579 -1.7939 -0.2956 -0.0954
16433TIP3    H270791   2.020   4.065   0.643 -0.6699 -0.3697 -0.6729
16434TIP3   OH270792   3.894   1.628  14.202 -0.5310 -0.6950 -0.0087
16434TIP3    H170793   3.815   1.620  14.149 -1.3562 -2.3457  1.3684
16434TIP3    H270794   3.947   1.552  14.179  0.4203  0.0955 -0.5070
16435TIP3   OH270795   1.921   5.781  15.555  0.0736 -0.2566  0.3382
16435TIP3    H170796   1.950   5.869  15.578 -0.7932  0.0427  0.3401
16435TIP3    H270797   1.982   5.722  15.600  1.0624  0.3369 -0.1866
16436TIP3   OH270798   3.298   4.712  13.743 -0.6789 -0.0072 -0.0995
16436TIP3    H170799   3.271   4.634  13.695  2.3895 -2.6022  1.9815
16436TIP3    H270800   3.370   4.748  13.691  0.5412 -0.9731  0.8601
16437TIP3   OH270801   5.838   2.346  13.618  0.4099  0.0435  0.3344
16437TIP3    H170802   5.922   2.390  13.606  0.0968  0.3611 -0.7460
16437TIP3    H270803   5.797   2.394  13.690  0.9958  0.1099  0.6329
16438TIP3   OH270804   6.304   3.532  15.189 -0.1790 -0.1221  0.0959
16438TIP3    H170805   6.215   3.500  15.204  0.4659 -2.1031 -0.0891
16438TIP3    H270806   6.361   3.458  15.210  1.6086  1.6988  2.2119
16439TIP3   OH270807   4.409   3.622   0.524  1.0518 -0.6814  0.2546
16439TIP3    H170808   4.400   3.604   0.430  0.6397 -1.1465  0.3779
16439TIP3    H270809   4.341   3.569   0.565  1.9490 -1.3498  0.9145
16440TIP3   OH270810   0.011   2.510  13.425  0.0588 -0.1574  0.2148
16440TIP3    H170811  -0.018   2.586  13.375  0.8296 -0.2114 -0.3269
16440TIP3    H270812  -0.028   2.435  13.380  2.5778 -0.4139 -1.7732
16441TIP3   OH270813   5.613   5.097  12.470 -0.2948 -0.0081 -0.2988
16441TIP3    H170814   5.641   5.069  12.383  0.3045 -1.5609  0.3572
16441TIP3    H270815   5.694   5.102  12.520 -0.8739 -1.8312  0.8896
16442TIP3   OH270816   2.287   6.179   3.587  0.2903 -0.2030  0.6200
16442TIP3    H170817   2.323   6.227   3.661  1.1479 -1.6397  1.1844
16442TIP3    H270818   2.230   6.242   3.542  0.3047  0.8940  2.0812
16443TIP3   OH270819   5.452   3.023  15.226  0.2659  0.1791  0.4602
16443TIP3    H170820   5.500   3.106  15.233 -0.8166  0.7662  1.3260
16443TIP3    H270821   5.361   3.049  15.212 -0.9364 -0.6145  5.1118
16444TIP3   OH270822   5.698   6.646  13.601  0.2249  0.3102 -0.2471
16444TIP3    H170823   5.665   6.700  13.673  1.0517  1.7046 -0.8582
16444TIP3    H270824   5.786   6.621  13.629  0.3822  0.4888 -0.5768
16445TIP3   OH270825   6.448   1.040   1.039  0.6131 -0.4478  0.2819
16445TIP3    H170826   6.420   1.054   0.948  2.5896  0.4866 -0.2372
16445TIP3    H270827   6.479   0.950   1.041  0.7737 -0.4036 -0.0517
16446TIP3   OH270828   6.126   1.186  13.578 -0.1227 -0.0033 -0.3325
16446TIP3    H170829   6.076   1.125  13.633  0.8092  1.2589  2.0574
16446TIP3    H270830   6.070   1.263  13.572 -0.1802 -0.1006 -1.1174
16447TIP3   OH270831   6.727   3.573   5.561 -0.2780 -0.1814 -0.6168
16447TIP3    H170832   6.668   3.569   5.636  0.4496  0.6767  0.0381
16447TIP3    H270833   6.715   3.490   5.515 -1.4676 -0.2966 -0.1129
16448TIP3   OH270834   0.022   0.031   0.675 -0.6366 -0.1667 -0.3585
16448TIP3    H170835   0.098   0.008   0.622 -0.3772  0.4295 -0.2488
16448TIP3    H270836   0.056   0.091   0.741 -1.3089  0.5543 -0.6609
16449TIP3   OH270837   6.425   0.840   4.554 -0.4572 -0.7878 -0.4892
16449TIP3    H170838   6.480   0.913   4.528 -1.2971 -0.2358 -0.7370
16449TIP3    H270839   6.465   0.764   4.511  1.4475 -0.8202  1.1348
16450TIP3   OH270840   6.763   3.251  15.054 -0.5267 -0.8142 -0.0143
16450TIP3    H170841   6.727   3.249  15.143  1.3867 -0.3508  0.8089
16450TIP3    H270842   6.727   3.172  15.013 -0.0442 -2.0263  1.7532
16451TIP3   OH270843   0.642   4.067  11.527 -0.4696  0.5048  0.5294
16451TIP3    H170844   0.705   3.995  11.531 -0.2826  0.7091  1.5658
16451TIP3    H270845   0.556   4.024  11.526 -0.3469  0.2592  0.4179
16452TIP3   OH270846   5.462   2.383   2.948  0.0798 -0.4468 -0.4732
16452TIP3    H170847   5.513   2.327   3.006  1.5844  0.2293 -1.0954
16452TIP3    H270848   5.383   2.404   2.998  1.3025  0.0700  1.3098
16453TIP3   OH270849   0.727   4.680   2.324  0.4309 -0.0739 -0.0635
16453TIP3    H170850   0.766   4.747   2.267 -1.7393  0.5050 -0.9702
16453TIP3    H270851   0.681   4.621   2.264  0.2990 -0.9969  0.9130
16454TIP3   OH270852   6.475   0.128   5.838 -0.5486 -0.2225 -0.1533
16454TIP3    H170853   6.469   0.092   5.927  1.5156  1.1670  0.6447
16454TIP3    H270854   6.495   0.053   5.783  2.2760 -0.6633  1.2473
16455TIP3   OH270855   4.225   5.777   2.618 -0.1008  0.0304  0.0439
16455TIP3    H170856   4.252   5.868   2.621 -0.8689  0.2827 -0.3777
16455TIP3    H270857   4.153   5.771   2.681  0.3191 -0.4229  0.4942
16456TIP3   OH270858   5.111   6.422   2.049 -0.1105  0.3361  0.1600
16456TIP3    H170859   5.015   6.418   2.057 -0.1188 -1.2619 -0.4305
16456TIP3    H270860   5.141   6.339   2.087  0.9697  0.4029 -0.5210
16457TIP3   OH270861   4.561   0.937  17.028 -0.1049 -0.6502 -0.6398
16457TIP3    H170862   4.509   1.002  16.979  0.4473 -1.2989 -2.1539
16457TIP3    H270863   4.502   0.863  17.038 -1.0995  0.3966  2.0186
16458TIP3   OH270864   0.123   6.011  12.421  0.1682 -0.4373  0.0051
16458TIP3    H170865   0.165   6.086  12.464 -1.3768  0.6046 -0.1925
16458TIP3    H270866   0.061   5.978  12.487 -0.9174  0.0412 -0.7350
16459TIP3   OH270867   6.446   0.532  15.713 -0.4235 -0.2179 -0.1297
16459TIP3    H170868   6.364   0.509  15.757  0.8071 -1.7999  1.5194
16459TIP3    H270869   6.480   0.606  15.763 -1.1905  0.9644 -1.3101
16460TIP3   OH270870   0.630   3.288   4.176 -0.1927 -0.2215 -0.3350
16460TIP3    H170871   0.720   3.307   4.199 -0.2430  0.0848 -0.3819
16460TIP3    H270872   0.583   3.284   4.259 -0.0572 -0.8151 -0.2818
16461TIP3   OH270873   2.873   2.752   3.301 -0.2699 -0.1673 -0.4410
16461TIP3    H170874   2.843   2.841   3.320 -2.9137 -0.6193 -1.9153
16461TIP3    H270875   2.921   2.726   3.379 -0.8744  1.9528  0.7330
16462TIP3   OH270876   5.238   5.642  14.967  0.2614  0.2866  0.6894
16462TIP3    H170877   5.198   5.595  14.894  0.9911  0.3260  0.2520
16462TIP3    H270878   5.166   5.658  15.027 -0.4838  0.7778 -0.2937
16463TIP3   OH270879   0.644   1.659  14.370  0.2472  0.3763 -0.0626
16463TIP3    H170880   0.603   1.738  14.333 -0.5353 -1.0430 -2.4647
16463TIP3    H270881   0.736   1.666  14.341  0.1088  0.2847 -0.5428
16464TIP3   OH270882   6.167   1.940   5.338 -0.2644 -0.0278 -0.2658
16464TIP3    H170883   6.073   1.948   5.320 -0.1290  0.7475 -0.6832
16464TIP3    H270884   6.190   1.853   5.305 -0.6848  0.0940 -0.9087
16465TIP3   OH270885   4.020   2.283   6.315  0.1538  0.1831 -0.4228
16465TIP3    H170886   4.034   2.233   6.234 -0.8121  0.5532 -0.8357
16465TIP3    H270887   3.963   2.228   6.368  1.6422 -0.5324  0.4890
16466TIP3   OH270888   1.132   0.474   5.586 -0.0071  0.2881  0.0066
16466TIP3    H170889   1.106   0.529   5.512 -0.0614  0.2256 -0.0212
16466TIP3    H270890   1.227   0.464   5.576 -0.1639 -0.6314 -0.6881
16467TIP3   OH270891   1.713   0.271  12.608 -0.0485  0.1168  0.1949
16467TIP3    H170892   1.773   0.312  12.670  0.1933 -0.6234  0.4685
16467TIP3    H270893   1.762   0.195  12.574 -0.5109 -0.0002 -0.2281
16468TIP3   OH270894   5.501   1.026   3.373  0.0433 -0.1432  0.3275
16468TIP3    H170895   5.485   0.975   3.452 -0.5124 -1.2693 -0.4692
16468TIP3    H270896   5.585   0.994   3.340 -0.4461 -0.7975 -0.3339
16469TIP3   OH270897   0.734   2.500  12.664  0.0658 -0.1510  0.3035
16469TIP3    H170898   0.802   2.440  12.694  2.3329  1.2421 -1.6469
16469TIP3    H270899   0.652   2.462  12.696  1.6427 -2.4750  1.8967
16470TIP3   OH270900   4.668   3.522   3.114  0.5229 -0.0619 -0.9532
16470TIP3    H170901   4.730   3.545   3.045  2.4933 -1.6367  0.1860
16470TIP3    H270902   4.602   3.469   3.071  1.4783 -0.6492 -1.7433
16471TIP3   OH270903   4.236   5.930   4.382 -0.1438  0.4880 -0.0993
16471TIP3    H170904   4.157   5.947   4.433  0.1754 -0.6872  0.8279
16471TIP3    H270905   4.307   5.933   4.446  0.3294 -0.4336 -0.5720
16472TIP3   OH270906   2.322   6.334   1.946 -0.6137 -0.4962  0.4364
16472TIP3    H170907   2.259   6.383   1.998 -0.3017 -1.3347  1.6620
16472TIP3    H270908   2.293   6.243   1.952 -0.2739 -0.6800 -0.4525
16473TIP3   OH270909   5.082   0.301   4.310  0.0603  0.5908  0.1258
16473TIP3    H170910   5.108   0.373   4.368  0.4019  1.3914 -0.9702
16473TIP3    H270911   5.109   0.222   4.356 -0.7792  1.1151  1.5973
16474TIP3   OH270912   6.746   1.505  16.963  0.1497  0.0031 -0.0211
16474TIP3    H170913   6.828   1.542  16.997  0.3279  0.8339 -1.2831
16474TIP3    H270914   6.768   1.413  16.945  1.2571  0.5180 -1.5963
16475TIP3   OH270915   0.380   2.833   4.861  0.0164 -0.3233 -0.7527
16475TIP3    H170916   0.463   2.827   4.909 -1.8248 -0.6709  2.7116
16475TIP3    H270917   0.368   2.745   4.824  1.2092 -0.2275 -1.4280
16476TIP3   OH270918   4.793   2.792   5.215  0.2534 -0.2825  0.1863
16476TIP3    H170919   4.735   2.779   5.140  0.5607  1.0569 -0.3137
16476TIP3    H270920   4.804   2.887   5.220  2.8005 -0.4929 -0.0679
16477TIP3   OH270921   6.722   3.677   2.266 -0.3729  0.2412  0.4674
16477TIP3    H170922   6.745   3.769   2.276 -0.3675  0.2282  0.5807
16477TIP3    H270923   6.722   3.662   2.172  0.4989  0.1396  0.4736
16478TIP3   OH270924   6.030   2.948  15.057  0.5435  0.2684 -0.3194
16478TIP3    H170925   6.054   3.000  15.133 -0.7799  2.3108 -1.2138
16478TIP3    H270926   6.108   2.949  15.001  1.0853 -0.1720  0.4027
16479TIP3   OH270927   2.747   3.009  12.168  0.7897 -0.4423 -0.6803
16479TIP3    H170928   2.807   3.073  12.130 -1.5735  0.2731 -3.5341
16479TIP3    H270929   2.689   3.061  12.223 -0.0714 -0.3670 -1.6430
16480TIP3   OH270930   4.291   1.767   2.842  0.0319 -0.0892  0.4528
16480TIP3    H170931   4.211   1.754   2.791  0.2529 -2.0961  0.5240
16480TIP3    H270932   4.348   1.818   2.784 -1.6936  2.5230  0.8953
16481TIP3   OH270933   2.213   2.240   4.556 -0.5095  0.7838  0.5998
16481TIP3    H170934   2.126   2.278   4.545 -0.5023  0.9833  1.2086
16481TIP3    H270935   2.198   2.147   4.569 -0.4429  0.2172 -2.5765
16482TIP3   OH270936   0.272   2.999  13.956 -0.6341 -0.3567  0.3494
16482TIP3    H170937   0.206   3.030  13.895  0.0604 -1.4487 -1.0360
16482TIP3    H270938   0.232   2.922  13.998 -0.5526 -0.5383  0.0998
16483TIP3   OH270939   3.181   1.524   3.962 -0.5158  0.5397  0.1493
16483TIP3    H170940   3.116   1.468   4.004 -1.1297 -0.4773 -1.9646
16483TIP3    H270941   3.132   1.601   3.933 -0.2809  0.8378  0.5335
16484TIP3   OH270942   2.394   6.709   4.571  0.6117 -0.6838 -0.6692
16484TIP3    H170943   2.404   6.767   4.495  1.0744  0.5363  0.2911
16484TIP3    H270944   2.428   6.625   4.541  0.5333 -0.3017 -1.8944
16485TIP3   OH270945   6.497   1.712   2.603 -0.7739 -0.6546 -0.0851
16485TIP3    H170946   6.445   1.692   2.681 -0.0701  1.8064  1.1387
16485TIP3    H270947   6.448   1.781   2.558  0.9842  1.2231  0.7284
16486TIP3   OH270948   6.094   1.142  10.773 -0.0239  0.0567  0.1524
16486TIP3    H170949   6.143   1.223  10.781 -1.0281  0.7451 -0.4162
16486TIP3    H270950   6.028   1.147  10.843 -0.4197 -0.0144 -0.2082
16487TIP3   OH270951   0.958   3.266  13.948 -0.7759 -0.0305 -0.9101
16487TIP3    H170952   0.953   3.212  13.870 -2.9227 -2.0719  0.4852
16487TIP3    H270953   0.994   3.208  14.015  1.0762  1.6793 -0.3141
16488TIP3   OH270954   4.008   4.804  12.148  0.0172 -0.3026  0.5701
16488TIP3    H170955   4.019   4.857  12.226 -0.0957  0.6080 -0.0181
16488TIP3    H270956   3.971   4.864  12.083 -2.8817 -1.7926  0.7042
16489TIP3   OH270957   0.215   0.754   2.795 -0.5853 -0.5294 -0.1815
16489TIP3    H170958   0.133   0.761   2.843 -0.3703  0.5559  0.0566
16489TIP3    H270959   0.218   0.832   2.741  0.8725  0.1232  0.7736
16490TIP3   OH270960   2.627   6.307  15.020  0.9218 -0.0905 -0.0696
16490TIP3    H170961   2.571   6.255  14.963  0.8381  1.1066 -1.1386
16490TIP3    H270962   2.627   6.394  14.980  1.9069  0.4545  1.0534
16491TIP3   OH270963   0.749   4.706  16.327  0.6598  0.1997 -0.2824
16491TIP3    H170964   0.669   4.718  16.377  0.2058  0.5998 -1.0908
16491TIP3    H270965   0.757   4.786  16.275  0.2370 -0.8647 -2.0565
16492TIP3   OH270966   6.410   3.929  12.100 -0.2794  0.4392  0.3381
16492TIP3    H170967   6.437   3.991  12.033  0.2660 -0.4891 -0.3124
16492TIP3    H270968   6.382   3.851  12.052  1.8579 -0.9520  1.1921
16493TIP3   OH270969   4.651   2.274   4.448  0.1605 -0.3293 -0.6567
16493TIP3    H170970   4.562   2.308   4.459  0.6711  1.2868 -1.1859
16493TIP3    H270971   4.682   2.259   4.537 -0.6852 -1.0842 -0.4706
16494TIP3   OH270972   4.244   4.755  15.498  0.4817 -0.1048  0.0847
16494TIP3    H170973   4.284   4.776  15.582  0.2333  0.2502  0.1150
16494TIP3    H270974   4.203   4.669  15.512 -0.4754  0.4243  0.6539
16495TIP3   OH270975   2.803   0.328   0.124 -0.3318 -0.6852 -0.3009
16495TIP3    H170976   2.876   0.307   0.182 -0.5741  0.2369  0.3488
16495TIP3    H270977   2.828   0.410   0.082 -0.8328 -0.5419 -0.3294
16496TIP3   OH270978   6.417   3.111   5.847  0.2744  0.5198 -0.1947
16496TIP3    H170979   6.337   3.078   5.805  0.6924  0.3128 -0.8402
16496TIP3    H270980   6.392   3.124   5.938 -0.6039  0.8014 -0.4600
16497TIP3   OH270981   1.814   3.593   5.395  0.2955  0.4220 -0.8634
16497TIP3    H170982   1.778   3.600   5.306 -2.5505  0.7442  0.1909
16497TIP3    H270983   1.787   3.506   5.424 -0.9549  1.2037  0.4582
16498TIP3   OH270984   6.229   4.278   3.255  0.4405 -0.0592  0.5888
16498TIP3    H170985   6.227   4.199   3.309  2.1215  0.7247  1.8899
16498TIP3    H270986   6.287   4.255   3.182 -0.0479 -0.4031  0.3039
16499TIP3   OH270987   4.509   2.193  16.511  0.4478  0.0291 -0.5495
16499TIP3    H170988   4.423   2.150  16.513 -0.3098  1.4261  2.3455
16499TIP3    H270989   4.555   2.157  16.587  1.0388  1.8646  0.0056
16500TIP3   OH270990   3.654   1.821  17.285  0.1556 -0.7605  0.0275
16500TIP3    H170991   3.582   1.800  17.344 -0.6658  0.4588 -0.5001
16500TIP3    H270992   3.665   1.915  17.293 -0.1286 -0.5205 -1.8973
16501TIP3   OH270993   2.515   3.506   4.649  0.6167 -0.1299  0.4756
16501TIP3    H170994   2.583   3.488   4.714  0.6593  0.5806  0.6291
16501TIP3    H270995   2.438   3.529   4.701  0.5635  0.1352  0.2782
16502TIP3   OH270996   6.763   5.967   0.860  0.8476  0.2688 -0.4459
16502TIP3    H170997   6.750   6.061   0.874  0.8463  0.3724 -1.1200
16502TIP3    H270998   6.679   5.936   0.827  0.4661 -0.2062  0.9115
16503TIP3   OH270999   2.477   2.588  12.145  0.3050 -0.2404 -0.0911
16503TIP3    H171000   2.425   2.659  12.108  0.2789 -1.1613 -1.8929
16503TIP3    H271001   2.423   2.554  12.216 -1.4317 -0.9110 -1.6567
16504TIP3   OH271002   6.501   4.682  13.646  0.9619 -0.4265 -0.7378
16504TIP3    H171003   6.585   4.643  13.622  2.3890  1.1017  1.3932
16504TIP3    H271004   6.447   4.608  13.675  2.6743 -1.1661  0.7665
16505TIP3   OH271005   5.649   2.202   3.086  0.5393  0.3183 -0.4262
16505TIP3    H171006   5.692   2.118   3.099 -2.4877 -0.9956  2.8098
16505TIP3    H271007   5.717   2.267   3.104  2.1764 -1.5045  0.2685
16506TIP3   OH271008   2.280   5.487  12.794 -0.0306 -0.2647 -0.1820
16506TIP3    H171009   2.187   5.496  12.811 -0.2750 -0.8197 -1.1344
16506TIP3    H271010   2.319   5.466  12.880 -0.7066  0.3982  0.2947
16507TIP3   OH271011   2.309   0.376   4.147 -0.1535 -0.5014 -0.3428
16507TIP3    H171012   2.242   0.379   4.079  0.1476 -1.6772 -0.7125
16507TIP3    H271013   2.385   0.335   4.105  0.1744 -0.8666  0.5685
16508TIP3   OH271014   4.468   1.328  11.958  0.2840 -0.1599 -0.1684
16508TIP3    H171015   4.537   1.317  11.893  1.3790  0.6424  0.8203
16508TIP3    H271016   4.497   1.277  12.033  1.5117  2.7482  1.5042
16509TIP3   OH271017   4.810   0.143  12.976  0.0364  0.2283  0.1582
16509TIP3    H171018   4.906   0.140  12.981  0.0148  0.1036  0.5998
16509TIP3    H271019   4.784   0.053  12.956  0.0595  0.4837 -1.0571
16510TIP3   OH271020   5.624   6.622  14.748  0.5035  0.6162 -0.2843
16510TIP3    H171021   5.595   6.696  14.802 -1.1063  0.4437 -0.8350
16510TIP3    H271022   5.575   6.547  14.782 -0.3379  0.4530 -1.7561
16511TIP3   OH271023   3.044   3.954   5.974  1.1529 -0.0176  0.4205
16511TIP3    H171024   3.044   3.896   6.050 -0.8434 -0.1545  0.3755
16511TIP3    H271025   2.964   4.005   5.983 -0.9801 -2.2677 -3.1526
16512TIP3   OH271026   0.716   1.751   2.724 -0.1923 -0.2936 -0.3933
16512TIP3    H171027   0.668   1.822   2.767 -1.3790 -0.8198 -0.7854
16512TIP3    H271028   0.653   1.715   2.661  1.0704 -0.3698 -1.6532
16513TIP3   OH271029   2.747   5.673   3.509 -0.5647 -0.2300 -0.3217
16513TIP3    H171030   2.772   5.729   3.582  2.5681  0.4255 -1.7044
16513TIP3    H271031   2.780   5.586   3.532  1.3045  0.1745 -1.2254
16514TIP3   OH271032   4.885   2.983  16.057  0.1234  0.3750  0.5302
16514TIP3    H171033   4.915   2.926  16.128  1.1490 -0.3080 -0.4130
16514TIP3    H271034   4.964   3.024  16.023 -0.3401  0.6603 -0.2472
16515TIP3   OH271035   2.735   4.076  12.415  0.0400  0.9294 -0.2920
16515TIP3    H171036   2.726   4.132  12.492  2.0716 -0.6766  1.2224
16515TIP3    H271037   2.740   3.987  12.450 -1.3765 -0.1109 -2.4938
16516TIP3   OH271038   6.678   2.285   1.125  0.5190  0.2212  1.0559
16516TIP3    H171039   6.604   2.315   1.178  0.2009 -1.7032  1.7680
16516TIP3    H271040   6.659   2.317   1.037 -0.4125  0.9946  1.5193
16517TIP3   OH271041   4.903   2.699  11.981 -0.5600 -0.1262 -0.5181
16517TIP3    H171042   4.843   2.744  12.040 -0.7532 -0.2348 -0.6315
16517TIP3    H271043   4.871   2.610  11.976  0.6952 -0.6911  0.8885
16518TIP3   OH271044   1.717   0.856   3.744 -0.3043 -0.4143 -0.0699
16518TIP3    H171045   1.684   0.900   3.823  0.8266 -0.5914  0.5305
16518TIP3    H271046   1.724   0.926   3.679  1.0626  0.2579  0.7482
16519TIP3   OH271047   1.383   3.098  12.938 -0.1461 -0.4375 -0.6751
16519TIP3    H171048   1.379   3.021  12.994 -1.1198  0.2611  0.2529
16519TIP3    H271049   1.381   3.172  12.999  1.1631  0.3295 -1.5228
16520TIP3   OH271050   4.456   5.888   0.893  0.4884  0.2415 -0.4745
16520TIP3    H171051   4.542   5.852   0.914 -0.1552  0.2328  2.5870
16520TIP3    H271052   4.395   5.818   0.912 -0.5065  1.7122  2.2192
16521TIP3   OH271053   3.274   3.102  13.657  0.5288  0.1143 -0.6970
16521TIP3    H171054   3.304   3.046  13.729 -0.6279  0.5054  0.1326
16521TIP3    H271055   3.322   3.184  13.669 -0.3825  0.5349  0.2732
16522TIP3   OH271056   0.405   2.039  15.813 -0.5080 -0.0624  0.6338
16522TIP3    H171057   0.375   1.976  15.879 -0.4885  0.0240  0.7251
16522TIP3    H271058   0.366   2.122  15.840 -0.1162  0.0691  0.8031
16523TIP3   OH271059   0.115   0.034   4.336 -0.2652 -0.2671 -0.2707
16523TIP3    H171060   0.089  -0.033   4.272 -0.8949 -0.6292  0.3600
16523TIP3    H271061   0.035   0.084   4.352 -0.1370 -0.2592  0.3344
16524TIP3   OH271062   0.594   0.218   4.191  0.1910 -0.2814 -0.0674
16524TIP3    H171063   0.626   0.235   4.103  0.2559 -2.2669 -0.4857
16524TIP3    H271064   0.635   0.285   4.245 -0.7187  1.6616 -1.6720
16525TIP3   OH271065   5.416   1.715   1.059  0.4247  0.2369 -0.6513
16525TIP3    H171066   5.383   1.642   1.007 -0.9232  0.6117 -0.3672
16525TIP3    H271067   5.402   1.792   1.003  0.7359  0.4209 -0.4801
16526TIP3   OH271068   6.200   5.258  17.176 -0.0312 -0.6538 -0.3453
16526TIP3    H171069   6.185   5.275  17.269  0.7230 -0.5382 -0.2429
16526TIP3    H271070   6.195   5.344  17.135  1.5222 -0.4411 -0.1406
16527TIP3   OH271071   6.203   2.257  11.473 -0.3690 -0.0677  0.3295
16527TIP3    H171072   6.134   2.267  11.406 -0.1225 -0.6727 -0.0278
16527TIP3    H271073   6.161   2.283  11.554 -1.3938 -1.4986  0.3011
16528TIP3   OH271074   4.073   1.910  16.521 -0.0948  0.0191  0.3041
16528TIP3    H171075   3.982   1.916  16.550 -0.6215 -0.7255 -1.1237
16528TIP3    H271076   4.117   1.981  16.568 -1.5825  0.9373  0.3757
16529TIP3   OH271077   5.011   4.927   1.539 -0.4341  0.4219  0.1914
16529TIP3    H171078   4.934   4.874   1.519  0.5735 -1.2636  0.5612
16529TIP3    H271079   5.070   4.913   1.465 -0.4092  1.5749 -0.0204
16530TIP3   OH271080   0.429   4.177  12.298  0.0101 -0.3317  0.1267
16530TIP3    H171081   0.367   4.147  12.233 -0.2727  0.1782  0.1567
16530TIP3    H271082   0.407   4.269  12.312 -0.3420 -0.5815  1.3959
16531TIP3   OH271083   2.035   2.897   4.567  0.8058  0.3432  0.0378
16531TIP3    H171084   2.127   2.872   4.560  0.5441 -1.4225  1.8900
16531TIP3    H271085   2.027   2.935   4.655  0.0104  1.7768 -0.6204
16532TIP3   OH271086   4.438   2.453  16.458  0.0019 -0.4966 -0.5818
16532TIP3    H171087   4.495   2.383  16.427 -1.0114 -1.4621 -0.3301
16532TIP3    H271088   4.379   2.470  16.384  0.2771  0.1217 -0.6588
16533TIP3   OH271089   4.614   6.494  14.309 -0.7285  0.0326 -0.1378
16533TIP3    H171090   4.676   6.488  14.381 -1.1183  0.2064  0.2222
16533TIP3    H271091   4.644   6.431  14.244 -0.5015 -0.2855  0.2781
16534TIP3   OH271092   1.180   0.058  13.209  0.2445  0.3571  0.4859
16534TIP3    H171093   1.240   0.004  13.261  1.4839 -0.2216 -1.4417
16534TIP3    H271094   1.115  -0.004  13.175 -0.0626  0.5894  0.6449
16535TIP3   OH271095   2.851   1.804  12.881 -0.1637 -0.3868 -0.2586
16535TIP3    H171096   2.810   1.858  12.949 -0.3119 -1.0116  0.1604
16535TIP3    H271097   2.777   1.764  12.836 -0.0424 -0.8563 -0.0485
16536TIP3   OH271098   3.683   0.503   1.482  0.0001 -0.4815 -0.7844
16536TIP3    H171099   3.769   0.535   1.509  0.3798 -0.4970 -1.9064
16536TIP3    H271100   3.623   0.574   1.506  0.0737 -1.0608  1.3248
16537TIP3   OH271101   0.338   1.778   3.425  0.4297 -0.1065 -0.0339
16537TIP3    H171102   0.302   1.701   3.469 -0.5514 -0.3334 -1.1914
16537TIP3    H271103   0.363   1.746   3.338  1.9860  0.4188  0.1945
16538TIP3   OH271104   1.161   6.303  12.755  0.3552  0.1517 -0.7144
16538TIP3    H171105   1.166   6.398  12.748 -1.1909  0.1764 -1.9364
16538TIP3    H271106   1.218   6.270  12.685  1.5289  0.1279  0.2109
16539TIP3   OH271107   2.353   1.511   0.957  0.3118  0.2208  0.1781
16539TIP3    H171108   2.344   1.533   0.864  0.0616  1.0928  0.3931
16539TIP3    H271109   2.293   1.572   1.002  0.7546  0.1126  0.9424
16540TIP3   OH271110   3.914   6.325  14.511 -0.0115 -0.0456  0.7069
16540TIP3    H171111   3.887   6.358  14.597 -0.9810 -1.5054  0.9996
16540TIP3    H271112   4.004   6.355  14.501 -0.8935  3.0313  0.7159
16541TIP3   OH271113   6.779   5.626  15.838  0.2227  0.2341 -0.5193
16541TIP3    H171114   6.770   5.721  15.836 -0.5708  0.1838  0.2063
16541TIP3    H271115   6.867   5.611  15.872 -0.1427  0.7135  0.6995
16542TIP3   OH271116   5.338   5.026  16.363 -0.8829 -0.1252  0.2376
16542TIP3    H171117   5.321   5.093  16.297  0.5315  1.1976  1.1185
16542TIP3    H271118   5.306   5.065  16.445 -2.2026 -1.5454  0.4473
16543TIP3   OH271119   5.188   5.916  14.547  0.0308 -0.0347  0.2375
16543TIP3    H171120   5.263   5.865  14.577  0.0089  0.4878  1.2114
16543TIP3    H271121   5.204   5.931  14.454  0.7353 -0.5981  0.2637
16544TIP3   OH271122   3.541   0.013   6.270  0.3885  0.1665 -0.9260
16544TIP3    H171123   3.450   0.011   6.300  0.6752 -0.8185 -0.0957
16544TIP3    H271124   3.544   0.088   6.210 -0.5285  1.3694  0.4448
16545TIP3   OH271125   6.145   5.058  12.225 -0.2147  0.5020 -0.1462
16545TIP3    H171126   6.222   5.052  12.282 -1.4518  1.5181  1.7202
16545TIP3    H271127   6.125   4.967  12.202  0.3061  0.0614  1.0657
16546TIP3   OH271128   1.444   6.217  11.261 -0.3767 -0.4891  0.4615
16546TIP3    H171129   1.412   6.201  11.350 -0.3855 -3.2757  0.0224
16546TIP3    H271130   1.535   6.185  11.262 -0.3347 -0.4345 -0.5169
16547TIP3   OH271131   3.208   2.424   1.269 -0.0005 -0.9061 -0.3621
16547TIP3    H171132   3.220   2.517   1.286  0.6739 -0.9124 -0.7604
16547TIP3    H271133   3.113   2.413   1.261 -0.0875 -0.2698 -0.2346
16548TIP3   OH271134   1.603   2.436   1.017 -0.5570 -0.0083 -0.6210
16548TIP3    H171135   1.517   2.469   1.045 -0.1244  1.4074 -0.8692
16548TIP3    H271136   1.585   2.348   0.984 -1.8885  0.1975 -0.5104
16549TIP3   OH271137   0.830   5.894  14.663 -0.2053 -0.0671 -0.0743
16549TIP3    H171138   0.806   5.984  14.640 -2.5508 -0.7020 -0.2828
16549TIP3    H271139   0.750   5.856  14.698  1.3376 -1.4230  2.1977
16550TIP3   OH271140   4.224   1.369  15.038 -0.0328  0.3643 -0.3106
16550TIP3    H171141   4.206   1.353  14.945  1.1460  1.1461 -0.7153
16550TIP3    H271142   4.157   1.431  15.065 -0.4364  0.0678 -0.6233
16551TIP3   OH271143   2.711   2.950   1.947  0.5175 -0.0323 -0.7754
16551TIP3    H171144   2.630   2.955   1.998  0.9366  0.9479 -0.1656
16551TIP3    H271145   2.713   2.861   1.913  0.3886 -0.8501  1.2102
16552TIP3   OH271146   5.102   0.096  12.304  0.1712  0.2378 -0.2884
16552TIP3    H171147   5.030   0.136  12.256 -1.1032  0.0388  1.3875
16552TIP3    H271148   5.180   0.143  12.273 -0.8927  1.8142 -0.6907
16553TIP3   OH271149   3.435   3.653   3.207 -0.2151 -0.1404 -0.3252
16553TIP3    H171150   3.377   3.729   3.217 -0.6528 -0.2744 -1.6789
16553TIP3    H271151   3.518   3.682   3.244 -0.6129  0.7045 -0.0469
16554TIP3   OH271152   6.813   5.132   4.777 -0.4789  0.7456  0.0890
16554TIP3    H171153   6.869   5.080   4.719 -0.1625  0.0237  1.0092
16554TIP3    H271154   6.726   5.127   4.738 -0.0773  1.1669 -0.8979
16555TIP3   OH271155   1.138   1.363   0.455  0.6176 -0.5823  0.1742
16555TIP3    H171156   1.114   1.447   0.417  1.1693 -0.2642  0.5224
16555TIP3    H271157   1.231   1.371   0.477  0.1227 -0.3603  2.5395
16556TIP3   OH271158   2.421   4.979  10.698 -0.3042 -0.6207  0.1705
16556TIP3    H171159   2.372   4.897  10.704  1.3409 -1.8485 -1.7978
16556TIP3    H271160   2.371   5.031  10.635 -0.4808 -0.7834  0.1741
16557TIP3   OH271161   2.449   0.255  13.784  0.6326  0.8325  0.6074
16557TIP3    H171162   2.359   0.232  13.760  0.3828  1.1210  1.2449
16557TIP3    H271163   2.475   0.319  13.718  0.5858  0.3056  0.0686
16558TIP3   OH271164   5.239   1.002  13.465  0.0273 -0.3617  0.1591
16558TIP3    H171165   5.273   0.938  13.402  2.1525 -2.2181  2.9923
16558TIP3    H271166   5.157   1.032  13.425  1.0887 -1.5647 -3.3325
16559TIP3   OH271167   4.381   0.560  14.119 -0.2096 -0.1757  0.1188
16559TIP3    H171168   4.305   0.519  14.159  0.2377 -1.2735 -0.1194
16559TIP3    H271169   4.414   0.621  14.185 -0.1583 -1.1129  0.9740
16560TIP3   OH271170   2.898   4.354  12.244 -0.3272 -0.0055 -0.1829
16560TIP3    H171171   2.898   4.380  12.152 -0.5439  1.2157  0.1392
16560TIP3    H271172   2.976   4.301  12.255 -1.2949 -1.8116 -1.5011
16561TIP3   OH271173   0.162   3.133  13.066  0.3171 -0.4157 -0.0874
16561TIP3    H171174   0.238   3.183  13.098 -2.0436  2.5274  1.4545
16561TIP3    H271175   0.178   3.121  12.973  1.8285  1.8579 -0.2011
16562TIP3   OH271176   4.501   1.204  13.517 -0.3215  0.2769 -0.1758
16562TIP3    H171177   4.454   1.178  13.596  0.9299  0.4485  0.6615
16562TIP3    H271178   4.531   1.122  13.478  2.8851  0.2040  1.9994
16563TIP3   OH271179   3.506   3.162   0.057 -0.4264  0.4050  0.0064
16563TIP3    H171180   3.433   3.125   0.007 -0.9004  1.2624  0.0356
16563TIP3    H271181   3.468   3.186   0.142  0.5426 -1.7695  1.1361
16564TIP3   OH271182   2.301   3.860  17.071  0.0903 -0.1557 -0.3197
16564TIP3    H171183   2.384   3.823  17.101  0.9702  2.1215  0.2256
16564TIP3    H271184   2.248   3.865  17.150 -0.5557 -1.4342 -0.6352
16565TIP3   OH271185   2.314   1.955   2.001 -0.1316 -0.5588  0.1635
16565TIP3    H171186   2.234   2.000   2.027  0.2891 -0.1118  0.7161
16565TIP3    H271187   2.378   2.026   1.990  0.8492 -1.0844  2.1468
16566TIP3   OH271188   0.562   4.403   4.446  0.1057 -0.2405 -0.5698
16566TIP3    H171189   0.510   4.368   4.374 -0.0926 -0.0553 -0.5156
16566TIP3    H271190   0.577   4.495   4.422 -0.4424 -0.0266 -0.0991
16567TIP3   OH271191   2.863   2.751   2.075 -0.4124 -0.1163 -0.2231
16567TIP3    H171192   2.884   2.842   2.096  0.9415 -0.6006  0.6523
16567TIP3    H271193   2.790   2.730   2.133 -0.2072  0.1799  0.1464
16568TIP3   OH271194   0.443   3.103  16.638 -0.8406  0.7991  0.0522
16568TIP3    H171195   0.452   3.134  16.728  1.7214  1.9252 -0.5216
16568TIP3    H271196   0.532   3.100  16.604 -1.3413 -2.9106 -1.4336
16569TIP3   OH271197   5.240   6.233  11.927 -0.0401  0.1827  0.2732
16569TIP3    H171198   5.334   6.253  11.930  0.1848 -0.8759  1.2853
16569TIP3    H271199   5.200   6.301  11.981  0.2217  0.2757  0.3534
16570TIP3   OH271200   2.275   4.475  10.366 -0.2414  0.6225 -0.6371
16570TIP3    H171201   2.291   4.569  10.352  0.6542  0.1177 -3.5809
16570TIP3    H271202   2.362   4.436  10.369 -0.5702 -0.0892  1.5280
16571TIP3   OH271203   1.371   6.240   0.534  0.4841 -0.1005  0.0025
16571TIP3    H171204   1.398   6.269   0.447  0.7914 -0.1446  0.0807
16571TIP3    H271205   1.449   6.252   0.588  0.4349 -0.5187  0.1685
16572TIP3   OH271206   1.858   0.589  14.271  0.3640 -0.3228  1.2590
16572TIP3    H171207   1.767   0.608  14.296  0.6103 -1.5604  3.2815
16572TIP3    H271208   1.907   0.592  14.353  1.6843 -2.1748  0.6140
16573TIP3   OH271209   4.134   1.533  16.342 -0.4103  0.0106 -0.3216
16573TIP3    H171210   4.148   1.501  16.431 -0.1463 -0.2534 -0.4556
16573TIP3    H271211   4.105   1.456  16.293  0.0693  0.0068 -0.6080
16574TIP3   OH271212   5.803   3.689   4.435  0.1826 -0.0918  0.2010
16574TIP3    H171213   5.771   3.732   4.515  1.9838  0.3618  0.7426
16574TIP3    H271214   5.896   3.672   4.454  0.0704 -2.1372 -0.9048
16575TIP3   OH271215   4.589   1.518   2.277  0.0296 -0.0648 -0.5961
16575TIP3    H171216   4.641   1.456   2.226 -0.5434 -0.8834 -0.1931
16575TIP3    H271217   4.500   1.485   2.273  0.1672 -1.0586  2.1890
16576TIP3   OH271218   5.239   6.289  13.080  0.4532 -0.0189 -0.0331
16576TIP3    H171219   5.199   6.361  13.033  1.2190 -0.2513 -1.0857
16576TIP3    H271220   5.205   6.296  13.169 -0.7955  0.6179 -0.5340
16577TIP3   OH271221   1.002   3.460  10.469 -0.4135 -0.1101 -0.7393
16577TIP3    H171222   1.043   3.533  10.424  0.3790 -1.9041 -3.1747
16577TIP3    H271223   1.066   3.389  10.464 -1.6662 -1.3840  0.2959
16578TIP3   OH271224   5.610   4.955  13.607  0.4796  0.0155 -0.5235
16578TIP3    H171225   5.545   5.001  13.554  0.6700  0.7274 -0.1556
16578TIP3    H271226   5.680   5.019  13.620  2.5911 -1.5485 -3.2194
16579TIP3   OH271227   3.281   3.479  17.040  0.0226  0.1604  0.2336
16579TIP3    H171228   3.347   3.410  17.038  1.7665  1.7682 -0.1283
16579TIP3    H271229   3.231   3.467  16.959 -1.5683 -2.3521  1.5017
16580TIP3   OH271230   1.337   1.550   0.287 -0.1070 -0.3801  0.2909
16580TIP3    H171231   1.369   1.465   0.316 -0.8588 -1.3580 -1.5922
16580TIP3    H271232   1.365   1.611   0.356  2.7855 -1.6786  0.4101
16581TIP3   OH271233   0.545   0.024  12.632  0.2004  0.8954  0.1229
16581TIP3    H171234   0.588   0.100  12.593  2.4117 -0.8680 -1.1361
16581TIP3    H271235   0.487  -0.008  12.562  0.6175  0.4326 -0.0175
16582TIP3   OH271236   0.158   1.272   2.544 -0.7667 -0.3464 -0.3872
16582TIP3    H171237   0.222   1.343   2.549 -0.1840 -0.9268  0.7422
16582TIP3    H271238   0.125   1.276   2.454 -1.3504  1.8533 -0.1377
16583TIP3   OH271239   3.848   5.990  16.094 -0.2282 -0.0796 -0.0022
16583TIP3    H171240   3.828   5.897  16.094  0.5419 -0.2555 -0.7631
16583TIP3    H271241   3.895   6.005  16.012  0.5620  0.7879  0.5883
16584TIP3   OH271242   5.720   3.159   1.390  0.6639 -0.6207 -0.0929
16584TIP3    H171243   5.664   3.168   1.466 -0.3965 -1.2525 -0.7737
16584TIP3    H271244   5.728   3.064   1.377 -0.9754 -0.5674 -2.0083
16585TIP3   OH271245   3.384   3.068  13.207 -0.0618 -0.1470  0.1634
16585TIP3    H171246   3.377   2.976  13.235 -2.9226 -0.5291 -1.3905
16585TIP3    H271247   3.478   3.081  13.192  0.4046 -3.0674 -0.2350
16586TIP3   OH271248   4.991   1.283   2.621 -0.4599 -1.0538 -0.3221
16586TIP3    H171249   4.923   1.343   2.590 -1.4341 -2.4511 -1.0045
16586TIP3    H271250   5.069   1.308   2.572 -0.6526  0.1178 -0.0523
16587TIP3   OH271251   1.656   6.575   1.499 -0.7249 -0.3501 -0.0652
16587TIP3    H171252   1.701   6.658   1.515  0.9912 -1.3563  0.6632
16587TIP3    H271253   1.700   6.513   1.556 -0.8572 -2.1136 -1.7621
16588TIP3   OH271254   1.243   3.014   2.852  0.3737 -0.3267  0.0789
16588TIP3    H171255   1.323   2.984   2.810  0.0895 -1.3116  0.2033
16588TIP3    H271256   1.182   3.028   2.780  0.9755  1.5478 -0.1206
16589TIP3   OH271257   6.464   2.258   3.611 -0.2764 -0.3283 -0.0163
16589TIP3    H171258   6.446   2.214   3.528 -0.7225 -1.3261  0.5879
16589TIP3    H271259   6.556   2.237   3.630 -0.4323 -0.8711  0.1747
16590TIP3   OH271260   3.938   5.327   5.963 -0.5110  0.2168 -0.9949
16590TIP3    H171261   3.903   5.292   6.045  1.5361 -0.1293 -0.1864
16590TIP3    H271262   3.935   5.422   5.974 -0.2623  0.1726 -0.4941
16591TIP3   OH271263   4.708   1.397  17.223 -0.0809 -0.2996  0.1989
16591TIP3    H171264   4.681   1.316  17.265  0.2185 -0.5366 -0.0581
16591TIP3    H271265   4.796   1.413  17.256 -0.3579  0.2267  0.6864
16592TIP3   OH271266   1.959   6.169   5.318  0.4132  0.4018 -0.3724
16592TIP3    H171267   1.880   6.195   5.365  0.6857  2.1224 -0.7904
16592TIP3    H271268   2.026   6.232   5.346  0.3794  2.1119 -3.5747
16593TIP3   OH271269   6.784   5.797  16.541  0.2228  0.1247 -0.5433
16593TIP3    H171270   6.778   5.811  16.446  2.6724  0.0911 -0.7695
16593TIP3    H271271   6.807   5.883  16.577  0.2379 -0.0691 -0.0802
16594TIP3   OH271272   0.624   5.822   6.472  0.5293  0.2145  0.0212
16594TIP3    H171273   0.696   5.766   6.443 -1.2031 -2.0154 -0.2463
16594TIP3    H271274   0.593   5.866   6.392  0.6679  0.0435 -0.1247
16595TIP3   OH271275   2.584   3.867   6.189  0.7983 -0.0037 -0.1629
16595TIP3    H171276   2.522   3.936   6.169  1.0388  0.4227  0.5172
16595TIP3    H271277   2.669   3.911   6.195  0.9409 -0.3329  0.3580
16596TIP3   OH271278   3.314   4.237   4.976 -0.5262 -0.7192  0.2773
16596TIP3    H171279   3.276   4.305   5.031  0.0509 -0.0728 -0.1059
16596TIP3    H271280   3.267   4.246   4.892  0.0457 -0.3075 -0.0060
16597TIP3   OH271281   2.372   1.443  14.257 -0.0918 -0.6188 -0.3315
16597TIP3    H171282   2.300   1.411  14.203 -0.9070  1.5110 -0.6387
16597TIP3    H271283   2.358   1.401  14.342 -0.0373 -2.3623 -1.1502
16598TIP3   OH271284   3.506   5.642   5.614  0.6759 -0.3411  0.6076
16598TIP3    H171285   3.508   5.639   5.518  0.2038  0.4167  0.5628
16598TIP3    H271286   3.450   5.717   5.634  0.4687 -0.7145  1.4819
16599TIP3   OH271287   2.171   4.425   4.456  0.2119  0.2856  0.2263
16599TIP3    H171288   2.088   4.454   4.418  0.5879  0.8782 -0.1584
16599TIP3    H271289   2.223   4.505   4.466  1.3977 -0.2575 -1.2004
16600TIP3   OH271290   1.006   0.482  15.176 -0.6642  0.3203 -0.0104
16600TIP3    H171291   1.056   0.556  15.209  3.1732 -1.5311 -1.0189
16600TIP3    H271292   1.000   0.497  15.082 -2.3818  0.6170  0.1123
16601TIP3   OH271293   3.389   5.689  14.433  0.5112 -0.1885  0.1613
16601TIP3    H171294   3.468   5.726  14.394 -0.2593  1.7259  0.2989
16601TIP3    H271295   3.361   5.754  14.497 -1.7815 -0.2360 -0.6914
16602TIP3   OH271296   5.955   6.633  15.171  0.0927 -0.0160  0.1032
16602TIP3    H171297   6.034   6.597  15.129 -0.2273  0.3714 -0.8732
16602TIP3    H271298   5.986   6.666  15.255  0.5626 -1.7621  0.6599
16603TIP3   OH271299   6.144   3.588   0.025  0.2443  0.4555 -0.2913
16603TIP3    H171300   6.213   3.524   0.041  1.8278  2.1955  0.2419
16603TIP3    H271301   6.083   3.577   0.098  1.0612  0.2643  0.3721
16604TIP3   OH271302   3.642   5.399   5.270  0.3108 -0.1109  0.2174
16604TIP3    H171303   3.713   5.348   5.232  0.4995 -0.1465  0.6173
16604TIP3    H271304   3.682   5.446   5.343  0.3645  1.3428 -0.7065
16605TIP3   OH271305   0.693   6.641   6.376  0.2378 -0.3732 -0.0686
16605TIP3    H171306   0.785   6.651   6.353 -0.3030  0.1535 -2.1887
16605TIP3    H271307   0.682   6.697   6.453  1.9154 -1.3906  0.9753
16606TIP3   OH271308   6.444   1.951   0.403  0.0695  0.1518  0.0414
16606TIP3    H171309   6.512   1.926   0.466  0.1591  0.3802  0.0366
16606TIP3    H271310   6.366   1.904   0.433  0.8570 -2.3955 -1.5541
16607TIP3   OH271311   3.453   3.846   2.439 -0.0194  0.6046 -0.1464
16607TIP3    H171312   3.427   3.804   2.521  2.6968 -2.3658 -0.5840
16607TIP3    H271313   3.460   3.939   2.460 -1.8083  0.3107  2.2294
16608TIP3   OH271314   4.758   6.551   5.758 -0.0154  0.5400 -0.2737
16608TIP3    H171315   4.717   6.485   5.703  0.0934 -0.0855  0.3897
16608TIP3    H271316   4.851   6.546   5.738  0.2973 -1.0248  1.3193
16609TIP3   OH271317   4.417   1.032  12.330  0.0968  0.4468  0.6358
16609TIP3    H171318   4.427   0.938  12.345  0.5674  0.4530  0.3784
16609TIP3    H271319   4.506   1.065  12.320 -0.0593  0.9397  0.8315
16610TIP3   OH271320   3.053   0.306   0.237  0.7207  0.2516  0.1291
16610TIP3    H171321   3.081   0.255   0.161  0.7655  1.0773 -0.4339
16610TIP3    H271322   3.129   0.361   0.258 -0.0152  1.6744 -0.6917
16611TIP3   OH271323   3.993   4.118   1.138  0.0952 -0.0667 -0.8718
16611TIP3    H171324   4.027   4.088   1.222  2.6589 -0.7933 -2.0698
16611TIP3    H271325   3.974   4.211   1.150  2.2245  0.3012  0.0323
16612TIP3   OH271326   5.078   3.029   3.881 -0.1056 -0.0382 -0.2025
16612TIP3    H171327   5.093   3.003   3.790 -0.9642  1.1980 -0.7182
16612TIP3    H271328   4.988   3.061   3.883  0.5231  1.8246  0.6228
16613TIP3   OH271329   0.630   5.152   1.898  0.0309 -0.0034 -0.0078
16613TIP3    H171330   0.700   5.092   1.868  0.5249  0.9354 -0.7986
16613TIP3    H271331   0.676   5.216   1.952 -1.0980 -2.8934  5.0386
16614TIP3   OH271332   5.330   0.607   0.954 -0.3820  0.0717 -0.3403
16614TIP3    H171333   5.366   0.686   0.915  1.8454 -0.4674  0.4505
16614TIP3    H271334   5.271   0.639   1.023  0.1202  1.0333 -0.3392
16615TIP3   OH271335   0.347   2.161   4.370 -0.0747  0.1555  0.3425
16615TIP3    H171336   0.435   2.124   4.373  0.1401  0.6306 -0.0297
16615TIP3    H271337   0.328   2.188   4.460 -0.0288 -0.3791  0.5142
16616TIP3   OH271338   0.242   6.332  11.584 -0.0337 -0.4862  0.1925
16616TIP3    H171339   0.323   6.348  11.537  0.4411 -2.5954  0.1922
16616TIP3    H271340   0.253   6.377  11.668  1.7373 -1.8246  0.7303
16617TIP3   OH271341   2.939   6.038   0.898  0.1649  0.1831  0.6630
16617TIP3    H171342   2.986   6.102   0.951  0.9012  0.0091  0.2375
16617TIP3    H271343   2.935   5.959   0.952  0.3545  0.2022  0.7039
16618TIP3   OH271344   5.067   4.016   2.188  0.1607  0.0791  0.1240
16618TIP3    H171345   5.102   4.014   2.278  1.1181  1.0805 -0.1986
16618TIP3    H271346   4.973   4.028   2.200  0.3858  1.1758  1.0167
16619TIP3   OH271347   1.024   4.936  13.216 -0.4222 -0.3180  0.1681
16619TIP3    H171348   1.043   4.842  13.222 -0.7165 -0.3178  1.7225
16619TIP3    H271349   1.033   4.967  13.306 -0.9435  1.0307 -0.2262
16620TIP3   OH271350   4.237   5.685  17.181 -0.3284  0.3114 -0.0557
16620TIP3    H171351   4.235   5.720  17.270 -0.1593  0.1468  0.0141
16620TIP3    H271352   4.323   5.711  17.147  0.0469 -0.5404  0.2062
16621TIP3   OH271353   0.741   6.668  12.605  0.8654 -0.2030 -0.4953
16621TIP3    H171354   0.666   6.725  12.590  0.5565 -0.1450  1.0665
16621TIP3    H271355   0.723   6.590  12.552 -1.0133 -0.7620  0.8253
16622TIP3   OH271356   3.373   4.059   2.149  0.7479  0.5242  0.0127
16622TIP3    H171357   3.307   3.994   2.173  0.5165  0.3219 -1.1101
16622TIP3    H271358   3.456   4.020   2.177  0.9674 -1.6396 -3.0865
16623TIP3   OH271359   5.741   0.757   2.801 -0.4205 -0.1756 -0.0110
16623TIP3    H171360   5.672   0.795   2.856 -1.1178 -0.0665 -0.9248
16623TIP3    H271361   5.705   0.762   2.712 -0.2799 -2.4040 -0.2482
16624TIP3   OH271362   6.596   0.004   5.631 -0.5481 -0.1893 -0.0020
16624TIP3    H171363   6.619  -0.076   5.584 -0.9686  0.0435 -0.6123
16624TIP3    H271364   6.664   0.066   5.606 -1.6470  0.4175 -1.5914
16625TIP3   OH271365   6.740   2.530  13.117  0.0877  0.3228  0.3990
16625TIP3    H171366   6.744   2.587  13.040  1.6239 -0.4827 -0.1624
16625TIP3    H271367   6.831   2.507  13.135 -0.1456  1.0710  2.9431
16626TIP3   OH271368   0.948   6.567   2.141 -0.4811 -0.1783 -0.5059
16626TIP3    H171369   0.904   6.495   2.187  1.8697 -1.1461  0.3718
16626TIP3    H271370   0.982   6.527   2.061  0.2326  0.1447 -0.3648
16627TIP3   OH271371   2.814   6.162  14.434  0.3026 -0.0825  0.6494
16627TIP3    H171372   2.882   6.180  14.499  1.4030  1.9674 -0.9278
16627TIP3    H271373   2.784   6.248  14.406 -2.6080 -0.9216  0.8530
16628TIP3   OH271374   1.427   0.796  15.442  0.0745 -0.0325 -0.1738
16628TIP3    H171375   1.456   0.794  15.351  2.3385  0.9466  0.4640
16628TIP3    H271376   1.352   0.855  15.443 -0.2234 -0.3721 -1.4395
16629TIP3   OH271377   1.704   0.576  11.406 -0.6501  0.2461  0.7754
16629TIP3    H171378   1.657   0.610  11.330 -2.2913  0.3206  1.7761
16629TIP3    H271379   1.703   0.481  11.394 -1.8222  0.1923  1.1920
16630TIP3   OH271380   0.642   4.886  12.235 -0.3478 -0.1196 -0.4683
16630TIP3    H171381   0.649   4.811  12.177 -0.8164 -0.2444 -0.3746
16630TIP3    H271382   0.662   4.851  12.322  0.5309  0.1046 -0.5723
16631TIP3   OH271383   0.989   0.938  15.262  0.3271 -0.1065  0.1372
16631TIP3    H171384   1.047   0.924  15.187 -0.5703  0.4332 -0.6843
16631TIP3    H271385   0.926   0.866  15.257  1.2560 -1.0614  1.3970
16632TIP3   OH271386   3.270   6.365   5.215 -0.3671  0.4285 -0.3768
16632TIP3    H171387   3.226   6.288   5.181 -1.0422 -0.1786  1.7687
16632TIP3    H271388   3.306   6.338   5.299  0.1309  2.2209  0.0318
16633TIP3   OH271389   0.148   6.496  12.106 -0.7050 -0.3960 -0.7835
16633TIP3    H171390   0.192   6.543  12.176  1.7361  1.7721 -3.5008
16633TIP3    H271391   0.141   6.406  12.137  0.6954  0.3402  1.9841
16634TIP3   OH271392   2.267   1.936   6.800 -0.3389 -0.4020  0.2460
16634TIP3    H171393   2.352   1.951   6.842 -1.3779 -0.7573  2.6828
16634TIP3    H271394   2.253   1.842   6.810 -1.7883 -0.0889  1.6235
16635TIP3   OH271395   6.445   1.785  12.136  0.1283  0.4756 -0.5168
16635TIP3    H171396   6.356   1.805  12.109  0.8828  3.0096 -1.5017
16635TIP3    H271397   6.478   1.725  12.070 -1.0558 -1.1760  0.3293
16636TIP3   OH271398   0.022   3.053  11.949 -0.1197 -0.0668  0.2407
16636TIP3    H171399   0.091   3.041  12.015  0.9662 -1.5144 -1.0942
16636TIP3    H271400  -0.054   3.008  11.985 -0.2761  1.1418  1.5205
16637TIP3   OH271401   2.926   4.185   2.801  0.7244  0.4557  0.2891
16637TIP3    H171402   2.970   4.106   2.769 -0.1473 -0.2726  0.8245
16637TIP3    H271403   2.986   4.256   2.780  1.1078 -0.2278 -1.0786
16638TIP3   OH271404   6.106   4.214  15.169 -0.1151  0.0126  0.3182
16638TIP3    H171405   6.179   4.262  15.207  2.2688 -3.8900  1.2723
16638TIP3    H271406   6.043   4.206  15.240 -0.4246  1.3718  0.2244
16639TIP3   OH271407   0.330   4.533  16.691 -0.3531 -0.0058  0.3104
16639TIP3    H171408   0.352   4.524  16.598 -0.0367  0.3884  0.3467
16639TIP3    H271409   0.265   4.464  16.706  1.2996 -1.6295  0.3488
16640TIP3   OH271410   4.096   4.228  14.740 -0.1073 -0.3451 -0.5221
16640TIP3    H171411   4.017   4.183  14.712 -0.6614  0.5786 -0.4896
16640TIP3    H271412   4.111   4.196  14.829 -1.1220  0.3193 -0.0845
16641TIP3   OH271413   4.765   6.625  15.322  0.0304  0.2847 -0.1495
16641TIP3    H171414   4.843   6.607  15.269 -0.2544 -0.6679 -0.2585
16641TIP3    H271415   4.793   6.613  15.412 -0.1216 -0.5878 -0.2150
16642TIP3   OH271416   1.365   6.617  15.840  0.0068 -0.0724  0.0068
16642TIP3    H171417   1.306   6.665  15.897  0.5888  1.1163 -0.3448
16642TIP3    H271418   1.410   6.685  15.790  0.4547 -1.0217 -0.9261
16643TIP3   OH271419   0.991   2.122  13.074  0.3057 -0.0847 -0.9711
16643TIP3    H171420   1.049   2.121  12.998  1.8215  1.6769  0.0786
16643TIP3    H271421   1.032   2.063  13.137  2.1522  2.5311  0.4854
16644TIP3   OH271422   2.036   5.893   1.898 -0.2494  0.1832  0.0273
16644TIP3    H171423   2.038   5.958   1.828  2.8481 -0.3595 -0.5556
16644TIP3    H271424   1.967   5.923   1.957 -1.0386  2.2322 -1.8022
16645TIP3   OH271425   3.167   6.642   6.006 -0.3256 -0.1770 -0.2885
16645TIP3    H171426   3.108   6.710   5.974 -0.0301 -0.6321 -1.8731
16645TIP3    H271427   3.242   6.690   6.042 -0.0732  0.3580 -1.4836
16646TIP3   OH271428   0.864   1.215   0.348  0.1940  0.2028 -0.5401
16646TIP3    H171429   0.898   1.131   0.380 -0.3420 -0.1335 -0.8239
16646TIP3    H271430   0.872   1.275   0.422 -1.8209 -0.7667  0.5368
16647TIP3   OH271431   0.143   2.253  14.865 -0.3827  0.5639 -0.3822
16647TIP3    H171432   0.236   2.258  14.889 -0.1194  0.7269 -1.3954
16647TIP3    H271433   0.139   2.294  14.779 -1.2832 -0.1170 -0.6689
16648TIP3   OH271434   4.009   2.592  14.199 -0.0808  0.1514  0.4785
16648TIP3    H171435   4.031   2.499  14.201 -1.3502 -0.2301 -1.1242
16648TIP3    H271436   4.043   2.624  14.115 -0.7373  0.8250  0.4542
16649TIP3   OH271437   2.805   6.046   2.377  0.1392 -0.3072  0.3033
16649TIP3    H171438   2.754   6.017   2.452  1.4591 -0.1966  1.2837
16649TIP3    H271439   2.893   6.011   2.392  0.3539 -0.5871 -1.3739
16650TIP3   OH271440   2.792   6.453  16.548  0.0250 -0.2837 -0.1390
16650TIP3    H171441   2.822   6.526  16.602  0.2052  0.5785 -1.3627
16650TIP3    H271442   2.747   6.395  16.609 -0.3452  0.9719  0.8224
16651TIP3   OH271443   5.122   4.468  11.096 -0.1155  0.1069 -0.5686
16651TIP3    H171444   5.217   4.454  11.093 -0.3734 -1.7584 -1.1539
16651TIP3    H271445   5.095   4.435  11.182 -0.6711 -2.9257 -1.7903
16652TIP3   OH271446   1.832   1.558  12.432 -0.0509  1.0455  0.4508
16652TIP3    H171447   1.818   1.475  12.476  2.7905 -0.1504 -0.6474
16652TIP3    H271448   1.881   1.611  12.495  0.8248  0.6930  0.0869
16653TIP3   OH271449   4.367   6.041  16.804 -0.5267 -0.1909  0.0871
16653TIP3    H171450   4.406   6.043  16.892 -0.1440 -0.9891 -0.0517
16653TIP3    H271451   4.381   5.951  16.774  0.2502  0.3339 -1.1980
16654TIP3   OH271452   5.444   2.546  15.294 -0.2783  0.4027  0.5043
16654TIP3    H171453   5.519   2.566  15.350 -1.4766  1.3018  1.8591
16654TIP3    H271454   5.390   2.626  15.297 -2.4753 -1.0308  1.5592
16655TIP3   OH271455   4.091   5.095  15.046 -0.0132  0.4103 -0.0197
16655TIP3    H171456   4.018   5.051  15.002 -0.4891 -1.2224  2.2388
16655TIP3    H271457   4.154   5.113  14.976 -0.5601 -2.3370 -1.3594
16656TIP3   OH271458   0.681   5.556  15.603  0.0476 -0.6456 -0.1053
16656TIP3    H171459   0.763   5.514  15.578  1.0469  0.5659  0.9806
16656TIP3    H271460   0.629   5.486  15.642  1.1006 -1.1849  0.3904
16657TIP3   OH271461   3.837   3.246  12.572 -0.1056 -0.9310 -0.3439
16657TIP3    H171462   3.919   3.281  12.539 -0.3065 -0.1435 -0.0362
16657TIP3    H271463   3.810   3.309  12.640 -1.2853 -0.8213 -0.8964
16658TIP3   OH271464   5.580   6.435  14.958 -0.3094 -0.3962 -0.0826
16658TIP3    H171465   5.493   6.451  14.995 -0.1693 -2.1918  1.1535
16658TIP3    H271466   5.641   6.469  15.023 -0.0662  0.2100 -0.6188
16659TIP3   OH271467   1.467   3.556  13.216 -0.2213 -0.2526 -0.5053
16659TIP3    H171468   1.488   3.569  13.123 -0.9750  0.6306 -0.5706
16659TIP3    H271469   1.454   3.645  13.250  1.7247 -0.4397  0.8722
16660TIP3   OH271470   5.882   6.710  14.445 -0.1527  0.1692 -0.2361
16660TIP3    H171471   5.810   6.772  14.449  1.0764  1.7490 -1.1910
16660TIP3    H271472   5.908   6.710  14.353 -0.3109 -2.0557 -0.3378
16661TIP3   OH271473   4.693   1.923  15.518 -0.3930 -0.3043 -0.1101
16661TIP3    H171474   4.769   1.940  15.574 -0.9472 -0.4363  0.7001
16661TIP3    H271475   4.708   1.978  15.441  0.8342 -0.8150 -0.2582
16662TIP3   OH271476   4.410   2.470  16.969 -0.3375 -0.0820 -0.1634
16662TIP3    H171477   4.447   2.477  16.881  2.0835  2.0344  0.8745
16662TIP3    H271478   4.323   2.433  16.956 -0.1525  0.3261 -3.4485
16663TIP3   OH271479   5.315   5.919  11.809  0.0164 -0.4811  0.2942
16663TIP3    H171480   5.261   5.861  11.756  1.2591 -2.1830  0.8130
16663TIP3    H271481   5.405   5.905  11.778  0.4245  0.7182  0.8435
16664TIP3   OH271482   4.491   5.419  15.476  0.4639  0.3233  0.1224
16664TIP3    H171483   4.529   5.334  15.452 -0.4725  0.3212 -1.4685
16664TIP3    H271484   4.508   5.426  15.570  2.4754 -0.6236 -0.1196
16665TIP3   OH271485   3.034   0.934   5.450  0.0426 -0.1548  0.1767
16665TIP3    H171486   2.967   0.942   5.382 -1.6862  0.1106  1.8099
16665TIP3    H271487   3.091   1.009   5.438 -0.7775  0.3868 -0.4240
16666TIP3   OH271488   3.858   4.112   0.501  0.2847 -0.3983  0.3362
16666TIP3    H171489   3.906   4.188   0.532  0.9053 -0.1137 -1.2369
16666TIP3    H271490   3.798   4.090   0.573  1.5528  0.2778  1.6467
16667TIP3   OH271491   5.863   6.331   5.405  0.1151 -0.2032  0.6313
16667TIP3    H171492   5.860   6.256   5.347  0.8899  0.4934 -0.3313
16667TIP3    H271493   5.940   6.381   5.378  0.6747  0.0016  2.4363
16668TIP3   OH271494   1.974   4.651   3.221 -0.3214  0.6326  0.3141
16668TIP3    H171495   1.932   4.574   3.257 -1.2806  0.5253 -0.9718
16668TIP3    H271496   2.042   4.617   3.163  0.5653  0.7976  1.2174
16669TIP3   OH271497   3.663   4.941  15.705 -0.6907 -0.0207  0.1866
16669TIP3    H171498   3.758   4.939  15.695 -0.6658  1.0627  0.1633
16669TIP3    H271499   3.646   4.886  15.782 -0.0309 -0.0485  0.3161
16670TIP3   OH271500   2.477   2.144   5.142  0.2069  0.0806 -0.0703
16670TIP3    H171501   2.552   2.169   5.196 -0.6766 -1.2681  1.9104
16670TIP3    H271502   2.402   2.155   5.200 -0.5404 -4.0663  0.0098
16671TIP3   OH271503   2.822   6.427  13.456  0.2790  0.5760  0.7213
16671TIP3    H171504   2.821   6.333  13.439 -1.3057  1.0385 -2.4678
16671TIP3    H271505   2.888   6.438  13.525  1.2887 -2.7229  0.4624
16672TIP3   OH271506   5.626   1.056  17.180 -0.5138 -0.5955 -0.3920
16672TIP3    H171507   5.705   1.014  17.147 -0.0324  0.0531 -0.0774
16672TIP3    H271508   5.642   1.150  17.171 -0.6715 -0.4202  0.9773
16673TIP3   OH271509   6.648   5.051  12.648  0.1864 -0.2245 -0.2919
16673TIP3    H171510   6.596   5.125  12.679 -1.0469 -1.5436  0.9119
16673TIP3    H271511   6.727   5.052  12.703  0.0484  0.0398 -0.0991
16674TIP3   OH271512   0.350   0.527  16.652  0.5770 -0.1015  0.6588
16674TIP3    H171513   0.403   0.544  16.730  0.5644  0.9952  0.4442
16674TIP3    H271514   0.306   0.609  16.635  1.6421  0.1325 -1.3104
16675TIP3   OH271515   6.326   0.089  17.107  0.7610  0.1291  0.1658
16675TIP3    H171516   6.340   0.176  17.145  3.2185  0.5979 -1.5741
16675TIP3    H271517   6.389   0.033  17.152  0.4904 -0.3293 -0.0253
16676TIP3   OH271518   6.585   2.625   4.193  0.3096  0.1764  0.2288
16676TIP3    H171519   6.605   2.661   4.280 -3.0766  4.1878 -0.3298
16676TIP3    H271520   6.669   2.630   4.146  1.5116  0.9855  2.2895
16677TIP3   OH271521   5.350   1.913   2.671  0.6057 -0.0012  0.1514
16677TIP3    H171522   5.365   1.999   2.632 -0.9286  0.1768 -0.1323
16677TIP3    H271523   5.378   1.923   2.762  1.5179  0.4432 -0.1683
16678TIP3   OH271524   6.454   3.040   3.869  0.1266 -0.5160 -0.2291
16678TIP3    H171525   6.508   2.968   3.837 -3.2979 -3.0144 -0.9521
16678TIP3    H271526   6.449   3.101   3.796  2.0740 -0.0479 -0.0354
16679TIP3   OH271527   2.195   0.802  13.520 -0.7940  0.1890 -0.0260
16679TIP3    H171528   2.103   0.788  13.539 -0.9140 -0.0295 -0.7472
16679TIP3    H271529   2.202   0.796  13.424  0.5030 -3.3362  0.1280
16680TIP3   OH271530   6.390   5.002  12.370  0.5573  0.6491 -0.2837
16680TIP3    H171531   6.409   4.908  12.372  1.5598  0.7797 -1.8426
16680TIP3    H271532   6.475   5.044  12.367  0.1169  1.6394  0.6085
16681TIP3   OH271533   1.480   3.654   5.080 -0.1082  0.2658  0.2263
16681TIP3    H171534   1.422   3.700   5.139  0.0931 -0.3430  0.9146
16681TIP3    H271535   1.513   3.721   5.020  0.9289  1.1970  1.7978
16682TIP3   OH271536   3.072   6.557   3.357  0.1006 -0.1278 -0.0617
16682TIP3    H171537   3.081   6.462   3.364  1.8514  0.1489  3.2574
16682TIP3    H271538   3.157   6.588   3.326  0.9190  0.5135  2.5696
16683TIP3   OH271539   4.703   6.096  17.177 -0.0337 -0.0136  0.7504
16683TIP3    H171540   4.733   6.008  17.203 -2.5820 -1.2894 -0.3180
16683TIP3    H271541   4.724   6.151  17.252  1.8261 -1.4592  1.3900
16684TIP3   OH271542   4.329   0.895   1.360  0.0662 -0.6792  0.4247
16684TIP3    H171543   4.283   0.853   1.433  0.9773 -2.7689 -0.1520
16684TIP3    H271544   4.299   0.849   1.282 -0.3918  1.0928 -0.5101
16685TIP3   OH271545   0.502   0.021  16.320  0.5934 -0.4244 -0.1321
16685TIP3    H171546   0.535   0.040  16.408 -1.0365  0.0020  0.4153
16685TIP3    H271547   0.434  -0.045  16.333  0.5533 -0.5952 -1.1196
16686TIP3   OH271548   1.595   5.539   3.506 -0.3780  0.4092 -0.0800
16686TIP3    H171549   1.530   5.507   3.443 -1.4060  1.7572  0.2578
16686TIP3    H271550   1.601   5.469   3.571 -0.2636 -0.4294 -0.9583
16687TIP3   OH271551   1.299   3.330  14.101  0.7253  0.1568  0.0724
16687TIP3    H171552   1.324   3.366  14.017 -3.8468  2.4413 -0.6351
16687TIP3    H271553   1.375   3.343  14.157  2.5270  2.3971 -2.6520
16688TIP3   OH271554   6.474   0.152   5.300 -0.2894 -0.6203  0.2706
16688TIP3    H171555   6.565   0.175   5.277  0.1585 -1.1535  1.4450
16688TIP3    H271556   6.483   0.081   5.363 -1.6099 -2.9712 -2.0047
16689TIP3   OH271557   4.138   4.001   3.550  0.0316 -0.0551  0.0113
16689TIP3    H171558   4.137   4.071   3.485  0.9834 -0.9472 -1.0040
16689TIP3    H271559   4.055   3.955   3.537 -0.1502  0.2715  0.0006
16690TIP3   OH271560   3.035   1.382   5.732 -0.0083 -0.2699  0.4264
16690TIP3    H171561   2.972   1.403   5.802  1.4359  0.5844  1.5170
16690TIP3    H271562   3.101   1.451   5.737  0.0758 -0.0800 -1.9195
16691TIP3   OH271563   5.411   1.881   0.854  0.3523  0.2684  0.3445
16691TIP3    H171564   5.472   1.951   0.879 -1.4496  1.9713  0.2810
16691TIP3    H271565   5.439   1.856   0.766  1.2446  0.6660  0.4963
16692TIP3   OH271566   5.140   2.027   3.714 -0.0251 -0.0092  0.6737
16692TIP3    H171567   5.233   2.029   3.693 -0.3803  0.5432 -0.9551
16692TIP3    H271568   5.130   2.088   3.787  0.8843 -0.1698  0.9452
16693TIP3   OH271569   5.895   5.158  12.142  0.0469  1.2103  0.0191
16693TIP3    H171570   5.978   5.126  12.176 -0.0500  1.2515  0.3045
16693TIP3    H271571   5.831   5.092  12.169  0.3280 -0.0880 -2.3138
16694TIP3   OH271572   0.635   3.208   2.268  0.1117 -0.4779 -0.1834
16694TIP3    H171573   0.555   3.230   2.221  1.2462  0.2068 -1.9314
16694TIP3    H271574   0.654   3.286   2.321  1.1263  0.6116 -2.0347
16695TIP3   OH271575   0.977   0.077   3.863  0.5384  0.1814  0.3068
16695TIP3    H171576   1.056   0.098   3.912  1.0428  0.7833 -0.7355
16695TIP3    H271577   0.941  -0.001   3.907  1.2119  0.4373  1.3292
16696TIP3   OH271578   5.317   5.914  13.225  0.7028  0.3753  0.3403
16696TIP3    H171579   5.306   5.928  13.131  0.0337  0.5118  0.4284
16696TIP3    H271580   5.411   5.919  13.240  0.7305  1.4815 -0.1503
16697TIP3   OH271581   1.826   0.054  14.456 -0.3073 -0.4390 -0.1898
16697TIP3    H171582   1.801  -0.038  14.445 -2.1527  0.1560 -1.3396
16697TIP3    H271583   1.915   0.050  14.489  0.2036 -2.6361 -1.6040
16698TIP3   OH271584   1.026   6.580   4.660  0.3767 -0.5110 -0.3634
16698TIP3    H171585   0.970   6.554   4.587 -0.7836  0.6679  0.0852
16698TIP3    H271586   0.971   6.569   4.738 -0.1158  2.8812 -0.1062
16699TIP3   OH271587   3.772   1.113   3.102  0.5014 -0.7878  0.0206
16699TIP3    H171588   3.739   1.201   3.121 -1.4308 -1.8882  2.3019
16699TIP3    H271589   3.858   1.109   3.142 -0.0056 -0.3587  1.1761
16700TIP3   OH271590   2.781   2.980   1.154  0.5751 -0.0060 -0.3786
16700TIP3    H171591   2.785   2.886   1.135  0.1696  0.0348 -0.6570
16700TIP3    H271592   2.689   3.002   1.147  0.5787  0.2768  0.3673
16701TIP3   OH271593   2.224   3.756   1.018  0.1789 -0.4212  0.4864
16701TIP3    H171594   2.164   3.681   1.024 -0.8366  0.4153  1.1621
16701TIP3    H271595   2.169   3.829   0.992  1.2617  0.0123 -0.7280
16702TIP3   OH271596   4.022   2.580  11.588  0.2039  0.0507 -0.3098
16702TIP3    H171597   3.937   2.590  11.546 -0.3831 -1.1354  0.5373
16702TIP3    H271598   4.005   2.524  11.664  1.8906 -0.9705 -0.6380
16703TIP3   OH271599   6.539   5.560   0.545  0.1224 -0.2939  0.3520
16703TIP3    H171600   6.575   5.594   0.463 -0.1405  1.5074  0.9423
16703TIP3    H271601   6.614   5.518   0.588  0.8014  0.6925  0.1624
16704TIP3   OH271602   0.357   3.356  12.401 -0.4012  0.0440 -0.7381
16704TIP3    H171603   0.440   3.385  12.363 -1.0313  3.8099  0.2972
16704TIP3    H271604   0.294   3.366  12.329 -0.6313  1.5779 -0.3620
16705TIP3   OH271605   1.759   1.930   5.314 -0.1652  0.3435 -0.1439
16705TIP3    H171606   1.714   1.954   5.232 -0.2057  0.5871 -0.0529
16705TIP3    H271607   1.796   1.843   5.297  1.1491  1.0232 -0.9705
16706TIP3   OH271608   5.370   5.981   2.235 -0.5084 -0.2266 -0.7131
16706TIP3    H171609   5.440   5.915   2.236  0.7216  0.9954  0.8199
16706TIP3    H271610   5.334   5.978   2.324 -1.7738 -0.1828 -1.2146
16707TIP3   OH271611   0.048   2.803  16.771  0.0909 -0.0031  0.1040
16707TIP3    H171612   0.089   2.718  16.754  0.8744  0.2330  0.7442
16707TIP3    H271613  -0.021   2.810  16.705 -0.6889 -1.5979  0.6961
16708TIP3   OH271614   3.669   2.383  15.773  0.3119 -0.2090 -0.3398
16708TIP3    H171615   3.593   2.424  15.731 -0.4066  0.5025  1.5563
16708TIP3    H271616   3.733   2.453  15.780  0.9164 -0.6392 -1.3141
16709TIP3   OH271617   3.814   6.072   2.807 -0.2598 -0.3386  0.2927
16709TIP3    H171618   3.814   6.155   2.854  0.1569 -1.1675  1.8029
16709TIP3    H271619   3.850   6.009   2.869 -0.8958 -1.7264 -0.7003
16710TIP3   OH271620   6.520   0.910  16.354 -0.2467 -0.1035 -0.2201
16710TIP3    H171621   6.519   0.990  16.406 -2.9518 -0.5210  0.5203
16710TIP3    H271622   6.442   0.916  16.299  0.5312 -1.4013 -1.5389
16711TIP3   OH271623   1.624   6.162   2.133 -0.1628  0.3265  0.0153
16711TIP3    H171624   1.538   6.144   2.171  0.4752 -0.4417  1.1558
16711TIP3    H271625   1.656   6.237   2.182 -0.6531  1.3881 -1.2263
16712TIP3   OH271626   1.044   1.867   5.447 -0.5159 -0.0216 -0.0232
16712TIP3    H171627   1.026   1.931   5.516  2.4504  0.4145  0.4730
16712TIP3    H271628   1.013   1.909   5.367 -3.0371 -0.0886  0.8208
16713TIP3   OH271629   3.688   0.576   0.809 -0.0864  0.1979 -0.2523
16713TIP3    H171630   3.659   0.609   0.724 -0.1915  0.7727  0.0028
16713TIP3    H271631   3.615   0.522   0.840 -1.4264  2.4480  0.8556
16714TIP3   OH271632   0.896   4.549  14.063 -0.2290 -0.0655 -0.0558
16714TIP3    H171633   0.808   4.580  14.044  0.3863  1.9910  0.1695
16714TIP3    H271634   0.948   4.629  14.070  1.9233 -1.2383 -1.4577
16715TIP3   OH271635   2.261   2.906   5.858  0.4523 -0.2995  0.0466
16715TIP3    H171636   2.233   2.975   5.797 -0.1699 -0.3099  0.3140
16715TIP3    H271637   2.253   2.946   5.944 -1.7796 -1.3028  0.3595
16716TIP3   OH271638   2.537   2.024   3.323 -0.4548  0.4074  0.1724
16716TIP3    H171639   2.462   2.081   3.339  1.8881  4.0089 -0.4327
16716TIP3    H271640   2.551   1.979   3.406 -2.2196  0.9684  0.8260
16717TIP3   OH271641   2.443   0.251  16.657 -0.5752  0.3225 -0.0451
16717TIP3    H171642   2.518   0.309  16.667 -0.9554  1.2478 -2.1463
16717TIP3    H271643   2.384   0.276  16.728  0.9754 -0.3147  1.5366
16718TIP3   OH271644   6.183   0.125  11.226 -0.4267  0.1859  0.3560
16718TIP3    H171645   6.165   0.069  11.302  1.5131  1.0772  1.5402
16718TIP3    H271646   6.277   0.137  11.226 -0.6346  2.2898 -0.6953
16719TIP3   OH271647   3.461   2.374   5.792  0.0278 -0.1372 -0.4199
16719TIP3    H171648   3.552   2.363   5.819 -0.0584 -1.1368 -0.4934
16719TIP3    H271649   3.459   2.460   5.750  0.8319  0.1002  0.0014
16720TIP3   OH271650   4.658   1.775  14.934 -0.5262 -1.0894 -0.0030
16720TIP3    H171651   4.641   1.841  14.866 -3.0710 -0.9023  0.7046
16720TIP3    H271652   4.741   1.803  14.974 -0.8368  0.9242 -0.6207
16721TIP3   OH271653   1.120   1.919  15.002 -0.2661 -0.0055  0.0745
16721TIP3    H171654   1.130   1.987  15.069  3.1945  0.7938 -1.0553
16721TIP3    H271655   1.095   1.967  14.923 -1.1051 -0.5262  0.0137
16722TIP3   OH271656   1.579   2.161   0.616 -0.2447 -0.0372 -0.3428
16722TIP3    H171657   1.648   2.215   0.655 -0.8332 -0.3656  1.2257
16722TIP3    H271658   1.507   2.222   0.600 -0.1560  0.0184 -0.5369
16723TIP3   OH271659   4.959   2.291  17.044  0.0553  0.2897  0.4066
16723TIP3    H171660   4.975   2.385  17.034 -1.4652  0.4476 -0.8562
16723TIP3    H271661   5.006   2.268  17.124  2.7210  1.5613 -0.6549
16724TIP3   OH271662   5.652   3.252   1.131 -0.4858  0.2555 -0.5432
16724TIP3    H171663   5.639   3.159   1.113 -2.2281  0.2450  0.5534
16724TIP3    H271664   5.690   3.254   1.219 -0.3353  0.5988 -0.6153
16725TIP3   OH271665   6.754   4.835   5.569 -0.1541  0.2699 -0.3936
16725TIP3    H171666   6.693   4.908   5.554  1.0305  1.4328  0.2027
16725TIP3    H271667   6.838   4.866   5.535  0.2522 -1.0684 -0.6753
16726TIP3   OH271668   0.312   1.722  16.664 -0.1890 -0.0786  0.5727
16726TIP3    H171669   0.336   1.691  16.577 -0.3147  3.4395 -0.8859
16726TIP3    H271670   0.294   1.643  16.713  3.7876 -2.4780 -1.3376
16727TIP3   OH271671   3.843   1.654   2.044 -0.0588 -0.7850 -0.1507
16727TIP3    H171672   3.897   1.597   2.099  0.7537 -0.3635 -0.4956
16727TIP3    H271673   3.831   1.734   2.095  0.0151 -0.7072 -0.2542
16728TIP3   OH271674   0.961   1.593   5.316  0.8800  0.0990  0.0642
16728TIP3    H171675   0.929   1.627   5.233 -0.1990  0.0941  0.4688
16728TIP3    H271676   0.993   1.670   5.363 -0.5457  0.4413  0.5295
16729TIP3   OH271677   2.126   5.944   2.674 -0.1586  0.2771 -0.0683
16729TIP3    H171678   2.083   5.966   2.756  2.0331  1.8558  0.7521
16729TIP3    H271679   2.218   5.934   2.697  0.3408 -0.4771 -2.1465
16730TIP3   OH271680   5.301   0.148   3.455 -0.4014 -0.2246  0.3002
16730TIP3    H171681   5.276   0.056   3.455 -0.2672 -0.2660 -0.5238
16730TIP3    H271682   5.345   0.160   3.539  2.1973 -1.6610 -0.7375
16731TIP3   OH271683   2.049   6.671  12.486  0.3611  0.2656  0.1732
16731TIP3    H171684   2.076   6.716  12.566 -0.7512  2.7586 -0.7495
16731TIP3    H271685   1.954   6.666  12.492  0.4380 -1.9938  0.1839
16732TIP3   OH271686   2.332   5.267   2.544  0.4685  0.2822 -0.0556
16732TIP3    H171687   2.322   5.177   2.512  1.6197  0.1312 -0.0135
16732TIP3    H271688   2.302   5.321   2.471  3.4267 -0.0445 -1.6382
16733TIP3   OH271689   5.730   5.214  13.618 -0.1860 -0.0359  0.0703
16733TIP3    H171690   5.745   5.290  13.562  1.4765 -0.0047  0.5274
16733TIP3    H271691   5.673   5.247  13.687 -0.1720  0.5664 -0.1970
16734TIP3   OH271692   4.924   5.221   3.351 -0.1050  0.7588 -0.3066
16734TIP3    H171693   4.955   5.132   3.368  1.7680  1.2478 -0.9467
16734TIP3    H271694   4.962   5.274   3.421 -0.3523  1.2253 -0.5154
16735TIP3   OH271695   3.843   5.849   5.141  0.0791  0.4258  0.4682
16735TIP3    H171696   3.749   5.861   5.130  0.0389 -0.8144 -0.7498
16735TIP3    H271697   3.883   5.910   5.080  0.1395  1.8228  1.8270
16736TIP3   OH271698   1.819   5.779   4.550  0.0904  0.7669  0.2367
16736TIP3    H171699   1.770   5.773   4.467  0.3622 -1.8238  0.1950
16736TIP3    H271700   1.910   5.768   4.525  0.7309  4.1851  0.4910
16737TIP3   OH271701   1.943   0.929   4.667 -0.6009  0.3501  0.2837
16737TIP3    H171702   1.875   0.863   4.682 -0.2999 -0.0965 -0.3021
16737TIP3    H271703   1.954   0.971   4.753 -0.0044 -1.1107  0.9522
16738TIP3   OH271704   0.453   1.178  13.303  0.0496 -0.4516 -0.4257
16738TIP3    H171705   0.528   1.235  13.284  0.8836 -1.7555 -1.2141
16738TIP3    H271706   0.382   1.213  13.250  0.9354 -0.9358 -2.0063
16739TIP3   OH271707   0.698   1.614  14.635 -0.3248  0.0402 -0.1866
16739TIP3    H171708   0.689   1.637  14.543 -0.9570 -0.2182 -0.1924
16739TIP3    H271709   0.645   1.535  14.645 -0.0637 -0.0722  0.3463
16740TIP3   OH271710   3.642   6.396  11.496  1.0797  0.3687 -0.6296
16740TIP3    H171711   3.698   6.439  11.432  0.7567 -0.1074 -1.2494
16740TIP3    H271712   3.695   6.323  11.530  0.0108 -1.7300 -3.1411
16741TIP3   OH271713   6.311   2.841   1.494  0.1155  0.4467  0.3888
16741TIP3    H171714   6.377   2.773   1.499  2.2735  2.4757  1.3946
16741TIP3    H271715   6.302   2.874   1.583 -3.1029 -0.3984  0.5116
16742TIP3   OH271716   3.569   6.446   0.957  0.0912 -0.2199 -0.4492
16742TIP3    H171717   3.533   6.407   0.877  1.5621 -0.0985 -1.2098
16742TIP3    H271718   3.664   6.451   0.940  0.1596  2.0614  0.3095
16743TIP3   OH271719   1.113   1.015  16.075 -0.4424 -0.0769  0.2621
16743TIP3    H171720   1.145   1.048  16.159  1.5974 -0.9597 -0.1110
16743TIP3    H271721   1.086   1.093  16.027 -3.2924  0.3389  2.2911
16744TIP3   OH271722   5.943   1.711   4.527  0.3901 -0.0656 -0.1822
16744TIP3    H171723   5.926   1.651   4.455  0.6379  0.8823 -1.0615
16744TIP3    H271724   5.986   1.786   4.486 -1.0027  1.2569  0.6659
16745TIP3   OH271725   0.515   3.237  11.040 -0.2988  0.0728 -0.4510
16745TIP3    H171726   0.477   3.169  10.983 -0.9769 -1.4761  1.7126
16745TIP3    H271727   0.607   3.240  11.014 -0.1902 -1.8842 -0.4776
16746TIP3   OH271728   4.829   4.409   6.006 -0.0597 -0.1551 -0.1976
16746TIP3    H171729   4.764   4.478   6.019  0.1890  0.1176 -0.3849
16746TIP3    H271730   4.913   4.452   6.022  0.0684 -0.5240  0.1107
16747TIP3   OH271731   5.663   3.494   5.545  0.5404  0.8254  0.2901
16747TIP3    H171732   5.636   3.534   5.628 -0.0179  3.0963 -0.9095
16747TIP3    H271733   5.613   3.413   5.540  0.4536  0.7272  2.0749
16748TIP3   OH271734   1.531   5.845   1.481 -0.0477 -0.0905 -0.1907
16748TIP3    H171735   1.558   5.873   1.394  0.7383  1.5073  0.5200
16748TIP3    H271736   1.538   5.750   1.480  1.6656  0.0165 -1.3230
16749TIP3   OH271737   4.375   3.742  17.185  0.7450  0.3378 -0.7182
16749TIP3    H171738   4.352   3.649  17.177 -0.3958  0.2436  2.3094
16749TIP3    H271739   4.464   3.741  17.220 -0.5299  0.1550  2.8447
16750TIP3   OH271740   3.440   5.486   0.534 -0.0727 -0.0099 -0.2539
16750TIP3    H171741   3.513   5.525   0.486 -0.1950  0.3688 -0.1348
16750TIP3    H271742   3.481   5.417   0.586 -0.0041 -0.7458 -1.2498
16751TIP3   OH271743   5.248   1.043  11.311 -0.2174  0.0891  0.1202
16751TIP3    H171744   5.211   1.126  11.339 -0.6749  0.5122 -1.6416
16751TIP3    H271745   5.336   1.042  11.349 -0.0352  1.5851 -0.2009
16752TIP3   OH271746   2.260   6.751   4.211  0.2148  0.0121  0.0860
16752TIP3    H171747   2.244   6.845   4.222 -0.5520 -0.1587  0.5421
16752TIP3    H271748   2.180   6.710   4.245 -0.0080 -0.7620 -1.3238
16753TIP3   OH271749   4.958   2.041   5.663  0.2182 -0.1031  0.4445
16753TIP3    H171750   4.941   2.091   5.743  0.1929  0.9694 -0.2147
16753TIP3    H271751   4.940   1.951   5.688 -2.0702  0.4507  1.0389
16754TIP3   OH271752   4.697   4.549   2.882  0.6274 -0.5062 -0.2297
16754TIP3    H171753   4.791   4.533   2.887  1.0258  1.8737  1.9457
16754TIP3    H271754   4.661   4.502   2.957  0.0838 -1.0789 -0.8291
16755TIP3   OH271755   0.493   4.783  16.451  0.1355 -0.1052 -0.0928
16755TIP3    H171756   0.574   4.810  16.494 -0.6063 -1.2771  2.1478
16755TIP3    H271757   0.444   4.865  16.439  1.0260  0.4291 -0.1895
16756TIP3   OH271758   3.068   0.025   4.541 -0.1511  0.0139 -0.5312
16756TIP3    H171759   3.051  -0.012   4.628  0.2020  1.9612  0.4269
16756TIP3    H271760   3.025  -0.035   4.481 -0.6544 -1.2413  1.0014
16757TIP3   OH271761   3.714   0.956   0.548 -0.1894  0.6022 -0.0181
16757TIP3    H171762   3.657   0.980   0.475 -0.2721  1.8057  0.4224
16757TIP3    H271763   3.663   0.974   0.626  0.1174 -0.1189  0.3624
16758TIP3   OH271764   0.086   1.031   2.206  0.0439 -0.0883 -0.1804
16758TIP3    H171765   0.096   1.005   2.298  1.5978 -2.1560 -0.8534
16758TIP3    H271766   0.081   0.949   2.158  0.1709  0.9366 -2.0557
16759TIP3   OH271767   4.748   4.197  11.567  0.1201 -0.1322  0.0184
16759TIP3    H171768   4.721   4.268  11.625 -1.6126  1.3011 -2.3481
16759TIP3    H271769   4.843   4.206  11.561  0.1151  0.8821  1.1190
16760TIP3   OH271770   3.172   6.210   3.899 -0.0669  0.1776 -0.4726
16760TIP3    H171771   3.124   6.184   3.821  0.9830 -0.7236 -0.8399
16760TIP3    H271772   3.123   6.170   3.971  0.4890 -1.3146 -0.8973
16761TIP3   OH271773   6.127   0.932   3.723 -0.3399 -0.3105  0.4264
16761TIP3    H171774   6.096   0.842   3.710  2.2893 -1.2416 -0.1046
16761TIP3    H271775   6.215   0.932   3.686 -0.7249  2.8892 -0.8133
16762TIP3   OH271776   2.656   6.802   5.467  0.4843 -0.4447 -0.0394
16762TIP3    H171777   2.602   6.850   5.403  0.7391  0.3651  0.3432
16762TIP3    H271778   2.725   6.762   5.414  1.4723  1.2963 -0.1591
16763TIP3   OH271779   5.073   0.528   0.309 -0.7974  0.1928 -0.1734
16763TIP3    H171780   5.066   0.618   0.276  0.3753 -0.2697 -1.8355
16763TIP3    H271781   5.161   0.500   0.284 -1.4534 -1.7104 -0.5011
16764TIP3   OH271782   2.146   1.471  10.916  0.5385 -0.0511 -0.0045
16764TIP3    H171783   2.121   1.553  10.958  1.9382  0.2657  0.2574
16764TIP3    H271784   2.064   1.437  10.880 -0.2284  0.9858  0.6892
16765TIP3   OH271785   3.393   4.508  14.584  0.1565 -0.4109  0.6398
16765TIP3    H171786   3.336   4.570  14.539 -0.9007 -2.8294 -1.6461
16765TIP3    H271787   3.460   4.485  14.520  0.7817 -1.2891  1.5684
16766TIP3   OH271788   6.737   4.211  10.289 -0.5412 -0.0666  0.0163
16766TIP3    H171789   6.821   4.167  10.296 -0.9911 -1.2754 -1.5790
16766TIP3    H271790   6.758   4.304  10.296  1.2114 -0.2219 -2.0775
16767TIP3   OH271791   3.167   2.723   1.328 -0.0766  0.3212 -0.0866
16767TIP3    H171792   3.141   2.811   1.357 -0.9362  0.2924 -0.7508
16767TIP3    H271793   3.165   2.670   1.409 -1.4728  0.4725  0.0075
16768TIP3   OH271794   3.275   6.174  12.056 -0.4613  0.0096  0.5929
16768TIP3    H171795   3.239   6.095  12.018  1.9186 -0.0198 -1.8926
16768TIP3    H271796   3.252   6.169  12.149 -3.7232 -1.5645 -0.1602
16769TIP3   OH271797   6.583   1.710   4.888 -0.0937  0.2304  0.4098
16769TIP3    H171798   6.544   1.633   4.929 -1.4541  1.3484  1.3348
16769TIP3    H271799   6.510   1.752   4.843  0.8404  0.4582 -0.9435
16770TIP3   OH271800   5.498   4.675  11.725 -0.0582 -0.2456 -0.0466
16770TIP3    H171801   5.437   4.616  11.770  0.9240  0.4137  2.2886
16770TIP3    H271802   5.572   4.682  11.784  0.1468  2.8463 -0.5051
16771TIP3   OH271803   1.428   1.740   0.498  0.1695  0.2368  0.9052
16771TIP3    H171804   1.338   1.758   0.525  0.2101  0.7491  0.7045
16771TIP3    H271805   1.482   1.765   0.573  0.3854  2.8251 -0.0200
16772TIP3   OH271806   4.048   2.452   1.208 -0.4184 -0.1824  0.0141
16772TIP3    H171807   4.006   2.451   1.122 -3.1139 -0.1464  1.2277
16772TIP3    H271808   4.066   2.544   1.225 -0.7453 -0.0919 -0.1229
16773TIP3   OH271809   4.501   1.821  15.847 -0.3208 -0.7233  0.0009
16773TIP3    H171810   4.428   1.768  15.879  0.2289 -2.4532 -1.4805
16773TIP3    H271811   4.479   1.839  15.756  0.2157  0.3954  0.0719
16774TIP3   OH271812   6.543   4.193   3.732 -0.1054 -0.0829 -0.1909
16774TIP3    H171813   6.474   4.147   3.779  0.1608  0.7885  1.1199
16774TIP3    H271814   6.508   4.206   3.644 -0.4268 -2.1989 -0.4382
16775TIP3   OH271815   3.669   1.200  14.803  0.0206  0.2391 -0.6958
16775TIP3    H171816   3.582   1.212  14.764  0.0084 -0.1256 -0.7820
16775TIP3    H271817   3.730   1.233  14.737  0.0220 -0.7241 -1.1887
16776TIP3   OH271818   6.776   2.431  15.351 -0.4044 -0.5389 -0.0144
16776TIP3    H171819   6.682   2.412  15.347  0.0680 -2.8832 -1.1543
16776TIP3    H271820   6.819   2.346  15.341  1.8640  0.3479  1.3902
16777TIP3   OH271821   0.751   5.582  11.660  0.2416  0.0603  0.2909
16777TIP3    H171822   0.734   5.608  11.569  2.1475 -0.6183 -0.3090
16777TIP3    H271823   0.720   5.492  11.666 -1.3948  0.6339  0.8143
16778TIP3   OH271824   0.387   2.070  10.664 -0.1951  0.9151  0.1678
16778TIP3    H171825   0.430   2.151  10.636 -0.5672  1.1415  0.2415
16778TIP3    H271826   0.361   2.027  10.582  0.8909  0.3731  0.0932
16779TIP3   OH271827   5.158   6.023  15.334 -0.0747 -0.2505 -0.1834
16779TIP3    H171828   5.244   6.049  15.303 -0.2220 -1.0849 -1.3570
16779TIP3    H271829   5.175   5.947  15.390 -0.2305 -2.5139 -2.9925
16780TIP3   OH271830   5.541   3.613   2.118  0.0077  0.1705  0.3989
16780TIP3    H171831   5.561   3.707   2.119  0.9447  0.0834 -2.1309
16780TIP3    H271832   5.627   3.571   2.113 -0.4565 -0.7264 -0.2867
16781TIP3   OH271833   5.055   2.405   2.100 -0.5666  0.5258 -0.2453
16781TIP3    H171834   4.978   2.367   2.058 -1.3567  2.0651 -0.2663
16781TIP3    H271835   5.130   2.360   2.060 -1.4186 -0.8407 -0.3788
16782TIP3   OH271836   4.225   5.583   1.211  0.3948  0.1679 -0.3057
16782TIP3    H171837   4.169   5.660   1.203 -1.0287 -0.5736  1.6650
16782TIP3    H271838   4.165   5.509   1.207  1.1735 -0.6527  1.8861
16783TIP3   OH271839   4.511   6.366   3.625  0.2961  0.4233 -0.2589
16783TIP3    H171840   4.459   6.286   3.637  0.2904  0.5570  0.6525
16783TIP3    H271841   4.527   6.370   3.531  1.5066 -1.4313 -0.1792
16784TIP3   OH271842   1.083   5.652  12.050  0.0844 -0.0901 -0.1757
16784TIP3    H171843   1.018   5.716  12.020  0.5369  0.3422 -0.2539
16784TIP3    H271844   1.032   5.584  12.095 -0.4048  0.3128 -0.1168
16785TIP3   OH271845   0.497   3.897   1.512 -0.6047  0.0091  0.2833
16785TIP3    H171846   0.419   3.941   1.478 -0.6796 -0.8874 -0.7894
16785TIP3    H271847   0.557   3.968   1.534 -1.0477  0.6724 -0.5904
16786TIP3   OH271848   1.230   4.749  12.984 -0.0733 -0.2632  0.4269
16786TIP3    H171849   1.242   4.654  12.984 -0.4616 -0.3790  2.8521
16786TIP3    H271850   1.170   4.766  13.057  0.7377  1.9124  0.6705
16787TIP3   OH271851   1.515   0.988   4.467 -0.2001  0.2815 -0.0354
16787TIP3    H171852   1.548   0.922   4.528 -0.9067 -0.6897 -0.6664
16787TIP3    H271853   1.425   1.003   4.493  0.2419  1.7873  0.7316
16788TIP3   OH271854   3.462   6.294   1.926 -0.0154  0.0050 -0.4595
16788TIP3    H171855   3.442   6.284   2.019  0.9880 -0.2473 -0.2570
16788TIP3    H271856   3.438   6.210   1.887  1.4906 -0.6512 -0.0495
16789TIP3   OH271857   0.651   0.212   5.083 -0.4409 -0.6181  0.5880
16789TIP3    H171858   0.732   0.264   5.079 -1.1460  0.4517 -2.9040
16789TIP3    H271859   0.634   0.203   5.177  1.9534  1.9062  1.4309
16790TIP3   OH271860   4.884   5.008  15.081 -0.0952 -0.0353 -0.0817
16790TIP3    H171861   4.959   4.966  15.040  1.3482  0.6407  1.7261
16790TIP3    H271862   4.920   5.088  15.120 -2.3676  1.9806 -1.8007
16791TIP3   OH271863   6.196   1.826  15.477 -0.0295 -0.8516  0.0478
16791TIP3    H171864   6.279   1.789  15.506 -0.7747 -1.9116  0.9045
16791TIP3    H271865   6.164   1.764  15.412  0.2016 -0.0459 -0.8487
16792TIP3   OH271866   2.890   2.708  13.801 -0.1699 -0.0569 -0.9869
16792TIP3    H171867   2.984   2.690  13.790  0.0417  1.5319 -2.0608
16792TIP3    H271868   2.856   2.630  13.845  1.4707 -1.0997 -1.4690
16793TIP3   OH271869   2.053   0.564   0.138 -0.4184 -0.0238  0.5628
16793TIP3    H171870   2.063   0.558   0.233 -4.2342 -2.5208  0.9698
16793TIP3    H271871   1.975   0.618   0.125  0.1573  0.4647 -1.2319
16794TIP3   OH271872   3.584   1.011  15.342  0.1622 -0.4060 -0.2982
16794TIP3    H171873   3.507   1.011  15.285 -0.1456  0.7972  0.0834
16794TIP3    H271874   3.658   1.008  15.281 -0.1613  0.8676 -0.7809
16795TIP3   OH271875   0.427   0.193  12.383 -0.1829  0.0861 -0.6389
16795TIP3    H171876   0.446   0.282  12.410  0.0360  0.6085 -2.4029
16795TIP3    H271877   0.331   0.186  12.391 -0.0077 -0.5072  2.1963
16796TIP3   OH271878   6.390   1.569   5.925 -0.4506  0.1504 -0.1991
16796TIP3    H171879   6.454   1.632   5.960 -0.5079 -0.1626  0.4874
16796TIP3    H271880   6.305   1.611   5.939 -0.4981 -0.1251  0.3815
16797TIP3   OH271881   0.652   3.853   5.383 -0.2778  0.0479 -0.0837
16797TIP3    H171882   0.569   3.839   5.428 -0.1942  1.5368  0.5971
16797TIP3    H271883   0.678   3.942   5.407 -0.5450  1.2606 -3.5834
16798TIP3   OH271884   0.404   1.973   1.429 -0.6588 -0.5612 -0.8043
16798TIP3    H171885   0.497   1.984   1.409 -0.8948  0.0184 -1.6000
16798TIP3    H271886   0.399   1.889   1.474  0.3864 -0.1375  0.1518
16799TIP3   OH271887   6.558   3.186  15.576  0.4284  0.2319 -0.4916
16799TIP3    H171888   6.491   3.156  15.516  0.0900 -0.6686  0.2947
16799TIP3    H271889   6.541   3.137  15.657  1.1996  0.9918  0.1550
16800TIP3   OH271890   1.745   2.360   2.393  0.0655  0.3803 -0.3871
16800TIP3    H171891   1.670   2.331   2.444 -0.3319 -1.3790 -1.8652
16800TIP3    H271892   1.732   2.455   2.385  0.1854  0.7569  2.6883
16801TIP3   OH271893   5.752   0.460  12.152  0.1879  0.0601  0.5973
16801TIP3    H171894   5.814   0.472  12.224  1.1967 -0.3222 -0.1766
16801TIP3    H271895   5.686   0.400  12.187  1.1067 -0.7806  0.9525
16802TIP3   OH271896   4.897   5.785  13.448  0.2937  0.3768  0.1981
16802TIP3    H171897   4.967   5.849  13.438 -0.9779  1.9570  0.8957
16802TIP3    H271898   4.833   5.807  13.380  0.9779 -1.8527 -1.2780
16803TIP3   OH271899   2.178   0.890   1.757 -0.2126 -0.2583 -0.3238
16803TIP3    H171900   2.166   0.858   1.846  0.3825  0.4473  0.0182
16803TIP3    H271901   2.094   0.930   1.734  0.0738  0.8628  0.4797
16804TIP3   OH271902   4.975   3.400  13.011 -0.2399  0.0734  0.1851
16804TIP3    H171903   5.012   3.338  12.948  0.5721 -0.6013  1.2851
16804TIP3    H271904   4.887   3.368  13.028 -0.4142  0.1829 -0.4973
16805TIP3   OH271905   3.435   4.476  13.616 -0.9792 -0.4065 -0.1264
16805TIP3    H171906   3.480   4.558  13.597 -1.2386 -0.3357 -0.4458
16805TIP3    H271907   3.503   4.419  13.651 -0.9405  0.1658  0.7462
16806TIP3   OH271908   3.023   2.331  12.181  0.1538  0.0926 -0.3911
16806TIP3    H171909   3.095   2.315  12.242 -0.6153  0.1874  0.5746
16806TIP3    H271910   2.984   2.414  12.211 -1.2497 -0.6756  0.0376
16807TIP3   OH271911   1.462   2.549   3.615  0.0910 -0.1800  0.3700
16807TIP3    H171912   1.404   2.557   3.539 -1.2662 -0.5216  1.3351
16807TIP3    H271913   1.493   2.638   3.632  0.1477 -0.0532 -0.3800
16808TIP3   OH271914   6.307   4.801   5.570 -0.1639 -0.6180  0.2780
16808TIP3    H171915   6.380   4.834   5.518 -0.4284  2.4205  1.6467
16808TIP3    H271916   6.343   4.787   5.657 -0.8864 -0.6267  0.5807
16809TIP3   OH271917   3.780   4.269   2.931  0.1302  0.0022 -0.4273
16809TIP3    H171918   3.816   4.251   2.844  0.6981 -0.3352 -0.1306
16809TIP3    H271919   3.778   4.184   2.975 -1.2525 -0.0221 -0.5002
16810TIP3   OH271920   4.702   3.234   3.108 -0.3566 -0.3391  0.1731
16810TIP3    H171921   4.622   3.199   3.069 -1.8540  2.8971  0.0255
16810TIP3    H271922   4.672   3.302   3.168  2.2356 -0.5879  1.9138
16811TIP3   OH271923   4.709   0.657   3.951  0.2745 -0.2220  0.1781
16811TIP3    H171924   4.783   0.630   4.006  0.4742 -0.9921 -0.4479
16811TIP3    H271925   4.649   0.700   4.011  0.6429 -0.7492  0.9422
16812TIP3   OH271926   2.027   2.010  15.065 -0.2405  0.0169 -0.7829
16812TIP3    H171927   1.955   2.014  15.001  0.1145  0.0330 -1.1880
16812TIP3    H271928   1.993   1.956  15.136 -0.0857 -1.3377 -1.7010
16813TIP3   OH271929   5.984   6.336   4.816  0.2956 -0.2683 -0.0282
16813TIP3    H171930   6.030   6.369   4.893 -1.1914  1.2942  0.2647
16813TIP3    H271931   5.997   6.403   4.749 -0.7969 -0.2125 -0.2062
16814TIP3   OH271932   3.351   5.232   2.651  0.3902 -0.5722  0.4763
16814TIP3    H171933   3.266   5.203   2.684  1.0780 -0.7446  2.2293
16814TIP3    H271934   3.407   5.154   2.656  0.0715 -1.1651 -3.0862
16815TIP3   OH271935   0.125   5.422   0.971 -0.2457  0.0852  0.3152
16815TIP3    H171936   0.076   5.459   1.045 -1.0129 -2.0609  0.9475
16815TIP3    H271937   0.060   5.370   0.923  1.1431 -1.9760  0.5693
16816TIP3   OH271938   1.661   3.889  17.019  0.0726  0.1407  0.1428
16816TIP3    H171939   1.665   3.969  17.071 -2.0801 -1.0861  2.3863
16816TIP3    H271940   1.752   3.863  17.008  0.6879  1.4903  1.6349
16817TIP3   OH271941   2.237   5.720   3.352  0.3184  0.8315 -0.1249
16817TIP3    H171942   2.319   5.719   3.402 -0.2593 -1.6572  0.9360
16817TIP3    H271943   2.193   5.640   3.378 -2.8376  2.4292 -0.0925
16818TIP3   OH271944   4.224   4.135   4.038 -0.6727  0.6791  0.6472
16818TIP3    H171945   4.176   4.054   4.021 -0.2035  0.4440  0.4091
16818TIP3    H271946   4.158   4.204   4.033 -0.8926  0.4167 -0.2103
16819TIP3   OH271947   1.751   6.407   5.315  0.1753 -0.3607 -0.0727
16819TIP3    H171948   1.799   6.480   5.356  1.0252 -0.8739 -0.1309
16819TIP3    H271949   1.663   6.412   5.354 -0.0127  1.1165 -0.6042
16820TIP3   OH271950   6.782   0.998  15.008  0.5033 -0.5388  0.1546
16820TIP3    H171951   6.849   1.063  14.989 -0.6430  0.5129 -0.3840
16820TIP3    H271952   6.700   1.038  14.979 -0.1856 -2.3919 -0.5862
16821TIP3   OH271953   4.827   3.591   3.685  0.1004  0.1327  0.0855
16821TIP3    H171954   4.856   3.503   3.710 -0.4957 -0.2048 -0.3648
16821TIP3    H271955   4.830   3.591   3.589 -3.6796 -0.8158 -0.1892
16822TIP3   OH271956   2.583   2.939  14.903  0.0730 -0.2329  0.1517
16822TIP3    H171957   2.513   2.895  14.856  2.6353 -2.9960 -1.4055
16822TIP3    H271958   2.591   2.891  14.986  2.2541 -2.3639 -1.1556
16823TIP3   OH271959   0.902   4.495   4.396 -0.2913 -0.3129 -0.8190
16823TIP3    H171960   0.963   4.566   4.376 -0.8891  0.4908  0.0863
16823TIP3    H271961   0.818   4.538   4.407 -0.7895 -1.2474 -0.8489
16824TIP3   OH271962   1.133   4.280  16.970 -0.1047  0.3093 -0.0132
16824TIP3    H171963   1.176   4.289  17.055 -0.0292  1.5603 -0.1602
16824TIP3    H271964   1.057   4.225  16.987 -0.1343  0.6105  0.8851
16825TIP3   OH271965   0.072   3.718   1.013  0.1171 -0.1460  0.2208
16825TIP3    H171966   0.048   3.720   0.920 -1.7082  0.0372  0.6657
16825TIP3    H271967   0.010   3.657   1.052  1.2487 -0.6853  1.2454
16826TIP3   OH271968   3.601   0.932   6.684  0.3004 -0.2832  0.0068
16826TIP3    H171969   3.560   0.985   6.752 -0.6961  0.5435 -1.1846
16826TIP3    H271970   3.538   0.863   6.665  1.7702 -2.2913  1.8607
16827TIP3   OH271971   1.885   1.588   4.427  0.1645 -0.0961 -0.2537
16827TIP3    H171972   1.939   1.558   4.500  0.8954  0.9637 -0.3333
16827TIP3    H271973   1.948   1.625   4.365 -0.7242  2.5784  0.3150
16828TIP3   OH271974   2.722   3.769   0.912  0.2591  0.8750  0.2899
16828TIP3    H171975   2.644   3.715   0.924  0.1244  0.6670 -1.2962
16828TIP3    H271976   2.795   3.707   0.914  0.1782  0.7357 -0.5797
16829TIP3   OH271977   1.854   2.963  15.230 -0.0352  0.4112 -0.3650
16829TIP3    H171978   1.855   3.049  15.189  1.1417  0.1237 -0.9657
16829TIP3    H271979   1.797   2.911  15.173 -0.5394  0.7074 -0.1432
16830TIP3   OH271980   2.754   4.767  13.211  0.1187 -0.5456 -0.1430
16830TIP3    H171981   2.719   4.856  13.203  1.1422 -0.1013  0.2507
16830TIP3    H271982   2.698   4.725  13.277  0.9590  0.4865  1.2580
16831TIP3   OH271983   2.212   0.287   0.993  0.7415  0.6710  0.2942
16831TIP3    H171984   2.126   0.286   0.952  0.4590 -1.5083  0.8194
16831TIP3    H271985   2.196   0.313   1.084  0.5059 -0.4173  0.5792
16832TIP3   OH271986   6.152   1.176   0.183 -0.0540  0.4270 -0.0005
16832TIP3    H171987   6.237   1.155   0.222 -0.3180  0.6672  0.7222
16832TIP3    H271988   6.158   1.143   0.093  0.2515 -0.9531  0.5030
16833TIP3   OH271989   0.129   3.459  15.009  0.1573 -0.0574 -0.3963
16833TIP3    H171990   0.078   3.378  15.008  0.8086 -0.5453  1.3687
16833TIP3    H271991   0.067   3.527  15.037  0.1953 -0.4543  0.7059
16834TIP3   OH271992   1.925   5.116   0.086  0.5894 -0.3878 -0.7270
16834TIP3    H171993   1.983   5.181   0.125 -0.1056 -0.5760  0.6690
16834TIP3    H271994   1.979   5.039   0.073  0.2040 -1.3762  2.7239
16835TIP3   OH271995   0.089   0.391   4.727 -0.4114 -0.3914  0.0241
16835TIP3    H171996   0.027   0.447   4.680  1.7869  1.5513 -0.6933
16835TIP3    H271997   0.120   0.329   4.661 -1.1691 -1.0441  0.2629
16836TIP3   OH271998   0.928   0.600   4.162 -0.1841 -0.6059  0.3450
16836TIP3    H171999   0.959   0.654   4.090 -1.0932 -1.4018 -0.6777
16836TIP3    H272000   0.842   0.636   4.183 -0.7936 -1.6169 -0.3373
16837TIP3   OH272001   4.864   2.693  12.617  0.2425 -0.4724 -0.1178
16837TIP3    H172002   4.899   2.660  12.534  0.3539 -1.3635  0.2742
16837TIP3    H272003   4.925   2.762  12.644  1.1378 -1.3184  0.0519
16838TIP3   OH272004   3.621   1.118  11.942  0.3777 -0.4130  1.0512
16838TIP3    H172005   3.709   1.153  11.932 -0.3471  0.8181 -2.1378
16838TIP3    H272006   3.563   1.193  11.928 -1.1888 -1.7288  0.1174
16839TIP3   OH272007   5.546   6.189  15.931  0.4481  0.0132 -0.5762
16839TIP3    H172008   5.612   6.160  15.994 -1.4157 -2.7970  0.2446
16839TIP3    H272009   5.475   6.223  15.985 -0.1080 -0.0038 -1.2902
16840TIP3   OH272010   5.553   1.058   2.302 -0.3520  0.1006  0.3204
16840TIP3    H172011   5.535   0.968   2.328 -2.5344  0.7921  1.4424
16840TIP3    H272012   5.567   1.054   2.208  1.0967 -1.5690  0.5408
16841TIP3   OH272013   0.432   3.767   3.711  0.5320 -0.2034  0.1534
16841TIP3    H172014   0.373   3.752   3.784 -0.9863 -0.3773 -1.0532
16841TIP3    H272015   0.376   3.762   3.633  2.1731 -0.5678 -1.0648
16842TIP3   OH272016   3.217   1.125  11.817 -0.0785 -0.4041 -0.3945
16842TIP3    H172017   3.286   1.111  11.881 -0.3267 -1.6740 -0.3731
16842TIP3    H272018   3.137   1.094  11.861 -0.5763  0.4889 -0.6347
16843TIP3   OH272019   6.809   0.362  13.625 -0.4896  0.6164  0.1578
16843TIP3    H172020   6.818   0.447  13.668  0.9617  0.6076 -0.0742
16843TIP3    H272021   6.807   0.383  13.531  0.3269  0.3932  0.0766
16844TIP3   OH272022   4.666   5.131   4.001  0.1194 -0.3115 -0.0444
16844TIP3    H172023   4.758   5.144   3.977 -0.0599  0.7985 -0.1767
16844TIP3    H272024   4.617   5.175   3.933 -0.5161 -0.8103  0.0859
16845TIP3   OH272025   2.758   2.609   5.382  0.2742  1.0080  0.0742
16845TIP3    H172026   2.766   2.530   5.330  2.6331  0.8425  0.5883
16845TIP3    H272027   2.667   2.636   5.371 -0.2162 -0.9868 -1.2139
16846TIP3   OH272028   1.184   4.948  16.415 -0.0644  0.2478  0.0756
16846TIP3    H172029   1.139   4.938  16.331  3.0185 -0.2987 -1.6440
16846TIP3    H272030   1.244   5.021  16.402 -0.3689  0.9615  2.2626
16847TIP3   OH272031   6.743   3.100  14.235  0.0820 -0.0692 -0.3244
16847TIP3    H172032   6.797   3.078  14.159  0.4904  0.6546 -0.2521
16847TIP3    H272033   6.693   3.020  14.253  1.3799 -0.8750 -0.1779
16848TIP3   OH272034   4.955   1.711   2.980  0.2499  0.0146  0.2968
16848TIP3    H172035   4.949   1.691   3.073  2.0588 -0.9077  0.2550
16848TIP3    H272036   4.875   1.675   2.942  1.0422 -2.6612  1.0043
16849TIP3   OH272037   0.740   6.434  14.957 -0.0750  0.1956  0.1797
16849TIP3    H172038   0.797   6.492  14.906 -0.3761  2.1505  1.9670
16849TIP3    H272039   0.745   6.350  14.910  1.4095  1.2634 -1.7574
16850TIP3   OH272040   2.014   6.120  14.807  0.4287  0.3010  0.1649
16850TIP3    H172041   2.080   6.184  14.778 -0.6785  0.9127 -1.1010
16850TIP3    H272042   2.050   6.035  14.780 -0.3867  0.8081 -2.9178
16851TIP3   OH272043   1.776   0.643  15.425  0.3520  0.0331  0.4254
16851TIP3    H172044   1.747   0.662  15.335 -1.0765  1.6638  1.1681
16851TIP3    H272045   1.705   0.591  15.462  1.7841 -2.2874  0.1042
16852TIP3   OH272046   0.042   1.634  13.228  0.4170 -0.3816 -0.2284
16852TIP3    H172047  -0.024   1.645  13.161  0.5112  1.3875 -0.0580
16852TIP3    H272048   0.017   1.553  13.273 -2.2092  0.7453  0.4771
16853TIP3   OH272049   0.941   4.984   0.113 -0.2506  0.2870  0.1298
16853TIP3    H172050   0.992   4.929   0.054  0.4917  2.8692 -1.8213
16853TIP3    H272051   0.976   4.964   0.200  0.2345 -1.9425 -0.4989
16854TIP3   OH272052   0.783   6.311   1.854 -0.1988  0.5071 -0.5018
16854TIP3    H172053   0.796   6.337   1.763 -0.5681  0.4008 -0.5844
16854TIP3    H272054   0.846   6.240   1.868  0.6803  1.3012 -0.3330
16855TIP3   OH272055   0.667   4.781  11.470  0.3313 -0.1194 -0.2277
16855TIP3    H172056   0.590   4.818  11.513 -0.0803 -1.3461  0.1497
16855TIP3    H272057   0.672   4.825  11.386 -1.7728 -1.1681 -0.9538
16856TIP3   OH272058   4.092   4.020   0.147 -0.7856 -0.1524  0.0936
16856TIP3    H172059   4.029   3.980   0.207 -0.7384  0.9007  0.8670
16856TIP3    H272060   4.164   3.957   0.143 -2.1231 -1.6858 -1.3197
16857TIP3   OH272061   5.811   2.487  15.710 -0.2547 -0.6838 -0.0801
16857TIP3    H172062   5.845   2.429  15.643  1.4637  0.5317 -0.3228
16857TIP3    H272063   5.857   2.461  15.790  0.4606  0.2421 -0.1730
16858TIP3   OH272064   5.794   3.660   3.831 -0.1777 -0.4215 -0.6307
16858TIP3    H172065   5.848   3.714   3.773  0.3155  1.1942  1.2524
16858TIP3    H272066   5.812   3.570   3.803  1.8716  0.1775 -1.4247
16859TIP3   OH272067   5.494   1.004   1.706  0.1391  0.5432 -0.3251
16859TIP3    H172068   5.507   1.059   1.783 -0.3796  0.8796 -0.4736
16859TIP3    H272069   5.460   1.063   1.639 -1.4728 -0.1449 -0.1640
16860TIP3   OH272070   0.050   3.584  15.426  0.2596 -0.1381  0.5787
16860TIP3    H172071   0.132   3.542  15.402  0.7330  0.2161  1.5412
16860TIP3    H272072   0.013   3.528  15.494 -0.0308 -0.0043  0.5350
16861TIP3   OH272073   1.486   3.963  12.238 -0.0772 -0.2159 -0.2488
16861TIP3    H172074   1.435   3.885  12.261  0.3502 -0.1782  0.9261
16861TIP3    H272075   1.564   3.930  12.195 -0.7441 -0.3115 -1.4360
16862TIP3   OH272076   0.956   4.581  12.125  0.2858  0.2904  0.6281
16862TIP3    H172077   0.899   4.544  12.193  2.1808 -2.3192  0.9573
16862TIP3    H272078   1.008   4.507  12.094  1.3254  1.9213 -1.8659
16863TIP3   OH272079   5.117   2.728   1.311 -0.7530  0.8743  0.2935
16863TIP3    H172080   5.049   2.783   1.351 -0.9898  0.7255  0.0929
16863TIP3    H272081   5.178   2.791   1.271  0.3846  1.1261  2.2680
16864TIP3   OH272082   6.504   5.232   5.548  0.2507 -0.2741  0.2514
16864TIP3    H172083   6.436   5.280   5.501  1.7840 -0.0745 -1.9042
16864TIP3    H272084   6.470   5.223   5.637 -1.2072  2.6157  0.1028
16865TIP3   OH272085   2.546   5.257  16.874 -0.2678 -0.1969  0.1083
16865TIP3    H172086   2.550   5.164  16.855  2.0371 -0.2730  0.6805
16865TIP3    H272087   2.455   5.282  16.853 -1.0135 -2.5807  0.2099
16866TIP3   OH272088   5.710   4.147   4.214 -0.1942  0.3901 -0.7478
16866TIP3    H172089   5.690   4.093   4.137  0.7619 -1.0143 -0.0600
16866TIP3    H272090   5.707   4.237   4.182  1.4591 -0.1976 -2.7810
16867TIP3   OH272091   1.987   5.620   5.586 -0.2696 -0.5081  0.3613
16867TIP3    H172092   2.049   5.574   5.642  0.8786 -2.2576 -2.1495
16867TIP3    H272093   1.906   5.570   5.594 -0.8365  0.5929  2.0937
16868TIP3   OH272094   2.896   0.261  10.818  0.1636 -0.5927 -0.2308
16868TIP3    H172095   2.841   0.295  10.748  1.1940  0.7204 -0.4376
16868TIP3    H272096   2.941   0.338  10.853  0.3106 -1.3395  1.3086
16869TIP3   OH272097   3.569   2.115  14.046 -0.7925 -0.0600 -0.3721
16869TIP3    H172098   3.518   2.066  13.983 -0.3524  0.1648 -0.9155
16869TIP3    H272099   3.641   2.152  13.995 -0.8883  0.8095  0.1008
16870TIP3   OH272100   0.038   2.495  17.062 -0.6471 -0.2200 -0.4743
16870TIP3    H172101   0.124   2.460  17.084 -0.0132  1.6932  0.3111
16870TIP3    H272102  -0.019   2.419  17.062  0.5743 -1.2308  1.5228
16871TIP3   OH272103   3.283   2.592   5.912  0.1403  0.2401  0.0899
16871TIP3    H172104   3.342   2.529   5.872  0.1602  0.3751 -0.0949
16871TIP3    H272105   3.260   2.554   5.997  0.4743  0.1780  0.1508
16872TIP3   OH272106   4.573   4.592  14.380 -0.1243  0.3570  0.0986
16872TIP3    H172107   4.573   4.575  14.475 -1.6575 -1.6369 -0.1943
16872TIP3    H272108   4.484   4.622  14.362 -0.0129  0.1318 -0.8246
16873TIP3   OH272109   3.292   3.574   2.316 -0.1718  0.1060  0.6681
16873TIP3    H172110   3.253   3.524   2.245 -0.9056  0.2155  0.9911
16873TIP3    H272111   3.349   3.638   2.272  0.6736 -0.9102  0.2545
16874TIP3   OH272112   6.633   0.536   2.035 -0.7141  0.2999  0.0622
16874TIP3    H172113   6.652   0.605   2.098 -0.7338 -0.1225  0.5300
16874TIP3    H272114   6.700   0.470   2.049  0.3849  0.9980 -1.5762
16875TIP3   OH272115   5.050   2.317   2.669 -0.1794  1.2622 -0.4030
16875TIP3    H172116   5.109   2.263   2.722 -0.8956  0.2590 -0.5973
16875TIP3    H272117   5.107   2.379   2.625  0.4619  2.0143  1.3995
16876TIP3   OH272118   2.910   3.469   5.571  0.1328  0.1317 -0.1233
16876TIP3    H172119   2.858   3.550   5.566  0.7936  0.6149  0.5224
16876TIP3    H272120   2.980   3.490   5.633 -0.3907 -1.3290  1.0402
16877TIP3   OH272121   1.350   5.911   5.272 -0.2177 -0.2432  0.0630
16877TIP3    H172122   1.299   5.962   5.209  0.2146 -0.6328 -0.6145
16877TIP3    H272123   1.328   5.949   5.357 -0.4339  0.6168 -0.3634
16878TIP3   OH272124   4.953   3.521   0.891 -0.0361 -0.4510  0.0209
16878TIP3    H172125   4.963   3.550   0.801  1.7286 -1.5680 -0.1960
16878TIP3    H272126   5.004   3.583   0.942  0.9524 -1.1863 -0.0511
16879TIP3   OH272127   1.020   4.167  16.046 -0.0596 -0.1218  0.0065
16879TIP3    H172128   0.926   4.148  16.045 -0.2454  0.7563  0.3890
16879TIP3    H272129   1.050   4.135  16.131 -0.1252  0.1322  0.1263
16880TIP3   OH272130   4.093   2.855  13.185  0.0444 -0.0160 -0.0683
16880TIP3    H172131   4.118   2.852  13.277  0.8503  0.5682 -0.2507
16880TIP3    H272132   4.066   2.766  13.164 -0.3275 -0.1065  0.7794
16881TIP3   OH272133   2.815   6.315   5.055  0.1527 -0.0485 -0.2964
16881TIP3    H172134   2.869   6.300   5.132  1.8018  0.1825 -1.3485
16881TIP3    H272135   2.833   6.241   4.997  0.7648  0.9318 -1.4133
16882TIP3   OH272136   6.073   2.247   2.394 -0.0388 -0.5175  0.0356
16882TIP3    H172137   5.992   2.289   2.364  0.6681  1.1384  0.3421
16882TIP3    H272138   6.108   2.205   2.315 -1.1358 -1.1969 -0.1147
16883TIP3   OH272139   6.440   2.915  16.826 -0.1663 -0.4492 -0.6635
16883TIP3    H172140   6.352   2.920  16.865  0.2772 -0.8791  0.4072
16883TIP3    H272141   6.495   2.965  16.885  0.2110  0.3853 -1.6908
16884TIP3   OH272142   0.804   0.520  12.666 -0.1847 -0.4467 -0.2550
16884TIP3    H172143   0.875   0.532  12.729  0.7357 -2.7085 -0.7678
16884TIP3    H272144   0.759   0.441  12.696 -1.4408 -0.0114 -0.9098
16885TIP3   OH272145   2.687   5.101   0.777 -0.0687 -0.2923 -0.4784
16885TIP3    H172146   2.744   5.051   0.719  0.5201  0.4978 -0.5934
16885TIP3    H272147   2.655   5.173   0.722 -1.6121 -1.0104 -0.5784
16886TIP3   OH272148   1.093   5.838   0.277  0.1904 -0.1593 -0.4133
16886TIP3    H172149   1.178   5.880   0.266 -0.3319  0.8062 -0.8952
16886TIP3    H272150   1.059   5.873   0.359  0.1005 -0.2661 -0.4047
16887TIP3   OH272151   1.295   6.130  15.579 -0.2205  0.0720  0.4124
16887TIP3    H172152   1.253   6.131  15.665  0.5615 -0.9728  0.8209
16887TIP3    H272153   1.226   6.099  15.520 -0.2398 -1.0066  0.9772
16888TIP3   OH272154   4.553   3.242  16.238  0.1328 -0.1221 -0.0054
16888TIP3    H172155   4.545   3.319  16.183  0.7585  0.7105  1.0284
16888TIP3    H272156   4.502   3.174  16.193  0.8411  0.4475 -1.7106
16889TIP3   OH272157   0.106   5.205  16.396  0.3828 -0.6216 -0.5828
16889TIP3    H172158   0.033   5.149  16.422  1.1200 -0.3995  2.2872
16889TIP3    H272159   0.067   5.291  16.382  0.0861 -0.3165  1.6661
16890TIP3   OH272160   6.823   6.412  13.507  0.2812  0.4854  0.4536
16890TIP3    H172161   6.869   6.457  13.437  1.3802 -0.0781  0.8005
16890TIP3    H272162   6.849   6.458  13.587 -0.2604  0.5583  0.5979
16891TIP3   OH272163   3.114   5.950  15.800  0.4635  0.5360  0.3839
16891TIP3    H172164   3.168   5.940  15.879 -0.1652  1.7643  1.0049
16891TIP3    H272165   3.166   6.006  15.742 -0.4785  2.5902  1.4002
16892TIP3   OH272166   0.417   4.028   3.621 -0.2403  0.1689  0.3041
16892TIP3    H172167   0.436   3.950   3.672 -0.6691 -0.4340 -0.4355
16892TIP3    H272168   0.354   4.077   3.673 -1.3936 -0.8954 -0.0450
16893TIP3   OH272169   2.044   5.129   1.907 -0.3062  0.2873 -0.3871
16893TIP3    H172170   1.999   5.162   1.985 -0.5430  0.3692 -0.5600
16893TIP3    H272171   2.052   5.205   1.850  0.9559  0.5215  0.0667
16894TIP3   OH272172   4.185   0.713  15.579 -0.2413  0.0428 -0.2149
16894TIP3    H172173   4.220   0.686  15.664 -1.3262  0.5943  0.4359
16894TIP3    H272174   4.192   0.635  15.524  0.8390 -0.2040  0.2553
16895TIP3   OH272175   2.266   1.917   4.093 -0.9522  0.4415  0.3338
16895TIP3    H172176   2.281   2.010   4.112  1.8423  0.1820 -0.1187
16895TIP3    H272177   2.226   1.917   4.006 -1.9636  1.2296  0.7806
16896TIP3   OH272178   1.775   4.375  10.669  0.0172 -0.2830  0.2158
16896TIP3    H172179   1.752   4.283  10.668  0.2232 -0.3429  0.5760
16896TIP3    H272180   1.822   4.389  10.587 -1.4989 -0.0924 -0.6604
16897TIP3   OH272181   0.822   3.092   1.993 -0.0834 -1.0350 -0.2649
16897TIP3    H172182   0.871   3.088   2.075  2.4646  2.1899 -1.4091
16897TIP3    H272183   0.731   3.099   2.019  0.7585  2.3524  2.5490
16898TIP3   OH272184   5.270   6.050   4.208 -0.0854  0.9162 -0.3766
16898TIP3    H172185   5.320   6.120   4.250  1.1860 -0.5978  0.7763
16898TIP3    H272186   5.216   6.014   4.278  0.0876  0.0587 -0.6669
16899TIP3   OH272187   1.123   1.442  11.618  0.3460 -0.0045 -0.4082
16899TIP3    H172188   1.212   1.409  11.627  0.7533  1.4934  1.7103
16899TIP3    H272189   1.133   1.531  11.584 -0.1693  0.7358  1.2432
16900TIP3   OH272190   5.112   4.829  12.859 -0.7515 -0.7424 -0.6087
16900TIP3    H172191   5.186   4.771  12.842 -1.4220 -1.1437 -2.3152
16900TIP3    H272192   5.038   4.788  12.815 -1.5307  0.7318 -0.7389
16901TIP3   OH272193   1.820   5.144   4.437 -0.0210  0.5296 -0.3472
16901TIP3    H172194   1.896   5.118   4.386  0.8657 -1.0458  1.6205
16901TIP3    H272195   1.847   5.224   4.482 -1.0526  2.3276 -2.7480
16902TIP3   OH272196   6.596   3.989   4.427 -0.5440 -0.7811  0.2249
16902TIP3    H172197   6.619   4.047   4.499 -1.5411  1.4367 -1.1335
16902TIP3    H272198   6.678   3.945   4.404  0.6417  1.3040  0.2720
16903TIP3   OH272199   5.190   0.161   3.128  0.7392 -0.1602 -0.1229
16903TIP3    H172200   5.202   0.236   3.187  0.5376  0.1904 -0.5235
16903TIP3    H272201   5.109   0.180   3.082 -0.8108 -1.9085  1.6741
16904TIP3   OH272202   2.120   1.931  16.592 -0.1995  0.0374 -0.0616
16904TIP3    H172203   2.110   2.024  16.612  1.2169  0.0109  0.9635
16904TIP3    H272204   2.031   1.900  16.575 -0.9615  1.1307  1.6720
16905TIP3   OH272205   4.667   4.870   1.224 -0.3025 -0.2956 -0.0582
16905TIP3    H172206   4.619   4.850   1.144 -1.2811 -0.9072  0.6599
16905TIP3    H272207   4.696   4.785   1.257  0.3997 -0.0216  0.0640
16906TIP3   OH272208   1.824   3.107   1.709  0.6554  0.1527 -0.0885
16906TIP3    H172209   1.883   3.139   1.777 -0.0359  2.9344 -0.6532
16906TIP3    H272210   1.757   3.057   1.756  1.4637  0.0153  0.9630
16907TIP3   OH272211   4.555   5.199   4.705  0.3286  0.3733  0.3346
16907TIP3    H172212   4.633   5.191   4.761 -0.2725  1.3192  1.3432
16907TIP3    H272213   4.551   5.292   4.683 -1.6023  0.7417  1.9467
16908TIP3   OH272214   2.793   1.839  15.519  0.6421  0.0891  0.1455
16908TIP3    H172215   2.801   1.771  15.451 -1.3486 -0.5585  0.5014
16908TIP3    H272216   2.769   1.790  15.598  1.1601  1.0313  0.9034
16909TIP3   OH272217   5.688   5.194  16.120 -0.6932  0.0962 -0.6495
16909TIP3    H172218   5.654   5.224  16.204 -1.6820  1.0246 -1.3618
16909TIP3    H272219   5.690   5.098  16.128  0.8922  0.2127  1.0360
16910TIP3   OH272220   0.594   5.025  15.311  0.2047 -0.6810  0.1580
16910TIP3    H172221   0.689   5.018  15.300  0.5071  1.1370  1.1889
16910TIP3    H272222   0.564   5.076  15.235  0.4969  1.0792  1.1572
16911TIP3   OH272223   3.946   5.716   2.791 -0.1097 -0.3881 -0.4760
16911TIP3    H172224   3.993   5.739   2.872  0.6684 -0.1040 -0.9957
16911TIP3    H272225   3.854   5.734   2.811  0.0784 -0.2376  0.3158
16912TIP3   OH272226   2.247   6.265   1.110 -0.4699 -0.4910 -0.0028
16912TIP3    H172227   2.293   6.306   1.183 -0.4910  0.5866 -0.5669
16912TIP3    H272228   2.160   6.244   1.144  0.1288 -1.7507  0.8193
16913TIP3   OH272229   3.963   4.609  11.809 -0.4817 -0.0799  0.2093
16913TIP3    H172230   4.036   4.591  11.869 -0.3465 -0.8218 -0.1713
16913TIP3    H272231   3.918   4.684  11.848  2.4014  2.6351 -1.1983
16914TIP3   OH272232   4.542   0.147  11.885  0.1418 -0.2899  0.6101
16914TIP3    H172233   4.545   0.230  11.932  0.5654  0.7374 -1.1313
16914TIP3    H272234   4.624   0.144  11.836  0.7495 -2.4072  1.6722
16915TIP3   OH272235   4.639   2.984  17.283  0.4628  0.4144 -0.2695
16915TIP3    H172236   4.633   3.037  17.362 -0.3954 -0.6335  0.4086
16915TIP3    H272237   4.732   2.962  17.275  0.4614 -0.0632  0.8666
16916TIP3   OH272238   0.195   6.396  14.281  0.0860 -0.0185  0.5700
16916TIP3    H172239   0.111   6.442  14.285 -0.1811 -0.5075  0.5799
16916TIP3    H272240   0.255   6.452  14.331  0.4965  1.8390 -1.7993
16917TIP3   OH272241   5.915   5.806  16.191  0.7434 -0.0155  0.1879
16917TIP3    H172242   5.894   5.771  16.277  1.3075 -1.9780 -0.4245
16917TIP3    H272243   6.011   5.799  16.185  0.5723 -1.8317 -1.3200
16918TIP3   OH272244   6.698   4.468  11.084  0.4974  0.3111 -0.6043
16918TIP3    H172245   6.776   4.516  11.057 -0.1285  0.5742 -2.0531
16918TIP3    H272246   6.630   4.495  11.022 -0.1871 -1.5261 -0.7482
16919TIP3   OH272247   0.431   0.251   4.615 -0.0236 -0.5420  0.3417
16919TIP3    H172248   0.462   0.267   4.705 -1.0465 -0.2285  0.6499
16919TIP3    H272249   0.511   0.236   4.565  0.7805  1.7361  0.8106
16920TIP3   OH272250   1.041   1.588   0.799 -0.2094 -0.2004 -0.3120
16920TIP3    H172251   1.006   1.676   0.784  0.5647  0.1520 -0.0911
16920TIP3    H272252   0.989   1.554   0.872  0.0016  0.3835  0.1241
16921TIP3   OH272253   4.524   1.248   0.864 -0.2394  0.0192  0.4584
16921TIP3    H172254   4.569   1.319   0.819  4.7980 -3.3246 -0.6916
16921TIP3    H272255   4.544   1.261   0.956 -1.6048  1.3466  0.5989
16922TIP3   OH272256   0.440   6.369   2.065 -0.0223 -0.1664  0.2787
16922TIP3    H172257   0.398   6.361   1.980  0.0543  2.2910 -0.0590
16922TIP3    H272258   0.369   6.390   2.125  0.2176  0.3612  0.3845
16923TIP3   OH272259   3.986   0.873  13.172  0.1187  0.5560 -0.1115
16923TIP3    H172260   3.997   0.948  13.112 -1.6579 -0.2860 -1.5978
16923TIP3    H272261   3.894   0.878  13.199  0.2200 -0.5976  0.4874
16924TIP3   OH272262   3.243   4.288   2.127 -0.1348 -0.0293 -0.5067
16924TIP3    H172263   3.201   4.267   2.043 -0.7809 -4.3333  0.6344
16924TIP3    H272264   3.309   4.220   2.139  0.0146  0.4807  2.3974
16925TIP3   OH272265   0.031   4.803  15.421 -0.2305 -0.4489  0.2040
16925TIP3    H172266  -0.063   4.802  15.404  0.0301  0.6650 -1.5994
16925TIP3    H272267   0.070   4.768  15.341  0.8988 -0.7523  0.8687
16926TIP3   OH272268   1.773   3.547  15.967 -0.1844 -0.7837  0.2855
16926TIP3    H172269   1.745   3.614  15.905  0.2485 -0.3796  0.5210
16926TIP3    H272270   1.728   3.468  15.938 -1.0570 -0.2935  0.2785
16927TIP3   OH272271   1.675   2.067   3.226 -0.3455  0.0306 -0.0924
16927TIP3    H172272   1.598   2.050   3.171 -0.1568  2.7221 -1.3601
16927TIP3    H272273   1.644   2.054   3.316 -1.4060 -1.8513 -0.6830
16928TIP3   OH272274   0.260   5.871  16.443  0.1914 -0.1591 -0.1249
16928TIP3    H172275   0.290   5.783  16.469  0.1518 -0.6605 -1.7004
16928TIP3    H272276   0.329   5.903  16.385 -0.7478  0.0054 -1.1791
16929TIP3   OH272277   4.250   4.266  16.991 -0.2887  0.1755 -0.5995
16929TIP3    H172278   4.278   4.210  17.064  0.6883  2.5874  0.9984
16929TIP3    H272279   4.162   4.236  16.970 -0.1700 -1.2985  0.8208
16930TIP3   OH272280   6.766   3.356  16.144  0.4416  0.1949  0.1333
16930TIP3    H172281   6.832   3.396  16.200  0.7218 -0.5582  0.3628
16930TIP3    H272282   6.684   3.398  16.168  0.5941  0.0234  0.9704
16931TIP3   OH272283   6.030   1.130   1.851 -0.3976 -0.0125 -0.6714
16931TIP3    H172284   5.965   1.200   1.862 -0.8663 -0.5908  0.3939
16931TIP3    H272285   6.083   1.158   1.777 -0.2185  1.7436  0.0756
16932TIP3   OH272286   6.180   2.852  13.555 -0.8433  0.7602  0.3649
16932TIP3    H172287   6.261   2.852  13.607 -0.8926  0.4417  0.4437
16932TIP3    H272288   6.163   2.760  13.537 -0.5212  0.8954 -0.7135
16933TIP3   OH272289   2.758   0.513  16.929  0.0833  0.5499 -0.0432
16933TIP3    H172290   2.676   0.534  16.973 -0.5154 -0.0375 -0.8617
16933TIP3    H272291   2.813   0.475  16.998 -0.5598  0.3625  0.3702
16934TIP3   OH272292   3.956   2.497   4.655 -0.4852 -0.0552 -0.1363
16934TIP3    H172293   3.925   2.555   4.725  3.2520  1.9370  0.1052
16934TIP3    H272294   3.936   2.409   4.686  0.4744  0.7851  3.2172
16935TIP3   OH272295   0.502   6.183   4.186  0.4398  0.4727  0.3714
16935TIP3    H172296   0.589   6.198   4.221  1.6470 -2.3974 -1.0818
16935TIP3    H272297   0.468   6.108   4.236 -0.9205  1.0955  0.4318
16936TIP3   OH272298   5.746   6.820   3.355  0.3048  0.0635 -0.5042
16936TIP3    H172299   5.757   6.913   3.332  1.6472  0.3671  1.1547
16936TIP3    H272300   5.765   6.773   3.274  0.9737  1.1959 -1.0260
16937TIP3   OH272301   4.830   1.554   5.650 -1.0460 -0.0147  0.7682
16937TIP3    H172302   4.892   1.571   5.720 -0.5329  0.7772  0.1410
16937TIP3    H272303   4.812   1.461   5.656 -0.3921 -0.1070  1.4438
16938TIP3   OH272304   6.627   4.867  13.218  0.5572 -0.3758  0.1338
16938TIP3    H172305   6.532   4.851  13.216  0.8840 -2.5328 -0.6457
16938TIP3    H272306   6.646   4.906  13.133  0.6673 -2.2862 -0.7819
16939TIP3   OH272307   0.092   4.295  12.233  0.3783 -0.0243  0.5843
16939TIP3    H172308   0.142   4.220  12.266  2.1689  0.2746 -1.2775
16939TIP3    H272309   0.143   4.372  12.260 -0.1065  0.3982  0.3040
16940TIP3   OH272310   3.639   6.606  16.677  0.2282  0.0506  0.2082
16940TIP3    H172311   3.684   6.524  16.656 -2.2103 -1.1620 -0.7569
16940TIP3    H272312   3.671   6.669  16.612  0.5763 -0.7471 -0.4078
16941TIP3   OH272313   4.527   2.289  14.089  0.4474 -0.3667 -0.5095
16941TIP3    H172314   4.463   2.311  14.156 -0.0187 -2.3020 -0.2739
16941TIP3    H272315   4.610   2.283  14.136  0.8239  1.8062 -0.7611
16942TIP3   OH272316   4.261   0.450   1.209  0.0756  0.5492  0.3506
16942TIP3    H172317   4.347   0.456   1.167 -0.8628  0.5614 -1.6834
16942TIP3    H272318   4.199   0.475   1.140 -1.6355 -0.4364  1.4688
16943TIP3   OH272319   5.966   5.933   0.530  0.0345 -0.0515 -0.4410
16943TIP3    H172320   5.961   6.029   0.528  0.9926  0.1187  2.0104
16943TIP3    H272321   6.045   5.913   0.480  0.5050  0.5552  0.0288
16944TIP3   OH272322   3.236   5.180  16.340 -0.4143 -0.6004  0.2955
16944TIP3    H172323   3.291   5.254  16.369  1.1257 -1.6374  0.1310
16944TIP3    H272324   3.151   5.220  16.321 -0.3843  0.7316  2.5800
16945TIP3   OH272325   3.167   5.543   5.009 -0.0784  0.2543 -0.1958
16945TIP3    H172326   3.100   5.571   5.071 -1.6638 -1.3390 -1.1087
16945TIP3    H272327   3.174   5.615   4.947  0.8158  1.4404  1.2198
16946TIP3   OH272328   0.576   4.744  15.946 -0.5930 -0.4200  0.4624
16946TIP3    H172329   0.536   4.830  15.951 -0.4593 -0.1536 -1.9637
16946TIP3    H272330   0.669   4.760  15.961 -0.7201 -0.3653  1.2831
16947TIP3   OH272331   4.870   3.079  14.786 -0.1845 -0.0996 -0.2662
16947TIP3    H172332   4.896   3.018  14.855 -1.6729  0.8901  1.2464
16947TIP3    H272333   4.775   3.070  14.781 -0.2202  0.6912 -1.3887
16948TIP3   OH272334   3.374   4.276   1.568  0.2781  0.5781 -0.5206
16948TIP3    H172335   3.445   4.274   1.505 -1.5249  1.8597 -2.7677
16948TIP3    H272336   3.295   4.260   1.516 -1.2091  0.3737  1.6413
16949TIP3   OH272337   3.558   1.554  12.624  0.8481  0.3962  0.0323
16949TIP3    H172338   3.544   1.593  12.710 -0.2307  2.0265 -0.8232
16949TIP3    H272339   3.607   1.621  12.575  2.4781 -0.9577 -0.3164
16950TIP3   OH272340   1.725   3.705  12.899  0.1850  0.2665 -0.3806
16950TIP3    H172341   1.689   3.775  12.846  0.4484  1.2655  0.7203
16950TIP3    H272342   1.662   3.634  12.893 -0.4123  0.8456 -0.9801
16951TIP3   OH272343   1.716   6.297   2.382  0.3848 -0.3517  0.0397
16951TIP3    H172344   1.811   6.297   2.387  0.4764  3.2917  1.2027
16951TIP3    H272345   1.687   6.314   2.471 -1.4380 -1.8102 -0.2115
16952TIP3   OH272346   2.387   2.027  11.723 -0.1287  0.2225 -0.1070
16952TIP3    H172347   2.439   2.098  11.761  0.9204 -0.3362 -0.4756
16952TIP3    H272348   2.335   1.994  11.796  0.0982  0.7223  0.2869
16953TIP3   OH272349   2.664   4.159  13.660  0.1285  0.2990 -0.9557
16953TIP3    H172350   2.587   4.152  13.718 -0.1439 -1.1601 -1.4403
16953TIP3    H272351   2.715   4.080  13.679  0.9484  0.7045 -1.4400
16954TIP3   OH272352   1.915   0.576   1.416  0.2501  0.0102  0.5334
16954TIP3    H172353   1.853   0.617   1.476 -1.0609  1.5664 -1.7445
16954TIP3    H272354   1.861   0.521   1.359  0.3081  3.2945 -3.1244
16955TIP3   OH272355   0.810   2.838  15.018 -0.1933 -0.0876  0.2574
16955TIP3    H172356   0.768   2.883  14.944  0.5224 -0.0955 -0.1646
16955TIP3    H272357   0.775   2.749  15.014 -0.4331  0.0077  0.1556
16956TIP3   OH272358   4.463   3.143   2.996  0.2357  0.5828  0.1090
16956TIP3    H172359   4.454   3.210   2.929  1.6678  0.3176 -0.3834
16956TIP3    H272360   4.418   3.067   2.960  0.7728  0.5220 -0.4593
16957TIP3   OH272361   1.304   4.240  12.103 -0.1798  0.1086  0.2626
16957TIP3    H172362   1.213   4.270  12.096 -0.3866 -0.5947 -0.1309
16957TIP3    H272363   1.303   4.152  12.066  1.1984  1.0939 -2.4232
16958TIP3   OH272364   0.789   1.430   4.826 -0.2672  0.5659  0.2966
16958TIP3    H172365   0.773   1.422   4.920 -2.2276 -1.2564 -0.1142
16958TIP3    H272366   0.734   1.503   4.799  1.4709  2.1065  0.7496
16959TIP3   OH272367   4.079   4.520   1.361 -0.0800  0.1093  0.4013
16959TIP3    H172368   4.048   4.553   1.276 -0.4452  1.1840  0.9292
16959TIP3    H272369   4.173   4.507   1.349  0.4206  2.9381  0.6032
16960TIP3   OH272370   1.731   2.640  14.086 -0.0781 -0.2740 -0.0322
16960TIP3    H172371   1.746   2.557  14.041 -0.5499 -0.9667  1.0598
16960TIP3    H272372   1.792   2.639  14.159 -0.6743 -0.0310  0.4735
16961TIP3   OH272373   3.699   1.115  16.155  0.5275  0.0297  0.5683
16961TIP3    H172374   3.749   1.041  16.188 -1.1898 -1.2695  0.4109
16961TIP3    H272375   3.650   1.147  16.230 -1.7840 -1.6072 -0.1192
16962TIP3   OH272376   2.542   1.061  16.779  0.4676  0.0740  0.2035
16962TIP3    H172377   2.542   1.013  16.862  0.5997 -1.7409 -0.7831
16962TIP3    H272378   2.595   1.006  16.721  0.0617  1.1189 -1.1895
16963TIP3   OH272379   5.000   6.501  12.663 -0.0940  0.3865  0.0835
16963TIP3    H172380   5.062   6.552  12.609  0.0399  1.6814  1.3932
16963TIP3    H272381   5.034   6.509  12.752 -1.4026 -0.0160  0.6403
16964TIP3   OH272382   2.999   0.979  13.320  0.4711  0.2973  0.4013
16964TIP3    H172383   2.984   1.037  13.395 -1.4000 -0.4231  0.6463
16964TIP3    H272384   3.046   0.904  13.356 -0.5191 -0.0993  0.9181
16965TIP3   OH272385   3.904   4.601   4.288  0.6528 -0.1899 -0.2915
16965TIP3    H172386   3.909   4.517   4.334  1.2481  0.8076  1.5577
16965TIP3    H272387   3.994   4.618   4.259  1.1355  1.0669  1.7804
16966TIP3   OH272388   1.611   2.248   5.764 -0.1999 -0.3334  0.5405
16966TIP3    H172389   1.645   2.162   5.739  0.7098  0.6433 -1.9412
16966TIP3    H272390   1.519   2.233   5.784 -0.7953 -1.5810 -2.4983
16967TIP3   OH272391   4.189   2.697  16.697  0.0087 -0.4311  0.4254
16967TIP3    H172392   4.225   2.772  16.744 -2.6017  1.8390 -0.8948
16967TIP3    H272393   4.225   2.705  16.609  0.8780 -1.6864  0.6336
16968TIP3   OH272394   2.423   2.083  13.749 -0.6344  0.2836 -0.2950
16968TIP3    H172395   2.472   2.035  13.816 -1.5194  0.7605  0.7121
16968TIP3    H272396   2.394   2.015  13.688  0.5582 -0.1026 -0.4585
16969TIP3   OH272397   0.461   2.491   0.227 -0.1943  0.5077  0.1918
16969TIP3    H172398   0.458   2.399   0.253 -2.3656 -0.0053 -1.5902
16969TIP3    H272399   0.529   2.496   0.161  0.4616  0.3752  0.8421
16970TIP3   OH272400   2.717   4.888   1.080 -0.1183 -0.5773 -0.2038
16970TIP3    H172401   2.622   4.881   1.092  0.2702 -2.1294  3.0576
16970TIP3    H272402   2.734   4.982   1.076 -1.6254 -0.1837  1.4766
16971TIP3   OH272403   4.976   4.186  11.809 -0.2577  0.6484  0.0193
16971TIP3    H172404   5.043   4.221  11.869  0.0996 -0.1741  0.1158
16971TIP3    H272405   4.902   4.165  11.866 -0.2732  0.7410  0.0346
16972TIP3   OH272406   2.364   2.731   0.142  0.4545  0.0217 -0.5046
16972TIP3    H172407   2.451   2.691   0.146  0.7247  0.5305 -1.0970
16972TIP3    H272408   2.381   2.822   0.118 -0.2804  0.0088 -1.0990
16973TIP3   OH272409   5.741   1.872  14.332 -0.1327  0.2252 -0.0737
16973TIP3    H172410   5.788   1.927  14.270 -0.0151  0.3618  0.1320
16973TIP3    H272411   5.649   1.880  14.307 -0.0447 -0.0763 -0.5046
16974TIP3   OH272412   0.129   1.726  15.478  0.4527  0.5153  0.3349
16974TIP3    H172413   0.088   1.771  15.404  0.1585 -0.1321  0.0950
16974TIP3    H272414   0.202   1.677  15.439  0.4091  0.3192  0.4968
16975TIP3   OH272415   1.629   0.538   0.262  0.1790 -0.0490 -1.0075
16975TIP3    H172416   1.627   0.578   0.349 -1.1064  0.2521 -1.1618
16975TIP3    H272417   1.624   0.444   0.278  1.2376 -0.0655 -0.7180
16976TIP3   OH272418   1.865   6.429  14.428  0.0220 -0.4414 -0.5256
16976TIP3    H172419   1.930   6.360  14.427 -1.2548 -1.7066  0.0975
16976TIP3    H272420   1.879   6.475  14.511  1.0743  0.2752 -1.0851
16977TIP3   OH272421   5.319   0.959  14.935 -0.3069  0.1432 -0.1308
16977TIP3    H172422   5.414   0.966  14.942 -0.2731 -0.9105  0.7576
16977TIP3    H272423   5.299   0.988  14.846  0.8210  0.5367 -0.2731
16978TIP3   OH272424   1.796   6.736  12.297  0.0242  0.4522  0.0423
16978TIP3    H172425   1.776   6.830  12.288 -2.9225 -0.0542  0.3035
16978TIP3    H272426   1.800   6.722  12.392 -1.5588  0.0050  0.0699
16979TIP3   OH272427   3.770   5.932  11.176 -0.4388  0.1825  0.7633
16979TIP3    H172428   3.826   5.979  11.237 -0.9214 -0.2899  1.5908
16979TIP3    H272429   3.785   5.975  11.091 -0.4193  1.4267  1.3713
16980TIP3   OH272430   0.507   2.555   2.020 -0.1218 -0.1029 -0.1488
16980TIP3    H172431   0.429   2.563   2.076  0.7185 -0.5974  1.1523
16980TIP3    H272432   0.527   2.462   2.021  0.7410  0.0771 -0.1043
16981TIP3   OH272433   0.016   6.215   3.341 -0.3139 -0.0535  0.0160
16981TIP3    H172434  -0.014   6.296   3.300 -0.7177  0.0132  0.4315
16981TIP3    H272435   0.080   6.244   3.407  0.2280 -0.1480 -0.4650
16982TIP3   OH272436   1.499   0.334   4.548 -0.2399 -0.5090 -0.2348
16982TIP3    H172437   1.519   0.416   4.503 -1.9092 -0.8010 -1.6032
16982TIP3    H272438   1.461   0.361   4.632 -0.7446  0.1329 -0.6609
16983TIP3   OH272439   1.546   2.969   4.445  0.8251 -0.1332  0.8801
16983TIP3    H172440   1.561   2.887   4.397 -0.7876 -0.4754  0.9182
16983TIP3    H272441   1.609   2.966   4.517  1.8700 -0.5784 -0.0139
16984TIP3   OH272442   5.770   5.285  13.976 -0.3297  0.3430 -0.0310
16984TIP3    H172443   5.690   5.320  13.938 -0.9989  1.0474  1.9004
16984TIP3    H272444   5.745   5.200  14.012 -0.0412  0.2678 -0.0043
16985TIP3   OH272445   5.788   1.956   2.886 -0.2612  0.0750  0.0195
16985TIP3    H172446   5.872   1.989   2.919 -0.0304  0.7761 -1.1862
16985TIP3    H272447   5.745   1.919   2.962  1.4896 -1.0224  0.5288
16986TIP3   OH272448   1.941   3.572  16.648 -0.4749 -0.6900 -0.4178
16986TIP3    H172449   2.033   3.552  16.661 -0.5829 -1.3454 -0.6207
16986TIP3    H272450   1.897   3.532  16.723 -0.5840 -0.2760 -0.2566
16987TIP3   OH272451   2.021   5.365  16.075  0.1557 -0.5015  0.3388
16987TIP3    H172452   2.098   5.384  16.129 -0.6810  1.3866  0.9704
16987TIP3    H272453   2.054   5.308  16.005  1.7851 -0.9835  1.4531
16988TIP3   OH272454   4.067   4.320   0.589 -0.1253 -0.1894  0.2386
16988TIP3    H172455   4.063   4.244   0.648  1.1594  0.8099  1.6809
16988TIP3    H272456   4.150   4.309   0.541 -0.7933 -0.5900 -0.8735
16989TIP3   OH272457   2.960   5.290   5.879  0.2652 -0.2185  0.1052
16989TIP3    H172458   3.047   5.327   5.889  0.4993  0.0138 -2.1944
16989TIP3    H272459   2.947   5.285   5.784 -2.1741 -0.3540  0.3806
16990TIP3   OH272460   2.106   3.883   4.020  0.1985 -0.4380 -0.4385
16990TIP3    H172461   2.039   3.927   4.072  1.7290  0.6133  0.7359
16990TIP3    H272462   2.077   3.894   3.929  0.3671  2.8674 -0.2021
16991TIP3   OH272463   5.106   5.347   6.082  0.2197 -0.1635 -0.1726
16991TIP3    H172464   5.025   5.396   6.069 -0.0387 -0.3927  0.5180
16991TIP3    H272465   5.126   5.309   5.996  0.5737  1.3461 -0.7864
16992TIP3   OH272466   5.070   0.893   0.896  0.6693  0.3851 -0.0947
16992TIP3    H172467   5.144   0.947   0.867 -0.3300  1.4367 -0.7701
16992TIP3    H272468   5.007   0.956   0.931  0.3404 -0.5586  1.0512
16993TIP3   OH272469   1.229   4.870   5.098 -0.4268  0.4766 -0.1222
16993TIP3    H172470   1.227   4.911   5.012  1.0320  1.2043  0.1686
16993TIP3    H272471   1.280   4.790   5.086 -0.7412  0.2611 -0.0494
16994TIP3   OH272472   5.919   4.158  16.195  0.2934 -0.0690  0.0179
16994TIP3    H172473   5.863   4.197  16.263  0.9117  0.5525  0.1788
16994TIP3    H272474   6.008   4.183  16.220  0.6852 -1.2830 -0.0785
16995TIP3   OH272475   1.064   2.795   5.414 -0.2634 -0.3068 -0.1337
16995TIP3    H172476   1.121   2.847   5.469 -1.0230 -0.1231  0.5067
16995TIP3    H272477   1.115   2.777   5.336  1.4986 -1.9980  1.3004
16996TIP3   OH272478   2.698   6.479  13.125 -0.1083  0.3085  0.0985
16996TIP3    H172479   2.637   6.454  13.195 -1.4235 -1.1198 -1.4516
16996TIP3    H272480   2.648   6.465  13.044  1.8089  0.5536 -1.1985
16997TIP3   OH272481   3.114   1.186  13.479  0.3716  0.1811  0.5711
16997TIP3    H172482   3.123   1.151  13.568  1.0160  2.1613  1.3458
16997TIP3    H272483   3.204   1.205  13.451  0.2398 -1.0181 -0.8018
16998TIP3   OH272484   5.545   4.528   0.891  0.1294  0.0057 -0.1376
16998TIP3    H172485   5.472   4.551   0.832 -0.7344 -0.9197  0.5386
16998TIP3    H272486   5.618   4.510   0.832 -0.8550 -1.4027 -0.9885
16999TIP3   OH272487   0.462   2.023   3.919  0.9686  0.3800  0.0264
16999TIP3    H172488   0.422   2.110   3.924  1.8421  0.8679 -1.0090
16999TIP3    H272489   0.389   1.965   3.899  0.5587  1.0597 -0.5090
17000TIP3   OH272490   0.653   3.074  16.013 -0.0873 -0.3097 -0.1527
17000TIP3    H172491   0.570   3.107  16.047 -0.5471 -2.4225  0.9022
17000TIP3    H272492   0.674   2.999  16.069 -0.0390 -2.9713 -3.4183
17001TIP3   OH272493   0.204   0.957   4.845 -0.3934 -0.7673 -0.4061
17001TIP3    H172494   0.131   0.938   4.786 -0.1037 -1.6303 -0.5035
17001TIP3    H272495   0.207   0.881   4.904 -0.6198  0.0353  0.6569
17002TIP3   OH272496   6.649   1.570  16.453 -0.0055 -0.8848 -0.4082
17002TIP3    H172497   6.664   1.575  16.547  0.1854 -0.7343 -0.4483
17002TIP3    H272498   6.579   1.505  16.444  0.4245 -1.3886 -0.2078
17003TIP3   OH272499   4.035   3.378  16.886 -0.4919  0.2609  0.3616
17003TIP3    H172500   3.950   3.341  16.862 -1.0370  0.9478  1.1696
17003TIP3    H272501   4.033   3.382  16.982  0.0337  1.2297  0.3416
17004TIP3   OH272502   3.967   5.719  16.362  0.4434  0.1695  0.0577
17004TIP3    H172503   3.952   5.736  16.269  2.4283 -0.9507 -0.5429
17004TIP3    H272504   3.923   5.636  16.379  1.8292 -0.7344 -0.5008
17005TIP3   OH272505   6.678   6.086  13.521 -0.2625  0.2121 -0.0698
17005TIP3    H172506   6.709   6.168  13.560 -1.0843  0.0495  0.9607
17005TIP3    H272507   6.753   6.055  13.469  0.7257  0.6500  1.0336
17006TIP3   OH272508   5.293   2.493  13.393  0.4493 -0.1326  0.1551
17006TIP3    H172509   5.211   2.543  13.396  1.1829  1.0825  0.6156
17006TIP3    H272510   5.269   2.411  13.351 -1.1194 -0.0074  0.7399
17007TIP3   OH272511   3.989   0.727  12.843  0.2859 -0.3079  0.2014
17007TIP3    H172512   3.896   0.751  12.836 -0.1318 -0.9071  2.7854
17007TIP3    H272513   4.001   0.660  12.775 -1.3810 -0.7674  0.3114
17008TIP3   OH272514   0.794   2.143  12.275  0.4742  0.2645  0.0035
17008TIP3    H172515   0.718   2.151  12.217  0.4825 -1.8844 -0.3774
17008TIP3    H272516   0.847   2.073  12.237  1.7704  0.5249  1.2227
17009TIP3   OH272517   5.190   3.567  14.548  0.4168  0.3549 -0.9595
17009TIP3    H172518   5.128   3.635  14.521  1.8064  1.2937 -1.9190
17009TIP3    H272519   5.149   3.485  14.519 -0.3791  0.9466 -1.5735
17010TIP3   OH272520   5.698   0.568   0.133  0.0961  0.3758  0.1179
17010TIP3    H172521   5.613   0.594   0.098  0.1046 -0.0813 -0.2573
17010TIP3    H272522   5.677   0.513   0.208  0.0805  2.0147  1.3636
17011TIP3   OH272523   2.728   5.567   2.614  0.4549 -0.3651 -0.2507
17011TIP3    H172524   2.752   5.475   2.607 -2.6410 -1.2673 -0.9864
17011TIP3    H272525   2.691   5.588   2.528 -1.1169  0.7927  0.6561
17012TIP3   OH272526   3.598   0.771   0.975  0.4849 -0.1731  0.0325
17012TIP3    H172527   3.646   0.715   0.913  0.5591 -0.7101  0.5636
17012TIP3    H272528   3.596   0.720   1.056 -0.1857  0.2416  0.2831
17013TIP3   OH272529   2.839   3.691  15.703 -0.1070 -0.2938  0.4526
17013TIP3    H172530   2.848   3.760  15.769 -1.4832 -0.2882  0.6655
17013TIP3    H272531   2.747   3.694  15.677  0.2076 -0.9159 -0.8046
17014TIP3   OH272532   1.994   0.468   5.458 -0.5246 -0.3896 -0.2072
17014TIP3    H172533   2.020   0.386   5.500 -0.7251  0.5661  1.8834
17014TIP3    H272534   1.899   0.471   5.467 -0.5967 -0.2604 -0.9453
17015TIP3   OH272535   2.688   5.088  12.541 -0.2254  0.3315 -0.6070
17015TIP3    H172536   2.756   5.119  12.481  0.6716  0.5623  0.4771
17015TIP3    H272537   2.720   5.003  12.571 -0.5989  0.2682 -0.3842
17016TIP3   OH272538   6.705   6.206   4.966  0.2248 -0.3020 -0.2012
17016TIP3    H172539   6.739   6.293   4.987  0.8798 -1.0368  2.1457
17016TIP3    H272540   6.747   6.183   4.883  0.4652  1.3725 -0.5856
17017TIP3   OH272541   1.264   2.627  13.410 -0.2267  0.3669 -0.0093
17017TIP3    H172542   1.323   2.586  13.347 -0.8468  0.2509 -0.5082
17017TIP3    H272543   1.201   2.675  13.357  1.3926  3.3388  0.5198
17018TIP3   OH272544   2.831   3.782   2.357 -0.5580  0.0294  0.3651
17018TIP3    H172545   2.768   3.719   2.320 -0.4744  0.6886 -0.9573
17018TIP3    H272546   2.848   3.750   2.446 -0.7504 -1.6348 -0.1715
17019TIP3   OH272547   3.120   0.146  13.902  0.1245  0.7184  0.0398
17019TIP3    H172548   3.208   0.163  13.935  0.5044 -0.5464 -0.2734
17019TIP3    H272549   3.126   0.164  13.808  0.4087 -0.6250 -0.2124
17020TIP3   OH272550   4.519   3.520   5.126  0.6921 -0.3719 -0.2808
17020TIP3    H172551   4.444   3.577   5.112  1.9045  1.5720  0.7360
17020TIP3    H272552   4.505   3.481   5.212  0.7941 -0.0850 -0.1331
17021TIP3   OH272553   3.295   6.352  15.464  0.3562 -0.2868 -0.5811
17021TIP3    H172554   3.315   6.431  15.514 -2.0518 -0.4363  0.7308
17021TIP3    H272555   3.287   6.382  15.374  0.0124  0.8892 -0.1760
17022TIP3   OH272556   5.804   3.221   5.780  0.1202 -0.0850  0.2545
17022TIP3    H172557   5.808   3.126   5.782  3.5648 -0.0672 -0.0398
17022TIP3    H272558   5.773   3.247   5.867 -1.3719 -1.4188  0.1591
17023TIP3   OH272559   4.857   1.731   0.910 -0.1527  0.3276  0.3702
17023TIP3    H172560   4.797   1.792   0.867  0.3676  0.0199 -0.8278
17023TIP3    H272561   4.942   1.776   0.908 -0.0907  0.2514  0.9773
17024TIP3   OH272562   5.859   0.950   5.058 -0.5889 -0.3742 -0.5567
17024TIP3    H172563   5.812   0.918   4.981 -0.2051 -0.0471 -0.9375
17024TIP3    H272564   5.926   1.008   5.022 -1.2888  0.8782  0.1144
17025TIP3   OH272565   1.724   2.875   6.411 -0.8244 -0.2096 -0.0899
17025TIP3    H172566   1.666   2.841   6.479 -0.5128 -0.1887  0.1898
17025TIP3    H272567   1.740   2.967   6.436  0.3299 -0.5535  0.5419
17026TIP3   OH272568   0.627   3.660  15.767 -0.2456 -0.1035 -0.4681
17026TIP3    H172569   0.616   3.656  15.862 -2.3752  0.7550 -0.6182
17026TIP3    H272570   0.721   3.670  15.754 -0.0307  1.2077  1.6237
17027TIP3   OH272571   6.569   0.259   1.778  0.1053 -0.0145  0.3335
17027TIP3    H172572   6.628   0.333   1.762  1.4624 -0.9614  0.8394
17027TIP3    H272573   6.497   0.297   1.829  0.7335  0.9871  0.5011
17028TIP3   OH272574   4.944   5.357   4.700  0.2376 -0.6290 -0.5804
17028TIP3    H172575   4.885   5.418   4.745  2.0417 -0.2290  1.3659
17028TIP3    H272576   5.012   5.412   4.662  1.6758 -1.3338  0.8610
17029TIP3   OH272577   4.924   0.551   4.130 -0.0370  0.7707  0.7245
17029TIP3    H172578   4.972   0.492   4.188 -0.2579 -1.4673 -1.2198
17029TIP3    H272579   4.991   0.599   4.082  0.2663 -0.8600 -0.5311
17030TIP3   OH272580   1.007   5.554   1.218 -0.2480 -0.2996 -0.0520
17030TIP3    H172581   1.073   5.575   1.152  0.6351  0.1019  0.9443
17030TIP3    H272582   0.928   5.537   1.167  0.2934  0.4619 -1.1871
17031TIP3   OH272583   3.495   4.567  12.066  0.6643 -0.2029 -0.2339
17031TIP3    H172584   3.466   4.556  12.156 -1.9431 -2.3830 -1.2020
17031TIP3    H272585   3.505   4.662  12.055 -0.7641  0.2486  1.8313
17032TIP3   OH272586   3.552   0.923  14.518 -0.1615 -0.3599  0.2006
17032TIP3    H172587   3.542   0.841  14.567 -2.9211 -1.1065 -1.3593
17032TIP3    H272588   3.488   0.983  14.558  1.4918  0.9426  1.0155
17033TIP3   OH272589   3.946   0.062   2.338  0.6233  0.1076 -0.5542
17033TIP3    H172590   4.024   0.113   2.361  0.5813 -0.0578 -0.0223
17033TIP3    H272591   3.937   0.074   2.244 -0.0689  2.0983 -0.2986
17034TIP3   OH272592   1.723   0.650  17.102 -0.0985  0.3847 -0.3776
17034TIP3    H172593   1.801   0.624  17.053  0.2776 -0.9003  0.8354
17034TIP3    H272594   1.751   0.651  17.193 -0.9075  2.2652 -0.1190
17035TIP3   OH272595   6.313   0.620   0.655 -0.1009 -0.0754  0.4447
17035TIP3    H172596   6.281   0.607   0.745 -1.1043  2.0370  0.4516
17035TIP3    H272597   6.235   0.607   0.601  0.6107 -1.8574 -0.2070
17036TIP3   OH272598   4.193   4.019  14.173  0.0130  0.2095 -0.1631
17036TIP3    H172599   4.132   4.051  14.106 -0.7467 -0.0701  0.3785
17036TIP3    H272600   4.212   4.097  14.226 -0.2464  0.2078 -0.0604
17037TIP3   OH272601   0.394   3.719  14.596  0.1391 -0.1000  0.0967
17037TIP3    H172602   0.336   3.665  14.649  1.6339 -2.9565 -0.9605
17037TIP3    H272603   0.340   3.746  14.521 -1.0923  1.3589  1.4466
17038TIP3   OH272604   0.869   1.389   0.588 -0.5540  0.6917  0.1766
17038TIP3    H172605   0.958   1.376   0.621 -0.3990  0.2340 -0.4087
17038TIP3    H272606   0.845   1.478   0.616  0.6123  1.3616 -0.8502
17039TIP3   OH272607   2.229   3.934   5.794 -0.0505 -0.9882 -0.3825
17039TIP3    H172608   2.323   3.937   5.812 -0.1319  0.7680 -0.0833
17039TIP3    H272609   2.188   3.962   5.875 -0.7946 -0.8864 -0.7856
17040TIP3   OH272610   0.424   5.647  12.076 -0.4832 -0.1730 -0.4902
17040TIP3    H172611   0.412   5.695  12.158  0.1054 -0.6788 -0.0986
17040TIP3    H272612   0.339   5.654  12.032 -0.6981  0.4093 -0.0056
17041TIP3   OH272613   3.171   2.519   3.109  1.6681  0.0177 -0.7505
17041TIP3    H172614   3.120   2.449   3.151  0.6081  1.8522  1.2375
17041TIP3    H272615   3.169   2.498   3.016  1.0294 -2.3318 -0.2847
17042TIP3   OH272616   1.136   4.791   5.912 -0.1867  0.4488 -0.1586
17042TIP3    H172617   1.224   4.772   5.943 -0.5996  0.0718  0.8221
17042TIP3    H272618   1.117   4.723   5.847  0.1992  0.4782 -0.3012
17043TIP3   OH272619   1.914   6.375  13.091  0.2781 -0.1354  0.1277
17043TIP3    H172620   1.824   6.370  13.060  0.3555  0.9715 -0.3009
17043TIP3    H272621   1.965   6.333  13.021  0.0761 -1.1804  0.5769
17044TIP3   OH272622   2.619   1.209   0.256  0.3210 -0.0538 -0.0444
17044TIP3    H172623   2.575   1.136   0.298  1.6693 -0.8872 -0.0065
17044TIP3    H272624   2.598   1.200   0.163 -0.5032  0.2400  0.1058
17045TIP3   OH272625   1.414   4.084  12.993 -0.5924  0.0479  0.4531
17045TIP3    H172626   1.418   4.007  12.937 -0.3450  1.1433 -1.0786
17045TIP3    H272627   1.476   4.066  13.064  0.7758 -0.4244 -0.8319
17046TIP3   OH272628   0.508   3.583   2.197  0.5149  0.1010 -0.2117
17046TIP3    H172629   0.497   3.635   2.118  0.7696 -1.0413 -1.0309
17046TIP3    H272630   0.472   3.637   2.267  3.5254  2.7234 -0.4737
17047TIP3   OH272631   6.640   1.147   1.542 -0.4331 -0.2987 -0.2088
17047TIP3    H172632   6.651   1.239   1.563 -2.7014 -0.5386  2.7019
17047TIP3    H272633   6.696   1.101   1.603 -1.2813 -0.8734  0.1608
17048TIP3   OH272634   4.832   2.276  13.707  0.9811 -0.2960  0.1005
17048TIP3    H172635   4.875   2.191  13.716  1.9631 -0.0829 -1.9150
17048TIP3    H272636   4.901   2.334  13.673 -0.4368  0.4524 -1.6857
17049TIP3   OH272637   1.849   1.284  13.091  0.8129  0.3646 -0.1553
17049TIP3    H172638   1.926   1.307  13.039  1.9460  0.8478  1.6157
17049TIP3    H272639   1.792   1.360  13.085  0.6100  0.1397 -1.2121
17050TIP3   OH272640   3.593   2.356   0.158  0.2576 -0.4609  0.1409
17050TIP3    H172641   3.622   2.426   0.100 -1.8103  1.8678  1.7454
17050TIP3    H272642   3.530   2.306   0.106 -1.6303  1.6394  0.2628
17051TIP3   OH272643   2.460   4.114   6.030  0.5982 -0.2462 -0.2973
17051TIP3    H172644   2.386   4.174   6.028  0.7695 -0.0432 -1.0371
17051TIP3    H272645   2.522   4.153   6.091 -0.1531 -0.7329  0.8012
17052TIP3   OH272646   1.525   2.424   0.583  0.0935  0.1792  0.1686
17052TIP3    H172647   1.520   2.404   0.490  2.4834 -0.4918  0.1172
17052TIP3    H272648   1.569   2.509   0.587  0.0881  0.1611  0.6763
17053TIP3   OH272649   4.392   6.097   5.239  0.3756  0.2423 -0.1083
17053TIP3    H172650   4.392   6.004   5.219  1.5744  0.0527  0.6893
17053TIP3    H272651   4.335   6.136   5.172  0.4316 -0.9586 -0.8775
17054TIP3   OH272652   6.010   0.808   5.641  0.2048 -0.5016  0.0310
17054TIP3    H172653   6.069   0.860   5.587  1.6223 -2.8024 -0.7725
17054TIP3    H272654   6.067   0.748   5.689 -1.2240 -0.1962  2.2374
17055TIP3   OH272655   2.279   0.531   1.158  0.4848  0.0115  0.2817
17055TIP3    H172656   2.210   0.498   1.215  0.5412  0.0944  0.3987
17055TIP3    H272657   2.361   0.502   1.200  0.5598  0.8543  0.7390
17056TIP3   OH272658   5.372   5.719   2.815 -0.5887 -0.3562  0.3287
17056TIP3    H172659   5.425   5.741   2.892  0.1527 -2.8829  0.6186
17056TIP3    H272660   5.433   5.674   2.756 -2.0218 -1.9396 -0.0093
17057TIP3   OH272661   0.802   2.651  14.672  0.2265 -0.2473 -0.0572
17057TIP3    H172662   0.789   2.635  14.765 -0.4215  0.1872 -0.0700
17057TIP3    H272663   0.867   2.585  14.646 -1.0311 -1.6827  0.2778
17058TIP3   OH272664   1.494   4.425  11.610 -0.2292 -0.6189 -0.0638
17058TIP3    H172665   1.585   4.416  11.639  0.0226  0.2268 -0.5608
17058TIP3    H272666   1.443   4.384  11.680  0.5574 -1.7183 -0.1022
17059TIP3   OH272667   5.461   2.002  11.469  0.0261 -0.4477  0.0969
17059TIP3    H172668   5.382   1.956  11.440 -0.2948 -0.5572  1.1176
17059TIP3    H272669   5.431   2.059  11.540  0.8316 -0.3619  0.3785
17060TIP3   OH272670   3.074   5.023  14.897 -0.0610 -0.1315 -0.3381
17060TIP3    H172671   3.017   5.093  14.867 -0.1402 -0.0961 -0.1005
17060TIP3    H272672   3.064   5.022  14.992  2.5502  1.8537  0.0774
17061TIP3   OH272673   5.897   5.569   4.176  0.3917  0.0057 -0.1911
17061TIP3    H172674   5.992   5.572   4.182  0.3383  0.3984  0.5528
17061TIP3    H272675   5.871   5.659   4.159  0.1302 -0.0390 -0.0350
17062TIP3   OH272676   2.993   1.401  15.504  0.7262  0.0848  0.2304
17062TIP3    H172677   2.910   1.362  15.532  0.4499  0.5232  0.0382
17062TIP3    H272678   3.007   1.366  15.416  0.1411  0.9183 -0.2083
17063TIP3   OH272679   4.860   0.904   5.197  0.6165  0.7509  0.1251
17063TIP3    H172680   4.789   0.890   5.260 -0.0065 -0.3732 -0.7905
17063TIP3    H272681   4.822   0.884   5.112  1.8567  0.7639 -0.4638
17064TIP3   OH272682   0.334   0.314   1.726  0.2045  0.0918  0.0415
17064TIP3    H172683   0.247   0.301   1.764 -0.3200  0.6881 -0.9132
17064TIP3    H272684   0.334   0.406   1.699  0.8051 -0.1415 -0.7769
17065TIP3   OH272685   0.952   0.109   3.128 -0.2959 -0.5894  0.2989
17065TIP3    H172686   1.008   0.184   3.146  0.2065 -0.8401 -0.1825
17065TIP3    H272687   0.897   0.138   3.055 -1.2091 -0.1430  1.1355
17066TIP3   OH272688   2.019   3.151   1.317  1.0563 -0.2880 -0.1450
17066TIP3    H172689   1.983   3.079   1.368  0.3190 -0.6297 -1.1183
17066TIP3    H272690   2.114   3.147   1.332  0.7884  0.2519  1.9788
17067TIP3   OH272691   4.343   3.056  13.636  0.7790 -0.1799  0.3155
17067TIP3    H172692   4.385   2.975  13.667 -2.8375 -1.5524  2.1794
17067TIP3    H272693   4.345   3.114  13.711 -1.0187 -0.4934  0.6449
17068TIP3   OH272694   6.668   3.971  11.637 -0.3464 -0.2831  0.1964
17068TIP3    H172695   6.733   4.035  11.667  1.1998 -0.2465 -2.8175
17068TIP3    H272696   6.601   4.024  11.593  1.4070 -0.5228 -3.1499
17069TIP3   OH272697   1.672   0.448  13.444  0.1657 -0.4119  0.0752
17069TIP3    H172698   1.635   0.448  13.356  2.6057 -2.8868 -1.1083
17069TIP3    H272699   1.758   0.490  13.434 -0.7518  2.2450  2.0398
17070TIP3   OH272700   1.668   2.258   2.830 -0.0928 -0.0150 -0.3653
17070TIP3    H172701   1.693   2.348   2.851  0.9310 -0.2866 -0.3653
17070TIP3    H272702   1.574   2.256   2.844 -0.2563  1.2532 -1.0858
17071TIP3   OH272703   6.531   4.728   2.830  0.3613  0.3737 -0.3967
17071TIP3    H172704   6.524   4.746   2.737  1.4532 -0.0387 -0.5775
17071TIP3    H272705   6.624   4.740   2.850  0.1679  0.3182  0.6068
17072TIP3   OH272706   4.817   4.057   0.882 -0.2885  0.2092  0.4076
17072TIP3    H172707   4.865   3.996   0.827 -2.1578  0.4400 -1.6324
17072TIP3    H272708   4.743   4.005   0.916  0.6000  0.1858  2.4350
17073TIP3   OH272709   4.497   6.619   2.768  0.2167 -0.3082  0.3895
17073TIP3    H172710   4.411   6.617   2.811  0.6851  0.0612  1.3544
17073TIP3    H272711   4.534   6.532   2.785  0.4941 -0.0855  0.9210
17074TIP3   OH272712   5.834   5.684   0.593  0.6291  0.2731  0.1203
17074TIP3    H172713   5.741   5.689   0.569  0.0029 -0.6089  2.1339
17074TIP3    H272714   5.870   5.769   0.568 -1.2434  1.4936  1.2971
17075TIP3   OH272715   1.143   6.563  15.454 -0.3643 -0.1198 -0.2689
17075TIP3    H172716   1.094   6.633  15.410  1.3477  2.2672  1.3579
17075TIP3    H272717   1.108   6.560  15.542  1.6685  0.9801  0.6416
17076TIP3   OH272718   5.564   2.635  12.949 -0.2858 -0.4730  0.3796
17076TIP3    H172719   5.532   2.574  13.015 -1.5767  0.5550  0.7411
17076TIP3    H272720   5.649   2.665  12.983 -1.6852  1.3905  2.5730
17077TIP3   OH272721   1.268   0.776  11.728  0.4206 -0.2865 -0.0686
17077TIP3    H172722   1.342   0.824  11.765  0.6301 -1.0402  0.5278
17077TIP3    H272723   1.191   0.823  11.759  0.6308  0.7306 -1.0068
17078TIP3   OH272724   2.789   0.073  15.745 -0.2674 -0.1981  0.7842
17078TIP3    H172725   2.852   0.001  15.742 -0.6051 -0.4699 -1.2102
17078TIP3    H272726   2.842   0.151  15.762  0.3998 -0.6390  0.7653
17079TIP3   OH272727   2.303   1.248  13.854  0.0594  1.1156  0.0658
17079TIP3    H172728   2.223   1.235  13.804  0.5833 -0.6720 -0.3605
17079TIP3    H272729   2.273   1.265  13.943 -0.8093 -0.6831  0.1577
17080TIP3   OH272730   6.799   2.674   1.467  0.7515  0.3001  0.0348
17080TIP3    H172731   6.875   2.683   1.525  0.1728  2.5331  0.5503
17080TIP3    H272732   6.744   2.609   1.510  2.2158 -1.1315 -0.1980
17081TIP3   OH272733   3.897   0.435   3.044  0.0549 -0.0089  0.1470
17081TIP3    H172734   3.932   0.429   2.955  0.8824  0.5671  0.4216
17081TIP3    H272735   3.844   0.356   3.054  0.1824 -0.2239 -0.7548
17082TIP3   OH272736   4.523   4.165  12.918  0.2235  0.1222  0.5884
17082TIP3    H172737   4.602   4.217  12.934  0.0465  0.2869  0.9306
17082TIP3    H272738   4.556   4.075  12.906  0.2899 -0.2655  3.1538
17083TIP3   OH272739   5.320   3.766  14.687 -0.5667  0.0489 -0.3581
17083TIP3    H172740   5.285   3.685  14.650 -0.5609  0.0794 -0.4299
17083TIP3    H272741   5.388   3.736  14.748  0.9090  0.0589 -1.9089
17084TIP3   OH272742   0.631   4.646   4.340  0.3973  0.5673  1.2734
17084TIP3    H172743   0.667   4.641   4.252 -0.5212 -0.0721  0.9141
17084TIP3    H272744   0.661   4.730   4.374  1.3848  0.4820  0.6381
17085TIP3   OH272745   0.957   2.840   5.718  0.3760 -0.4309  0.2495
17085TIP3    H172746   0.881   2.790   5.748  1.2441 -1.2318  1.2309
17085TIP3    H272747   0.973   2.904   5.788  1.1255 -0.8739  0.5024
17086TIP3   OH272748   4.327   0.113   5.825 -0.1408 -0.8518  0.0771
17086TIP3    H172749   4.382   0.154   5.758  0.7266 -0.4666  1.0074
17086TIP3    H272750   4.388   0.063   5.879 -0.7287 -0.5849  1.0113
17087TIP3   OH272751   5.874   3.480  14.087 -0.1152  0.2424  0.2228
17087TIP3    H172752   5.788   3.446  14.062  0.1936 -1.0121  0.7466
17087TIP3    H272753   5.857   3.567  14.122 -1.1833  0.0017  0.3302
17088TIP3   OH272754   4.584   5.427   4.501  0.2914  0.1340 -0.2854
17088TIP3    H172755   4.656   5.389   4.451  1.7927  0.5555  1.4555
17088TIP3    H272756   4.616   5.430   4.591 -1.5554  1.2196  0.3883
17089TIP3   OH272757   1.856   0.292   3.274  0.2978 -0.1967 -1.0643
17089TIP3    H172758   1.786   0.249   3.226  0.1809  0.5586 -1.5721
17089TIP3    H272759   1.935   0.274   3.223  0.0394  1.3787 -2.0583
17090TIP3   OH272760   6.296   4.642  13.137  0.5274  0.1576 -0.5914
17090TIP3    H172761   6.310   4.571  13.199 -1.0634 -0.1127 -0.4931
17090TIP3    H272762   6.319   4.721  13.185  1.6016 -0.2109 -0.4658
17091TIP3   OH272763   4.295   3.454  13.339  0.1572 -0.1260  0.3961
17091TIP3    H172764   4.285   3.458  13.434  2.0632 -0.5024  0.6665
17091TIP3    H272765   4.270   3.364  13.316 -1.8915  0.4330  0.2699
17092TIP3   OH272766   6.193   5.992   2.857 -0.0360  0.3829 -0.1685
17092TIP3    H172767   6.260   5.923   2.863  0.2507  0.7593  1.1457
17092TIP3    H272768   6.157   5.982   2.769  1.5146 -0.0531 -0.7861
17093TIP3   OH272769   2.189   1.114   5.996  0.0292 -0.0825  0.0556
17093TIP3    H172770   2.152   1.157   6.072 -0.3033  0.7838 -0.5797
17093TIP3    H272771   2.179   1.177   5.925  0.3967 -0.8370 -0.6918
17094TIP3   OH272772   4.908   2.020  14.183 -0.0392 -0.4170 -0.0815
17094TIP3    H172773   4.988   1.981  14.149 -0.2132  0.4491 -1.5814
17094TIP3    H272774   4.847   1.946  14.193 -0.6311 -0.5962 -3.5861
17095TIP3   OH272775   5.829   6.177  12.243 -0.0720  0.4430 -0.2624
17095TIP3    H172776   5.899   6.241  12.232 -1.7520  2.0367 -3.0825
17095TIP3    H272777   5.860   6.099  12.197  0.4180  0.6683 -0.3152
17096TIP3   OH272778   2.901   4.123   5.107 -0.4127 -0.5057  0.5449
17096TIP3    H172779   2.982   4.094   5.151 -2.0238 -2.5738  2.3617
17096TIP3    H272780   2.902   4.218   5.118  1.2983 -0.5635  1.3721
17097TIP3   OH272781   1.319   3.234   6.063  0.0110 -0.6901  0.1764
17097TIP3    H172782   1.276   3.311   6.099  0.9466  0.1098 -0.3900
17097TIP3    H272783   1.413   3.252   6.070  0.2388 -1.4566 -0.6130
17098TIP3   OH272784   0.277   3.646  13.284  0.2701 -0.2115  0.0143
17098TIP3    H172785   0.210   3.713  13.272  1.1851  0.4350 -1.7502
17098TIP3    H272786   0.357   3.685  13.249  2.1272 -0.1952  3.7591
17099TIP3   OH272787   6.420   3.470  12.757 -0.4149 -0.4845 -0.1938
17099TIP3    H172788   6.416   3.413  12.833  0.1132  0.5904  0.6612
17099TIP3    H272789   6.468   3.420  12.691 -0.5139 -1.2576  0.3177
17100TIP3   OH272790   3.382   3.693  15.801  0.5658  0.5174 -0.3147
17100TIP3    H172791   3.369   3.601  15.777 -2.2433  0.3279  1.5009
17100TIP3    H272792   3.353   3.741  15.724  1.2311 -0.0836 -0.9610
17101TIP3   OH272793   4.746   1.679  15.907  0.2375  0.0561 -0.0114
17101TIP3    H172794   4.792   1.754  15.944  0.1266  0.5068 -0.7509
17101TIP3    H272795   4.663   1.715  15.877  0.0193 -0.4468 -0.0149
17102TIP3   OH272796   1.527   4.934   4.568  0.0739 -0.0079  0.0455
17102TIP3    H172797   1.532   4.840   4.588 -0.5912  0.1908  1.2318
17102TIP3    H272798   1.533   4.977   4.653 -1.0766  0.9583 -0.3375
17103TIP3   OH272799   1.631   3.279  17.104 -0.0863  0.3598 -0.0525
17103TIP3    H172800   1.686   3.311  17.032 -0.2782 -0.4192 -0.5539
17103TIP3    H272801   1.545   3.266  17.064 -0.4054  0.6948  0.5143
17104TIP3   OH272802   1.416   2.762  14.071  0.4768 -0.5162 -0.2155
17104TIP3    H172803   1.491   2.810  14.034 -0.2808  0.6190 -0.3429
17104TIP3    H272804   1.409   2.684  14.017 -0.3815  0.9336 -2.3139
17105TIP3   OH272805   4.944   3.294   4.611  0.0460  0.1402  0.4034
17105TIP3    H172806   4.869   3.349   4.587  1.8946  2.5452 -0.2264
17105TIP3    H272807   4.940   3.220   4.551 -0.6420  1.3255 -1.0688
17106TIP3   OH272808   3.794   5.711  11.677  0.6860 -0.0019  0.0210
17106TIP3    H172809   3.756   5.746  11.757 -0.3248  0.2485 -0.5363
17106TIP3    H272810   3.887   5.704  11.694  0.4124 -0.4952  1.4087
17107TIP3   OH272811   5.141   4.246  14.266  0.4240  0.1368 -0.2151
17107TIP3    H172812   5.127   4.314  14.332  0.6554 -0.5606  0.5716
17107TIP3    H272813   5.147   4.165  14.317  0.9163 -0.3736 -1.0740
17108TIP3   OH272814   6.245   2.269   1.384  0.3168 -0.1096  0.0390
17108TIP3    H172815   6.308   2.198   1.373  0.9322  0.3325  0.6554
17108TIP3    H272816   6.220   2.264   1.476 -0.6202 -0.3302 -0.2155
17109TIP3   OH272817   3.688   0.567   2.117 -0.3600  0.6964  0.1065
17109TIP3    H172818   3.737   0.605   2.045 -2.1565 -0.7506 -2.0123
17109TIP3    H272819   3.652   0.642   2.165 -1.5514  1.7488 -2.2890
17110TIP3   OH272820   5.392   3.385   2.033 -0.0915  0.2165 -0.2939
17110TIP3    H172821   5.430   3.346   1.954 -0.5086 -0.9990  0.0807
17110TIP3    H272822   5.435   3.470   2.041  1.0671 -0.2798 -0.9816
17111TIP3   OH272823   2.515   1.560   5.010 -0.0972 -0.0575  0.6981
17111TIP3    H172824   2.540   1.622   5.078  0.8798 -0.5814  0.8226
17111TIP3    H272825   2.597   1.529   4.973 -0.5264 -1.9537  1.2414
17112TIP3   OH272826   2.285   1.327  17.056 -0.2963 -0.0583  0.6267
17112TIP3    H172827   2.311   1.419  17.054 -1.1104  0.2435  2.4972
17112TIP3    H272828   2.309   1.294  16.969  0.7925  1.6813  0.2154
17113TIP3   OH272829   6.748   0.197   5.248  0.3161 -0.9349 -0.1420
17113TIP3    H172830   6.776   0.289   5.246  0.1899 -0.9075 -0.8479
17113TIP3    H272831   6.771   0.163   5.162  0.0053 -1.4620 -0.0197
17114TIP3   OH272832   6.419   4.173   0.627 -0.8183  0.2214 -0.3081
17114TIP3    H172833   6.476   4.096   0.636 -0.0569  1.0566  3.7457
17114TIP3    H272834   6.330   4.137   0.629 -0.4671 -0.6499  0.8422
17115TIP3   OH272835   5.759   2.215  14.626 -0.0256 -0.2735  0.1103
17115TIP3    H172836   5.748   2.253  14.539 -0.9941 -0.2441  0.2429
17115TIP3    H272837   5.764   2.290  14.685 -1.7618 -0.3228  0.3510
17116TIP3   OH272838   2.943   3.700  11.199  0.1251 -0.2722  0.2582
17116TIP3    H172839   2.967   3.623  11.148  1.2125 -0.4116  0.9454
17116TIP3    H272840   2.988   3.773  11.156 -2.0348  0.2640 -1.2502
17117TIP3   OH272841   0.044   4.292   2.066  0.0119 -0.3306  0.4228
17117TIP3    H172842   0.084   4.259   1.986 -1.5645  0.5254 -0.7979
17117TIP3    H272843  -0.013   4.364   2.036  0.4084  0.9312  2.4782
17118TIP3   OH272844   5.361   4.898  11.935  0.8103  0.2566  0.4819
17118TIP3    H172845   5.443   4.933  11.901  1.0347  0.2150  0.9737
17118TIP3    H272846   5.295   4.924  11.871  1.1008  0.8990  0.4358
17119TIP3   OH272847   1.378   3.853   4.741 -0.2912  0.1821  0.0032
17119TIP3    H172848   1.327   3.794   4.686  0.9824 -1.1539  0.2022
17119TIP3    H272849   1.468   3.823   4.731  0.0612  0.2961  2.3001
17120TIP3   OH272850   5.397   0.450  15.657  0.6600  0.4831  0.1460
17120TIP3    H172851   5.362   0.364  15.634  0.2769  0.4801  0.7153
17120TIP3    H272852   5.435   0.483  15.576  2.1655 -0.8525  0.2557
17121TIP3   OH272853   5.644   6.809   4.592  0.3935 -0.6280  0.6952
17121TIP3    H172854   5.616   6.873   4.658 -1.5200  0.5904 -1.1529
17121TIP3    H272855   5.562   6.777   4.554  1.3641  0.0367 -2.2368
17122TIP3   OH272856   5.116   0.447   1.234 -0.7615 -0.0597 -0.1279
17122TIP3    H172857   5.153   0.531   1.210 -1.7446  0.1348 -1.0429
17122TIP3    H272858   5.052   0.468   1.302 -2.9458  0.3639 -2.1724
17123TIP3   OH272859   4.711   1.962   1.506  0.4665  0.0359 -0.1311
17123TIP3    H172860   4.712   1.878   1.460 -0.1450 -0.1678  0.2145
17123TIP3    H272861   4.755   2.022   1.446 -2.3633  0.3334 -2.1068
17124TIP3   OH272862   2.723   0.225  16.064  0.1418  0.3463 -0.6061
17124TIP3    H172863   2.708   0.284  16.137  1.2389 -0.1409  0.0511
17124TIP3    H272864   2.784   0.272  16.007  1.8577 -0.4882  0.4400
17125TIP3   OH272865   6.365   5.854  14.959  0.0346  0.5892  0.0129
17125TIP3    H172866   6.452   5.869  14.994  0.2332  0.6558 -0.4904
17125TIP3    H272867   6.332   5.942  14.940 -0.5199  0.6263  1.0717
17126TIP3   OH272868   1.018   3.509  12.356  0.7312 -0.4235 -0.5205
17126TIP3    H172869   1.021   3.414  12.346  1.6675 -0.5118  0.4779
17126TIP3    H272870   0.989   3.541  12.271 -1.7111 -1.7157 -0.2573
17127TIP3   OH272871   0.148   0.107   1.014 -0.0947  0.1563  0.5073
17127TIP3    H172872   0.176   0.141   0.929 -0.3702  2.0232  1.1237
17127TIP3    H272873   0.228   0.105   1.067  0.1295 -1.2676  0.1567
17128TIP3   OH272874   3.839   5.727  16.116  0.5350 -0.7492  0.2049
17128TIP3    H172875   3.756   5.687  16.141  1.2387 -2.1444  0.4606
17128TIP3    H272876   3.880   5.661  16.059  0.8238  0.5509 -1.1486
17129TIP3   OH272877   3.141   0.602  16.164 -0.3164 -0.3550 -0.0540
17129TIP3    H172878   3.088   0.646  16.231  0.2077  1.9727 -1.0756
17129TIP3    H272879   3.226   0.588  16.206 -0.3958 -0.0955  0.1956
17130TIP3   OH272880   0.613   1.117  16.159  0.3705  0.3889 -0.2873
17130TIP3    H172881   0.623   1.144  16.250  1.5542  1.1964 -0.6240
17130TIP3    H272882   0.540   1.055  16.159  1.4383 -0.9494  1.4696
17131TIP3   OH272883   4.730   4.328  13.095  0.1890  0.4212 -0.4213
17131TIP3    H172884   4.758   4.237  13.108  1.3530  0.6079 -1.4195
17131TIP3    H272885   4.806   4.380  13.122 -0.7471  1.1506  0.8818
17132TIP3   OH272886   6.342   4.235   2.995  0.3877 -0.4291 -0.1041
17132TIP3    H172887   6.339   4.328   2.970 -0.1717 -0.5565 -0.5297
17132TIP3    H272888   6.426   4.204   2.961  0.0551 -0.3632 -1.0323
17133TIP3   OH272889   6.490   2.035  16.018  0.0698 -0.4071 -0.4809
17133TIP3    H172890   6.403   2.074  16.029  0.5141  0.4362  0.2188
17133TIP3    H272891   6.537   2.097  15.962  0.8547  0.2077  0.8219
17134TIP3   OH272892   3.807   2.706  13.838 -0.2396  0.2471  0.3445
17134TIP3    H172893   3.876   2.662  13.788  1.2920  2.9522 -0.1103
17134TIP3    H272894   3.728   2.659  13.815  0.3592  1.0767 -4.5812
17135TIP3   OH272895   4.943   0.733  15.919 -0.3415  0.1130  0.0037
17135TIP3    H172896   4.901   0.733  15.833 -0.1732 -2.0069 -0.1173
17135TIP3    H272897   4.914   0.652  15.960 -1.1042  1.4609  2.3392
17136TIP3   OH272898   1.058   2.672   0.849 -0.5526 -0.5146 -0.1815
17136TIP3    H172899   1.014   2.647   0.768  0.9617 -2.9539 -0.3271
17136TIP3    H272900   1.018   2.618   0.917 -1.0859  0.7616  0.5664
17137TIP3   OH272901   1.312   6.092  12.198  0.2282  0.0823 -0.3155
17137TIP3    H172902   1.334   6.052  12.282  3.0840  1.5812 -0.2425
17137TIP3    H272903   1.371   6.051  12.135 -0.0124  0.8793 -1.0882
17138TIP3   OH272904   2.220   2.259   3.803 -0.3259  0.0137  0.2389
17138TIP3    H172905   2.272   2.283   3.726  1.0860 -2.3515  0.3444
17138TIP3    H272906   2.162   2.189   3.772 -0.6046 -0.1238  1.0473
17139TIP3   OH272907   4.546   0.030   6.548 -0.9050 -0.2512 -0.1323
17139TIP3    H172908   4.616   0.063   6.490 -1.0687  1.0260  0.3526
17139TIP3    H272909   4.472   0.015   6.489 -1.7223  2.9104 -0.1285
17140TIP3   OH272910   3.615   4.560   3.962  0.1859 -0.0530 -0.1704
17140TIP3    H172911   3.602   4.654   3.953  1.2671  0.0333 -1.0862
17140TIP3    H272912   3.635   4.548   4.055  0.0339  0.6117 -0.0420
17141TIP3   OH272913   3.685   4.431  13.012 -0.2711 -0.1267  0.0740
17141TIP3    H172914   3.739   4.377  13.070 -0.0408  0.3276  0.2798
17141TIP3    H272915   3.742   4.502  12.984 -1.2946  1.5103  1.8988
17142TIP3   OH272916   5.936   3.900  11.271 -0.3483 -0.2489  0.1446
17142TIP3    H172917   5.958   3.977  11.324  2.1374 -0.4629 -0.4508
17142TIP3    H272918   5.918   3.936  11.184 -1.5274 -0.1567  0.4159
17143TIP3   OH272919   2.609   6.783   4.349  0.3083  0.1925 -0.4780
17143TIP3    H172920   2.598   6.720   4.278  0.1981 -2.8594  1.9948
17143TIP3    H272921   2.696   6.764   4.384 -0.6195 -0.2571  1.7607
17144TIP3   OH272922   3.501   2.475  11.464 -0.1002  0.5361  0.0530
17144TIP3    H172923   3.458   2.455  11.381 -1.0002 -0.2846  0.6869
17144TIP3    H272924   3.456   2.553  11.496  0.6746  1.2336 -0.5071
17145TIP3   OH272925   1.835   3.604  10.931 -0.2440 -0.5519 -0.6053
17145TIP3    H172926   1.913   3.659  10.926 -0.0433 -0.9146 -3.3816
17145TIP3    H272927   1.764   3.665  10.951  0.2005  0.5112 -2.1018
17146TIP3   OH272928   2.336   4.489   6.321  0.3727  0.2849 -0.6607
17146TIP3    H172929   2.386   4.447   6.391  0.7502 -0.2179 -1.2125
17146TIP3    H272930   2.392   4.561   6.292  0.3288  0.3414 -0.6023
17147TIP3   OH272931   1.077   5.912   5.598  0.4150 -0.1485  0.3799
17147TIP3    H172932   1.046   5.864   5.521 -0.4281 -1.8599  1.7052
17147TIP3    H272933   1.053   5.856   5.672  0.5621  1.7652  1.9564
17148TIP3   OH272934   1.480   5.740  15.441 -0.5042  0.0453  0.1893
17148TIP3    H172935   1.449   5.660  15.398  0.4773 -0.9135  1.2165
17148TIP3    H272936   1.439   5.739  15.527  1.5057 -0.7102  1.1793
17149TIP3   OH272937   5.941   1.230  17.031 -0.1461 -0.0882  0.3876
17149TIP3    H172938   5.846   1.220  17.039 -0.2738  0.9240  0.2672
17149TIP3    H272939   5.977   1.158  17.084 -0.9715 -0.4287  0.5082
17150TIP3   OH272940   2.358   4.616   4.482 -0.2986 -0.0663  0.2749
17150TIP3    H172941   2.413   4.692   4.501  0.2838 -0.7293  1.2685
17150TIP3    H272942   2.398   4.544   4.529 -1.4939 -0.7698  0.2601
17151TIP3   OH272943   6.319   4.561   1.651 -0.2809 -0.6654  0.0042
17151TIP3    H172944   6.223   4.559   1.645 -0.5125  1.1226  2.0013
17151TIP3    H272945   6.347   4.569   1.560 -2.0000 -1.6389 -0.6639
17152TIP3   OH272946   4.236   4.884  14.274 -0.5523  0.4463 -0.1859
17152TIP3    H172947   4.258   4.943  14.203 -1.7468  1.1854  0.0320
17152TIP3    H272948   4.172   4.932  14.327 -2.1436 -1.3014 -0.4224
17153TIP3   OH272949   6.166   5.747  13.378  0.3027 -0.2108  0.5781
17153TIP3    H172950   6.243   5.690  13.383  1.2276  0.9258 -0.2438
17153TIP3    H272951   6.198   5.826  13.335 -1.3171  0.3187  0.3086
17154TIP3   OH272952   0.157   3.702   6.016 -0.2943  0.3200 -0.5452
17154TIP3    H172953   0.170   3.790   6.052  0.5261  0.0829 -0.2586
17154TIP3    H272954   0.190   3.708   5.926  0.7641  0.0190 -0.1791
17155TIP3   OH272955   3.750   0.135  11.794  0.0393 -0.3422  0.0956
17155TIP3    H172956   3.775   0.098  11.709  1.4163  0.6722  0.0280
17155TIP3    H272957   3.683   0.201  11.772  0.7158  0.2354 -0.2716
17156TIP3   OH272958   5.458   2.568   3.346 -0.5612  0.3911  0.0555
17156TIP3    H172959   5.542   2.541   3.309  0.1274  0.0610  1.7516
17156TIP3    H272960   5.426   2.637   3.288  0.3738 -0.2127 -1.2007
17157TIP3   OH272961   1.527   4.236   2.206  0.2731  0.3939  0.1148
17157TIP3    H172962   1.558   4.183   2.133  0.3200 -0.3123  0.6310
17157TIP3    H272963   1.598   4.297   2.223  1.2466 -0.9290  1.0084
17158TIP3   OH272964   4.013   5.567  11.426  0.1923  0.5656  0.0799
17158TIP3    H172965   4.024   5.659  11.449  1.9693  0.8866 -1.8131
17158TIP3    H272966   4.095   5.525  11.452  0.4789  0.0894 -1.4657
17159TIP3   OH272967   0.524   5.083  16.336 -0.0467 -0.3519 -0.2366
17159TIP3    H172968   0.577   5.155  16.371  0.3273 -0.5074 -0.4822
17159TIP3    H272969   0.586   5.011  16.323 -0.4100 -0.7101 -0.0321
17160TIP3   OH272970   1.759   1.615   0.218  0.2533 -0.2840  0.8306
17160TIP3    H172971   1.699   1.577   0.283 -1.2135  1.1139  0.3540
17160TIP3    H272972   1.832   1.650   0.270 -1.4588  1.8896  1.9585
17161TIP3   OH272973   0.457   3.629  17.196  0.1624 -0.1901 -0.1350
17161TIP3    H172974   0.523   3.589  17.139  0.2060 -0.5706  0.1775
17161TIP3    H272975   0.402   3.681  17.137  1.2760  0.8669 -0.2832
17162TIP3   OH272976   5.695   5.279   3.555 -0.3809 -0.1399  0.3779
17162TIP3    H172977   5.655   5.352   3.508  0.4140 -0.6635 -1.1776
17162TIP3    H272978   5.640   5.267   3.632 -2.3082  0.1387 -0.8987
17163TIP3   OH272979   5.295   1.794  11.870  0.2277  0.4449 -0.0162
17163TIP3    H172980   5.232   1.866  11.873  0.9711  1.1189 -0.2981
17163TIP3    H272981   5.373   1.829  11.913  0.5040 -0.2962  0.0988
17164TIP3   OH272982   6.013   0.558  15.653  0.4271  0.4595  0.7255
17164TIP3    H172983   5.994   0.641  15.611 -0.4122  0.5208  1.2162
17164TIP3    H272984   6.030   0.498  15.580 -0.1729  0.7665  0.3269
17165TIP3   OH272985   6.598   4.147   6.245 -0.0877  0.1009 -0.0337
17165TIP3    H172986   6.585   4.086   6.317  1.4213 -0.0664  0.1332
17165TIP3    H272987   6.517   4.197   6.241  0.3745  1.2832  2.8941
17166TIP3   OH272988   1.097   6.692   3.203  0.5584  0.2122 -0.2453
17166TIP3    H172989   1.146   6.735   3.273  0.4516  0.2845 -0.2144
17166TIP3    H272990   1.051   6.763   3.159  0.5224  0.1511 -0.3061
17167TIP3   OH272991   3.218   4.674  14.397 -0.3157  0.2220 -0.6174
17167TIP3    H172992   3.149   4.718  14.447 -0.4388  0.4290 -0.9649
17167TIP3    H272993   3.173   4.636  14.322 -0.3386 -1.1874  0.0766
17168TIP3   OH272994   6.451   6.566   0.236  0.6680 -0.2856 -0.8173
17168TIP3    H172995   6.381   6.503   0.222 -0.1458  0.5064 -0.4384
17168TIP3    H272996   6.432   6.604   0.322  0.7887  0.8867 -1.2879
17169TIP3   OH272997   4.751   2.841  13.949 -0.0458 -0.1392  0.6043
17169TIP3    H172998   4.660   2.869  13.959 -0.4437 -0.7685 -0.9349
17169TIP3    H272999   4.776   2.808  14.035 -1.7415 -1.2284  0.7341
17170TIP3   OH273000   2.430   0.903  15.574 -0.1177 -0.1949 -0.5477
17170TIP3    H173001   2.482   0.867  15.646 -0.7972  0.3075  0.2073
17170TIP3    H273002   2.482   0.976  15.541  0.1491 -0.3559 -0.4852
17171TIP3   OH273003   0.450   2.416   5.289 -0.1727 -0.7524  0.4119
17171TIP3    H173004   0.392   2.488   5.262  0.5711 -0.1495  0.3917
17171TIP3    H273005   0.474   2.373   5.207 -0.1740 -0.6742  0.3692
17172TIP3   OH273006   6.788   1.388  13.325  0.1316 -0.3349  0.6924
17172TIP3    H173007   6.828   1.309  13.361  0.4288 -0.8470 -0.7148
17172TIP3    H273008   6.704   1.359  13.290 -0.5624  0.3313  1.7377
17173TIP3   OH273009   3.608   5.966   2.330 -0.5310 -0.1303 -0.2899
17173TIP3    H173010   3.653   5.948   2.413 -0.3582  1.6583  0.0667
17173TIP3    H273011   3.671   6.021   2.281 -2.0326  1.9522 -0.0202
17174TIP3   OH273012   2.886   3.602   2.946  0.1423 -0.1707 -0.5175
17174TIP3    H173013   2.918   3.692   2.940 -0.3868 -0.0505 -1.7426
17174TIP3    H273014   2.941   3.562   3.013 -0.0789  1.2580  0.5728
17175TIP3   OH273015   5.274   6.353  12.656  0.4050 -0.7818 -0.4705
17175TIP3    H173016   5.281   6.445  12.631 -1.1086 -0.6949 -0.6743
17175TIP3    H273017   5.364   6.326  12.674  0.7916  0.9839  0.4931
17176TIP3   OH273018   3.350   4.939  14.848  0.0267  0.6576 -0.1858
17176TIP3    H173019   3.259   4.966  14.860 -0.3814 -0.0636 -1.4306
17176TIP3    H273020   3.399   4.986  14.915 -1.6706 -1.3418  2.6267
17177TIP3   OH273021   5.445   0.286  15.105 -0.4227  0.0662 -0.2130
17177TIP3    H173022   5.435   0.375  15.139 -4.2961 -0.5322  0.7631
17177TIP3    H273023   5.434   0.296  15.010 -1.1537  0.6211 -0.0807
17178TIP3   OH273024   1.247   2.107   4.926  0.5606  0.3933 -0.4537
17178TIP3    H173025   1.186   2.146   4.989  0.7486  1.2137 -0.7716
17178TIP3    H273026   1.236   2.012   4.938  0.0826  0.5360  0.3122
17179TIP3   OH273027   1.640   4.529  12.098  0.8463 -0.3766 -0.1406
17179TIP3    H173028   1.615   4.509  12.008 -1.5791  1.3771  0.0560
17179TIP3    H273029   1.572   4.489  12.151  2.2183 -1.3386  0.9776
17180TIP3   OH273030   2.015   3.111   2.646  0.0816 -0.3681 -0.3131
17180TIP3    H173031   1.993   3.153   2.563  1.9298  0.0843 -0.6265
17180TIP3    H273032   2.087   3.052   2.624 -0.1029 -1.0201  0.7919
17181TIP3   OH273033   4.921   0.274   3.989  0.6318  0.3193  0.2244
17181TIP3    H173034   4.862   0.318   3.928  1.4054 -0.2253 -0.9628
17181TIP3    H273035   4.923   0.331   4.066  0.2739  1.4670 -0.5851
17182TIP3   OH273036   4.527   0.511  16.416  0.5389  0.3152 -0.0912
17182TIP3    H173037   4.609   0.561  16.418  0.4832  0.3788  0.7280
17182TIP3    H273038   4.530   0.464  16.332  1.3347  0.4448 -0.1433
17183TIP3   OH273039   3.408   3.158   3.935  0.2646  0.0190 -0.2829
17183TIP3    H173040   3.503   3.153   3.946  0.0642 -0.3009  1.5702
17183TIP3    H273041   3.384   3.242   3.975 -0.3661 -0.4656  0.3725
17184TIP3   OH273042   0.449   2.968  13.323 -0.5996  0.1871  0.3875
17184TIP3    H173043   0.447   3.053  13.368  0.9922 -0.6303  2.1700
17184TIP3    H273044   0.543   2.949  13.314 -0.9238 -0.9087 -0.9262
17185TIP3   OH273045   3.791   5.136   3.761 -0.2903  0.2706  0.2855
17185TIP3    H173046   3.821   5.226   3.747  0.2997  0.4621  2.3419
17185TIP3    H273047   3.769   5.133   3.854 -0.2072 -1.7418  0.2776
17186TIP3   OH273048   4.081   4.039   2.972 -0.1763 -0.4420 -0.3131
17186TIP3    H173049   4.131   3.957   2.969 -0.0361 -0.4055  0.6463
17186TIP3    H273050   4.064   4.060   2.880  1.9962 -0.1846 -0.7038
17187TIP3   OH273051   6.411   1.500   1.855  0.1644 -0.2715 -0.3172
17187TIP3    H173052   6.417   1.537   1.768  1.0234  0.4893  0.0500
17187TIP3    H273053   6.319   1.508   1.879  0.3696  2.0699 -0.0825
17188TIP3   OH273054   0.213   3.338  15.535 -0.2746 -0.2898  0.3144
17188TIP3    H173055   0.206   3.413  15.593 -0.0892 -1.3834  1.8126
17188TIP3    H273056   0.276   3.365  15.468 -0.1934  0.8669  0.8447
17189TIP3   OH273057   0.846   1.077  15.549 -0.5813 -0.3152 -0.5522
17189TIP3    H173058   0.920   1.136  15.529 -0.3423 -1.1093 -2.2053
17189TIP3    H273059   0.838   1.080  15.644  1.2705  0.1726 -0.3708
17190TIP3   OH273060   2.196   5.497  12.182  0.4185 -0.4204 -0.0042
17190TIP3    H173061   2.265   5.432  12.191  0.6972 -0.2038 -0.5542
17190TIP3    H273062   2.229   5.560  12.117  1.2381  1.7012  2.3055
17191TIP3   OH273063   3.995   6.504   4.372  0.0601 -0.1883  0.1683
17191TIP3    H173064   4.053   6.429   4.357  1.5087  0.0887  3.5053
17191TIP3    H273065   3.920   6.489   4.314  0.8347 -3.5676 -0.1308
17192TIP3   OH273066   2.301   3.362  11.505 -0.1429 -0.2272 -0.7523
17192TIP3    H173067   2.383   3.340  11.461  0.4916  0.5750 -0.0203
17192TIP3    H273068   2.301   3.308  11.584 -0.3484 -0.2739 -0.7848
17193TIP3   OH273069   3.442   0.908  13.263  0.6802 -0.1269  0.2136
17193TIP3    H173070   3.450   0.831  13.320  2.8055  0.5216  0.8822
17193TIP3    H273071   3.502   0.972  13.301 -1.9309  2.3741  0.3966
17194TIP3   OH273072   0.420   0.413   1.461  0.2591 -0.4699  0.0898
17194TIP3    H173073   0.377   0.346   1.515  1.1117 -1.6687 -0.6432
17194TIP3    H273074   0.435   0.369   1.378  0.4606  0.8067 -0.5642
17195TIP3   OH273075   6.735   3.998  13.447  0.1938  0.0932  0.2277
17195TIP3    H173076   6.709   4.089  13.438 -0.4109  0.1938  2.3805
17195TIP3    H273077   6.737   3.983  13.542  1.6217 -1.7519 -0.0324
17196TIP3   OH273078   0.964   5.009   2.668 -0.3556  0.1280  0.3797
17196TIP3    H173079   0.869   5.004   2.677 -0.3459  0.3311  0.6131
17196TIP3    H273080   0.995   4.918   2.676 -0.4901  0.1152  0.7784
17197TIP3   OH273081   6.391   5.730   4.042 -0.1824  0.0375  0.6749
17197TIP3    H173082   6.463   5.794   4.046 -1.2215  1.2656  0.5286
17197TIP3    H273083   6.333   5.754   4.114 -1.2159  0.0704 -0.1335
17198TIP3   OH273084   2.948   2.594   0.389 -0.6267  0.0799 -0.0142
17198TIP3    H173085   3.030   2.556   0.355 -0.9114 -1.0548  0.5172
17198TIP3    H273086   2.955   2.584   0.484 -0.5745  1.7046  0.1759
17199TIP3   OH273087   6.060   4.765   4.731  0.2804 -0.0261  0.4899
17199TIP3    H173088   6.114   4.707   4.784 -0.2055 -0.3606  0.6279
17199TIP3    H273089   5.992   4.708   4.695  0.4485  0.2470 -0.2756
17200TIP3   OH273090   5.175   0.630  14.049  0.1255 -0.5496  0.5835
17200TIP3    H173091   5.183   0.588  13.963 -0.4621 -0.4052  0.4528
17200TIP3    H273092   5.083   0.620  14.072 -0.1880  1.1817  0.2631
17201TIP3   OH273093   0.015   1.055  16.436 -0.4074  0.1127  0.3602
17201TIP3    H173094  -0.016   1.056  16.345 -0.1240 -2.1641  0.1576
17201TIP3    H273095   0.102   1.094  16.432  0.2198 -1.2826 -0.6834
17202TIP3   OH273096   4.301   6.481  13.827 -0.0468  0.0840 -0.0939
17202TIP3    H173097   4.276   6.528  13.906 -0.8003 -2.0244  1.0148
17202TIP3    H273098   4.394   6.463  13.838  0.0692  0.6339 -0.1629
17203TIP3   OH273099   0.952   5.748  16.509 -0.0922  0.8085 -0.1908
17203TIP3    H173100   0.917   5.686  16.445 -0.7458  1.2833 -0.3027
17203TIP3    H273101   0.905   5.727  16.590 -0.6877  1.4808 -0.3529
17204TIP3   OH273102   1.786   1.389   2.525  0.2725  0.2554 -0.0794
17204TIP3    H173103   1.795   1.303   2.483 -0.6237 -0.8160  1.7838
17204TIP3    H273104   1.768   1.449   2.452 -0.6528 -1.4018 -1.2973
17205TIP3   OH273105   0.511   1.800   2.280 -0.0112 -0.2803  0.4874
17205TIP3    H173106   0.454   1.751   2.340  0.1981 -2.7421 -1.1956
17205TIP3    H273107   0.543   1.735   2.218  0.6356  1.9429 -1.6853
17206TIP3   OH273108   3.842   2.236   2.232 -0.2950  0.7059 -0.2437
17206TIP3    H173109   3.923   2.249   2.183 -0.0415 -0.1279 -0.0677
17206TIP3    H273110   3.863   2.263   2.321  1.2888 -3.6434  0.9797
17207TIP3   OH273111   6.496   4.961  12.932 -0.2769 -0.8915 -0.4138
17207TIP3    H173112   6.555   4.911  12.875  0.1765  0.7858 -1.4946
17207TIP3    H273113   6.547   5.038  12.958 -0.8822 -1.0386  1.3483
17208TIP3   OH273114   0.774   5.489  16.108 -0.1702  0.5647  0.3987
17208TIP3    H173115   0.756   5.541  16.030  0.8657  0.7044  0.2295
17208TIP3    H273116   0.845   5.536  16.153 -1.3587  0.9946  1.9349
17209TIP3   OH273117   4.324   6.032   2.262  0.6921  1.0057  0.0325
17209TIP3    H173118   4.296   6.060   2.349 -0.0699 -2.3495  0.9967
17209TIP3    H273119   4.321   5.936   2.265  4.2040  0.6311 -2.5603
17210TIP3   OH273120   3.225   4.061  13.190  0.4082 -0.0413 -0.8966
17210TIP3    H173121   3.143   4.081  13.144  0.0981  0.0406 -0.3206
17210TIP3    H273122   3.291   4.060  13.122 -0.0061  0.3229 -1.3123
17211TIP3   OH273123   0.850   0.418  16.095  0.2790 -1.1359 -0.3598
17211TIP3    H173124   0.764   0.391  16.062 -0.8375  1.0178  0.5865
17211TIP3    H273125   0.911   0.393  16.026 -1.1733 -2.0846 -1.3769
17212TIP3   OH273126   2.081   2.000  14.344 -0.3233 -0.3279  0.1758
17212TIP3    H173127   2.052   2.037  14.427  1.2507  0.9274  0.2138
17212TIP3    H273128   2.013   2.025  14.281 -0.3773  0.7530  0.6390
17213TIP3   OH273129   3.314   0.766   6.317 -0.0111 -0.6500  0.3560
17213TIP3    H173130   3.382   0.700   6.330  1.1990  0.0976 -1.7429
17213TIP3    H273131   3.355   0.849   6.344 -1.5254 -0.6323  3.0185
17214TIP3   OH273132   4.706   2.073  15.273  0.3522  0.0447 -0.1724
17214TIP3    H173133   4.623   2.115  15.251  0.1843  0.1702  0.6412
17214TIP3    H273134   4.758   2.142  15.314 -0.6087 -0.8748  2.8829
17215TIP3   OH273135   4.502   3.082  12.633  0.2560  0.1434  0.5850
17215TIP3    H173136   4.471   2.994  12.654 -1.6960  1.0692  1.9622
17215TIP3    H273137   4.594   3.071  12.610  0.2704 -2.1349  1.5046
17216TIP3   OH273138   6.292   6.208  11.614 -0.1935 -0.2172  0.2663
17216TIP3    H173139   6.217   6.158  11.582  0.0672 -0.0784 -0.5912
17216TIP3    H273140   6.323   6.257  11.537  0.4785  0.0991  0.7253
17217TIP3   OH273141   1.354   4.669   6.015 -0.6420 -0.0575  0.0859
17217TIP3    H173142   1.425   4.714   6.061 -0.5749  1.5897 -1.4730
17217TIP3    H273143   1.393   4.641   5.932 -1.6739  0.5535 -0.6421
17218TIP3   OH273144   3.108   0.771   0.174 -0.3552 -0.2665  0.4309
17218TIP3    H173145   3.033   0.714   0.162 -0.2451 -0.1377 -1.0240
17218TIP3    H273146   3.072   0.860   0.171 -0.1118 -0.1886 -0.7780
17219TIP3   OH273147   5.380   3.670  15.775 -0.3067 -0.3545  0.1488
17219TIP3    H173148   5.292   3.664  15.738 -0.1702  0.6268 -0.3593
17219TIP3    H273149   5.387   3.594  15.834 -0.9620 -1.2493 -0.9001
17220TIP3   OH273150   1.757   0.539   4.094 -0.5435 -0.2931  0.3211
17220TIP3    H173151   1.825   0.601   4.122 -1.0797  0.1890  0.5668
17220TIP3    H273152   1.693   0.593   4.049 -0.9577 -0.6934  0.4242
17221TIP3   OH273153   0.553   5.168   6.230 -0.7407 -0.4458 -0.8613
17221TIP3    H173154   0.459   5.166   6.247 -0.3406 -0.1109  1.6720
17221TIP3    H273155   0.576   5.261   6.231 -0.0500 -0.6086  0.7967
17222TIP3   OH273156   3.457   1.833  16.684  0.9386  0.5285  0.3037
17222TIP3    H173157   3.535   1.778  16.679  0.5110 -0.0873  0.2544
17222TIP3    H273158   3.384   1.771  16.689  0.2579  1.0298 -2.0179
17223TIP3   OH273159   3.813   4.865   4.476 -0.3100 -0.1339  0.3977
17223TIP3    H173160   3.888   4.923   4.466  0.8142 -1.5905 -0.0085
17223TIP3    H273161   3.756   4.910   4.539  0.6421  1.2451  0.3218
17224TIP3   OH273162   5.994   1.075  13.938  0.0065 -0.1637  0.5599
17224TIP3    H173163   5.953   0.997  13.976  1.0186 -1.5066 -0.9701
17224TIP3    H273164   6.080   1.079  13.979  0.3018 -0.3957 -0.0295
17225TIP3   OH273165   4.686   4.116   2.457 -0.0910  0.3135  0.3055
17225TIP3    H173166   4.678   4.043   2.518 -0.1914 -0.5675 -0.7383
17225TIP3    H273167   4.698   4.193   2.513 -5.8645  0.5197  1.8801
17226TIP3   OH273168   5.466   0.794  11.438  0.4833  0.0436  0.0145
17226TIP3    H173169   5.505   0.879  11.418  3.0547 -1.0545  0.0307
17226TIP3    H273170   5.447   0.756  11.352 -1.3475  0.8274  0.0036
17227TIP3   OH273171   4.743   0.276   4.959  0.7225 -0.1032 -0.1355
17227TIP3    H173172   4.757   0.262   4.865  0.7091  1.2491 -0.3615
17227TIP3    H273173   4.763   0.369   4.973 -0.8935  0.1361  0.8802
17228TIP3   OH273174   4.932   6.174   5.560  0.9568 -0.2668 -0.4565
17228TIP3    H173175   4.852   6.226   5.558 -0.3763 -2.0252  1.7732
17228TIP3    H273176   4.972   6.194   5.645  1.1213 -1.7873 -0.1374
17229TIP3   OH273177   2.999   0.680  12.008  0.1026 -0.5356 -0.2249
17229TIP3    H173178   3.058   0.626  12.060  0.5824  0.2139  0.0352
17229TIP3    H273179   2.913   0.668  12.048  0.3696 -0.3986  0.4101
17230TIP3   OH273180   0.192   5.118  14.775 -0.4305 -0.0929 -0.1360
17230TIP3    H173181   0.154   5.065  14.706 -1.0499  1.8736 -1.3748
17230TIP3    H273182   0.128   5.116  14.846 -0.7954 -0.3493 -0.4738
17231TIP3   OH273183   3.903   0.292  13.042 -0.0430  0.8476  0.1889
17231TIP3    H173184   3.942   0.351  13.107 -0.3658 -1.0295  2.2270
17231TIP3    H273185   3.959   0.214  13.044 -0.4918  0.4551 -1.2984
17232TIP3   OH273186   6.328   3.538  10.759  0.0266  0.1995  0.4501
17232TIP3    H173187   6.282   3.546  10.676  1.1460 -3.6217 -0.7047
17232TIP3    H273188   6.419   3.560  10.739  0.6345 -2.3222  0.1535
17233TIP3   OH273189   2.349   5.723   5.371  0.2734 -0.4245 -0.0627
17233TIP3    H173190   2.363   5.630   5.353  0.6246 -0.4494  0.3091
17233TIP3    H273191   2.423   5.747   5.427  0.5245  0.2330 -0.6776
17234TIP3   OH273192   5.867   5.798  13.766 -0.5375 -0.6323  0.1079
17234TIP3    H173193   5.912   5.862  13.821 -1.1470 -0.0120 -0.1063
17234TIP3    H273194   5.927   5.724  13.763 -1.4497 -1.6734  3.4838
17235TIP3   OH273195   4.088   1.178   5.202 -0.2219 -0.6875 -0.1687
17235TIP3    H173196   4.170   1.217   5.175  0.3382 -1.6330  0.1119
17235TIP3    H273197   4.102   1.152   5.293 -0.2398 -2.3132 -0.5861
17236TIP3   OH273198   0.035   4.609   1.609  0.2683  0.1044 -0.2459
17236TIP3    H173199   0.071   4.594   1.522 -0.9850  0.8505 -0.9215
17236TIP3    H273200   0.087   4.682   1.644 -0.7193  1.3907 -1.3410
17237TIP3   OH273201   0.608   2.774  14.554 -0.2722  0.0696 -0.0535
17237TIP3    H173202   0.615   2.868  14.539 -0.5925 -0.0246 -0.8435
17237TIP3    H273203   0.692   2.750  14.594  0.2269  0.5152 -0.8126
17238TIP3   OH273204   3.699   0.819  13.163  0.5494 -0.9254  0.5471
17238TIP3    H173205   3.697   0.732  13.123 -1.5319 -0.0252 -1.4960
17238TIP3    H273206   3.608   0.838  13.186  1.1193  0.2986  1.9906
17239TIP3   OH273207   6.516   2.349  13.380 -0.7594  0.2565  0.0832
17239TIP3    H173208   6.512   2.359  13.475 -0.5649 -0.0820  0.1254
17239TIP3    H273209   6.602   2.311  13.363 -0.0740  1.9111 -0.3612
17240TIP3   OH273210   3.454   6.388   0.286  0.3465 -0.5444 -0.5460
17240TIP3    H173211   3.360   6.407   0.288  0.3899 -0.3438 -0.3504
17240TIP3    H273212   3.495   6.474   0.276  0.5696 -0.4680  0.8098
17241TIP3   OH273213   1.444   0.238   3.960  0.9228  0.0885  0.3946
17241TIP3    H173214   1.369   0.187   3.931  0.3935  0.3571  1.2360
17241TIP3    H273215   1.519   0.199   3.917  0.1540  0.6855 -1.5915
17242TIP3   OH273216   1.032   5.879   4.584 -0.4669 -0.7697 -0.1498
17242TIP3    H173217   1.041   5.848   4.494 -0.9761 -1.3281 -0.0136
17242TIP3    H273218   1.069   5.809   4.638 -0.1124 -0.4135  0.0724
17243TIP3   OH273219   1.577   3.435   5.908  0.0389 -0.3120 -0.2438
17243TIP3    H173220   1.540   3.359   5.862 -0.1206 -0.2609 -0.2004
17243TIP3    H273221   1.599   3.402   5.995  0.1712 -0.3631 -0.2970
17244TIP3   OH273222   0.987   3.357  14.336  0.0793 -0.4745  0.3429
17244TIP3    H173223   0.940   3.420  14.281  0.0400 -1.1443 -0.4096
17244TIP3    H273224   1.011   3.286  14.276  0.6320 -0.9031  1.0560
17245TIP3   OH273225   1.200   1.912  16.504  0.5063  0.0710 -0.2934
17245TIP3    H173226   1.220   1.819  16.489  1.0946 -0.0225  0.9894
17245TIP3    H273227   1.229   1.956  16.424  0.7202 -0.7805 -0.6977
17246TIP3   OH273228   5.265   6.346   4.043  0.6970  0.4920  0.0304
17246TIP3    H173229   5.296   6.295   4.117  0.3758 -0.7685 -0.6830
17246TIP3    H273230   5.273   6.437   4.072 -0.4741  0.0231  2.0161
17247TIP3   OH273231   4.070   6.020  12.936 -0.2340 -0.1184 -0.1787
17247TIP3    H173232   4.079   6.057  12.848  0.5684  0.4086  0.1142
17247TIP3    H273233   4.131   6.071  12.990 -0.1250 -0.9579  0.5161
17248TIP3   OH273234   1.475   2.262   3.382 -0.3133 -0.2821  0.0652
17248TIP3    H173235   1.454   2.335   3.441 -1.5300 -1.2367  0.8607
17248TIP3    H273236   1.561   2.231   3.411  0.5109  1.2044 -0.6827
17249TIP3   OH273237   1.721   2.682  12.425  0.6041 -0.0260 -0.2014
17249TIP3    H173238   1.776   2.604  12.420  1.3415  0.3780  1.1684
17249TIP3    H273239   1.759   2.734  12.496  0.8074  2.1428 -1.8080
17250TIP3   OH273240   3.964   3.540   5.841  0.3055  0.2718 -0.5848
17250TIP3    H173241   3.899   3.539   5.912  0.7404 -1.5154 -0.1521
17250TIP3    H273242   4.031   3.601   5.871  1.1457 -1.4240  1.2544
17251TIP3   OH273243   5.695   2.198   5.408  0.6502 -0.4703  0.1411
17251TIP3    H173244   5.747   2.174   5.485 -1.0841 -0.0615  1.4929
17251TIP3    H273245   5.605   2.179   5.433  0.0305 -0.2836 -1.7976
17252TIP3   OH273246   5.243   5.468   2.784 -0.3232  0.1495  0.4628
17252TIP3    H173247   5.243   5.556   2.820 -0.1496  0.2309  0.2661
17252TIP3    H273248   5.293   5.475   2.703 -0.2065 -0.1545  0.5082
17253TIP3   OH273249   0.265   3.639   6.435  0.4077 -0.6332  0.7642
17253TIP3    H173250   0.345   3.609   6.392  0.0381 -0.9070  0.2680
17253TIP3    H273251   0.296   3.678   6.517  0.8831 -2.7252  1.6589
17254TIP3   OH273252   1.251   6.307   0.055 -0.4911 -0.5252  0.3525
17254TIP3    H173253   1.255   6.282   0.147  0.6818 -0.1423  0.4167
17254TIP3    H273254   1.327   6.363   0.042 -0.4474 -0.8706 -0.9488
17255TIP3   OH273255   1.936   4.185   1.511  0.4624 -0.0485 -1.5303
17255TIP3    H173256   1.853   4.148   1.538  1.0034 -0.1266  0.1522
17255TIP3    H273257   1.913   4.254   1.449 -0.9865  0.9569  0.0337
17256TIP3   OH273258   5.306   4.519  10.494  0.2322 -0.0277 -0.3390
17256TIP3    H173259   5.314   4.433  10.535  1.8418 -0.2475 -1.0624
17256TIP3    H273260   5.395   4.542  10.466 -0.2412  1.6527 -0.6119
17257TIP3   OH273261   6.818   3.698   4.609  0.0819  0.2746 -0.2833
17257TIP3    H173262   6.847   3.788   4.620 -0.6965  0.7571 -1.8946
17257TIP3    H273263   6.726   3.698   4.634  0.2383 -0.2277  0.3233
17258TIP3   OH273264   5.740   4.967  11.282 -0.6909  0.7456  0.3581
17258TIP3    H173265   5.689   4.891  11.254 -0.1865 -0.0412  1.5018
17258TIP3    H273266   5.785   4.938  11.361  2.7764  0.8736 -1.3717
17259TIP3   OH273267   1.812   4.736  10.759  0.4915 -0.0804 -0.2713
17259TIP3    H173268   1.792   4.730  10.665  0.7883 -0.5305 -0.3040
17259TIP3    H273269   1.726   4.741  10.801  0.2410 -2.5864 -0.3756
17260TIP3   OH273270   3.139   2.556   6.351  0.3334 -0.1271  0.1157
17260TIP3    H173271   3.070   2.533   6.413 -0.0717 -2.3692 -1.0923
17260TIP3    H273272   3.101   2.541   6.265  2.3795 -1.8321 -0.5902
17261TIP3   OH273273   0.204   2.531  13.139  0.3179 -0.2670 -0.8380
17261TIP3    H173274   0.220   2.576  13.222 -2.3774  0.7889 -0.7866
17261TIP3    H273275   0.223   2.596  13.071  5.0388 -1.8653 -1.3916
17262TIP3   OH273276   3.157   2.495   0.902  0.7629 -0.1684 -0.1509
17262TIP3    H173277   3.153   2.407   0.864 -0.7659 -0.6284  1.0269
17262TIP3    H273278   3.116   2.487   0.988  0.4346  1.7364 -0.0849
17263TIP3   OH273279   3.736   5.034   0.410  0.1355 -0.1293  0.0867
17263TIP3    H173280   3.786   5.024   0.490 -1.6612 -1.9079  1.0795
17263TIP3    H273281   3.775   4.971   0.349 -0.5607 -1.2225  0.7264
17264TIP3   OH273282   6.693   0.910  13.149  0.5840 -0.5165  0.4296
17264TIP3    H173283   6.662   0.851  13.218  0.5011 -0.4517  0.4477
17264TIP3    H273284   6.787   0.917  13.165  0.7845 -1.5065 -0.2301
17265TIP3   OH273285   2.514   6.405   0.681  0.0271  0.2062  0.6505
17265TIP3    H173286   2.456   6.375   0.751 -1.1168  0.0678 -0.3290
17265TIP3    H273287   2.510   6.500   0.685  0.3927  0.2072  1.1077
17266TIP3   OH273288   4.880   0.262  12.240  0.1606  0.6225 -0.1953
17266TIP3    H173289   4.835   0.276  12.323  0.3269 -1.0938  0.2228
17266TIP3    H273290   4.853   0.336  12.186 -1.4574  0.7937  0.7647
17267TIP3   OH273291   2.504   6.784   0.416 -0.1656 -0.5935 -0.5260
17267TIP3    H173292   2.447   6.772   0.492  1.2706  3.4870  1.5221
17267TIP3    H273293   2.507   6.879   0.404  2.1577 -0.9337 -3.7971
17268TIP3   OH273294   2.668   4.154  16.619 -0.5421  0.7558  0.2679
17268TIP3    H173295   2.682   4.060  16.627 -1.1437  0.5758 -0.6140
17268TIP3    H273296   2.574   4.165  16.629 -0.6120  1.1318 -0.6909
17269TIP3   OH273297   5.241   5.037   4.493  0.6052  0.0531 -0.2422
17269TIP3    H173298   5.286   5.060   4.412 -0.5772  0.7106 -0.7313
17269TIP3    H273299   5.304   5.058   4.562  1.3291  0.2209 -0.9394
17270TIP3   OH273300   2.918   5.059  16.293  0.5646  0.2875  0.0367
17270TIP3    H173301   2.932   5.113  16.216  0.0819  1.0815  0.4975
17270TIP3    H273302   2.994   5.001  16.296 -0.1978 -0.9082 -1.9696
17271TIP3   OH273303   2.039   1.197   4.514 -0.3130 -0.0198 -0.2271
17271TIP3    H173304   1.945   1.216   4.514 -0.3180 -0.0442 -0.0603
17271TIP3    H273305   2.051   1.133   4.584  0.0914  1.3011  0.9583
17272TIP3   OH273306   3.889   3.706   1.749 -0.1717  0.2843  0.1151
17272TIP3    H173307   3.918   3.699   1.840 -0.5410 -0.7049  0.1654
17272TIP3    H273308   3.795   3.720   1.755  0.0772  2.3178 -0.0820
17273TIP3   OH273309   3.286   1.635   0.378  0.2687  0.0087  0.0156
17273TIP3    H173310   3.371   1.590   0.374  1.0213  1.3886 -0.3071
17273TIP3    H273311   3.300   1.716   0.330 -1.5914 -0.2512 -1.0398
17274TIP3   OH273312   2.553   4.117   2.385  0.7640  0.2315 -0.2567
17274TIP3    H173313   2.527   4.144   2.297 -1.6982  1.4368  0.7448
17274TIP3    H273314   2.634   4.166   2.402  0.2851  1.3938 -1.2033
17275TIP3   OH273315   5.826   2.661  13.010  0.0005  0.2663 -0.2371
17275TIP3    H173316   5.870   2.727  13.064  0.8186 -0.1085 -0.4300
17275TIP3    H273317   5.887   2.645  12.938  0.0150 -1.0411  0.0546
17276TIP3   OH273318   5.058   1.280  14.305 -0.2808  0.1858 -0.0775
17276TIP3    H173319   5.069   1.234  14.389 -0.1566  0.5093  0.0847
17276TIP3    H273320   5.114   1.232  14.244  1.0859  1.0521  0.4496
17277TIP3   OH273321   0.366   5.440   2.473  0.7712 -0.3981  0.4431
17277TIP3    H173322   0.272   5.454   2.458  0.7014  1.9241  2.4865
17277TIP3    H273323   0.386   5.362   2.421 -1.6057  0.6996 -2.4596
17278TIP3   OH273324   0.892   4.302   1.968  0.4507 -0.2833  0.1779
17278TIP3    H173325   0.912   4.226   2.023 -0.0930 -0.8230 -0.3555
17278TIP3    H273326   0.957   4.367   1.994  1.8235 -1.4044 -0.3273
17279TIP3   OH273327   5.865   0.132   2.464  0.3228  0.2639 -0.1717
17279TIP3    H173328   5.798   0.175   2.517  1.2968  0.9368  0.5619
17279TIP3    H273329   5.896   0.060   2.520  0.2491 -0.0116 -0.4855
17280TIP3   OH273330   5.311   4.736  16.335  0.7379 -0.7223  0.3692
17280TIP3    H173331   5.309   4.832  16.328 -1.2463 -0.5708  2.0173
17280TIP3    H273332   5.233   4.707  16.287 -0.4306 -1.2032  2.4111
17281TIP3   OH273333   4.620   1.755  11.933  0.0907 -0.7307  0.2037
17281TIP3    H173334   4.671   1.752  12.013  0.8736  1.8295 -0.1191
17281TIP3    H273335   4.549   1.816  11.951 -0.4473 -1.0689 -0.6757
17282TIP3   OH273336   0.645   5.483   2.506  0.2033 -0.0833 -0.1585
17282TIP3    H173337   0.647   5.569   2.465 -1.1158  0.4714  0.8722
17282TIP3    H273338   0.552   5.465   2.519  0.3980 -1.9881 -0.9696
17283TIP3   OH273339   4.156   6.566   3.381 -0.6058 -0.7135  0.0586
17283TIP3    H173340   4.069   6.601   3.368 -0.2640  0.1216 -0.0379
17283TIP3    H273341   4.146   6.471   3.371 -1.4572 -0.6073 -0.1376
17284TIP3   OH273342   0.549   2.420   1.605  0.2923  0.1445 -0.3869
17284TIP3    H173343   0.597   2.357   1.551  1.6107  1.4111 -0.7693
17284TIP3    H273344   0.566   2.504   1.564 -1.6765  0.7475 -0.0544
17285TIP3   OH273345   6.309   1.498  13.796 -0.2846 -0.1424  0.1211
17285TIP3    H173346   6.389   1.497  13.743  0.9271 -0.5863  1.8412
17285TIP3    H273347   6.330   1.442  13.871 -1.0960  2.0972  2.1660
17286TIP3   OH273348   6.641   4.918  16.393 -0.5024 -0.5145  0.7786
17286TIP3    H173349   6.601   4.831  16.389 -1.2970 -0.1123 -1.0408
17286TIP3    H273350   6.655   4.942  16.302  0.0157  1.1390  1.2619
17287TIP3   OH273351   1.845   4.502  15.756 -0.5315  0.2543 -0.3506
17287TIP3    H173352   1.751   4.507  15.774 -0.3212  0.2411  0.8629
17287TIP3    H273353   1.858   4.415  15.718 -0.9730  0.1608 -0.2923
17288TIP3   OH273354   5.616   3.611   4.266 -0.1487  0.0798  0.4035
17288TIP3    H173355   5.679   3.636   4.334 -1.0675 -0.7778  1.6065
17288TIP3    H273356   5.594   3.520   4.286 -1.1355  0.1047 -0.4912
17289TIP3   OH273357   6.496   4.604  14.525  0.2759  0.0888  0.1826
17289TIP3    H173358   6.426   4.621  14.588  0.7612  1.2585  0.4277
17289TIP3    H273359   6.498   4.681  14.469  0.4011 -0.5748 -0.7702
17290TIP3   OH273360   6.818   0.387  16.467  0.4442 -0.3244  0.8068
17290TIP3    H173361   6.736   0.380  16.419  0.3454 -0.2921  0.9693
17290TIP3    H273362   6.870   0.313  16.437  0.7125  0.1781  0.0191
17291TIP3   OH273363   6.585   4.799   0.404 -0.1173  0.1256  0.0478
17291TIP3    H173364   6.563   4.766   0.491 -0.5412  0.4150  0.0527
17291TIP3    H273365   6.633   4.728   0.362 -1.3982 -0.6662 -0.1102
17292TIP3   OH273366   0.010   1.334   1.202  0.8823 -0.2587 -0.7912
17292TIP3    H173367   0.027   1.364   1.113 -0.9168 -0.2213 -1.1786
17292TIP3    H273368  -0.049   1.259   1.190 -1.5957  1.3536  0.3855
17293TIP3   OH273369   3.729   6.282   1.898  0.4600  0.0746  0.3701
17293TIP3    H173370   3.779   6.243   1.970 -0.2314 -0.5689  0.5161
17293TIP3    H273371   3.638   6.279   1.928 -0.0407 -1.5857 -1.1134
17294TIP3   OH273372   5.971   2.612  16.431  0.4583  0.3576 -0.4804
17294TIP3    H173373   6.034   2.650  16.491 -0.0007  1.3347 -0.5901
17294TIP3    H273374   6.021   2.548  16.380  1.4097  1.2375 -0.6880
17295TIP3   OH273375   4.396   3.724   4.556  0.0860  0.3232 -0.1395
17295TIP3    H173376   4.420   3.804   4.511  1.0932  0.8113  1.2194
17295TIP3    H273377   4.329   3.750   4.619  1.3158  0.3665  1.1864
17296TIP3   OH273378   0.490   3.991  10.894 -0.7510 -0.2656  0.4742
17296TIP3    H173379   0.521   3.964  10.981  0.1207  2.1190  0.9736
17296TIP3    H273380   0.566   3.977  10.837 -0.7606 -0.1934  0.4444
17297TIP3   OH273381   4.174   2.736   1.526  0.1413 -0.4617 -0.1162
17297TIP3    H173382   4.140   2.718   1.614 -1.0544  0.3467 -0.3866
17297TIP3    H273383   4.266   2.708   1.529  0.4095  0.4902  1.6887
17298TIP3   OH273384   3.389   6.660   0.746  0.4603  0.0627  0.1095
17298TIP3    H173385   3.309   6.698   0.710 -0.9248 -1.6813  1.1931
17298TIP3    H273386   3.377   6.664   0.840  1.8801  0.1892  0.3013
17299TIP3   OH273387   0.669   0.330  12.805 -0.1312  0.0124  0.4608
17299TIP3    H173388   0.592   0.384  12.824 -1.1468 -1.4910  0.7675
17299TIP3    H273389   0.699   0.300  12.891  2.4939  2.6924  0.6624
17300TIP3   OH273390   1.889   2.045   1.640  0.0493  0.1491  0.2683
17300TIP3    H173391   1.925   2.072   1.556 -0.1506  0.1797  0.1928
17300TIP3    H273392   1.847   2.124   1.674  0.1861  0.1550  0.4277
17301TIP3   OH273393   6.122   5.240   3.133 -0.0189 -0.4996  0.1026
17301TIP3    H173394   6.159   5.260   3.219 -0.5693  3.4667 -0.3737
17301TIP3    H273395   6.028   5.249   3.144 -0.1114 -0.1861 -0.8114
17302TIP3   OH273396   4.980   1.444  10.902  0.1176  0.4963 -0.0102
17302TIP3    H173397   4.899   1.398  10.881 -0.7560  2.1500 -0.3749
17302TIP3    H273398   5.048   1.394  10.856 -0.7681 -0.4911 -0.2888
17303TIP3   OH273399   4.288   5.505  11.458  0.2186  0.0264 -0.4886
17303TIP3    H173400   4.373   5.538  11.428  0.5635 -1.1793 -0.8562
17303TIP3    H273401   4.291   5.411  11.441 -0.6315 -0.2601  0.8174
17304TIP3   OH273402   2.698   4.574  12.866 -0.5095  0.1828  0.4214
17304TIP3    H173403   2.608   4.589  12.895 -1.0712  0.6525 -1.4316
17304TIP3    H273404   2.731   4.505  12.924 -2.0322  0.0339  1.1571
17305TIP3   OH273405   2.578   6.118  11.504  0.6937  0.0081 -0.2469
17305TIP3    H173406   2.510   6.050  11.509  1.1332 -0.3671  1.1759
17305TIP3    H273407   2.643   6.083  11.444  1.3442 -1.2845  1.1240
17306TIP3   OH273408   2.189   6.623  17.048  0.3312 -0.2993 -0.0715
17306TIP3    H173409   2.259   6.680  17.081 -0.0506  0.3399 -0.3467
17306TIP3    H273410   2.202   6.541  17.094  0.3574  0.2909  0.9914
17307TIP3   OH273411   3.839   5.485  14.058  0.4684  0.2732  0.0491
17307TIP3    H173412   3.893   5.409  14.078  0.5070  0.6075  1.3091
17307TIP3    H273413   3.890   5.535  13.994  1.2366  0.0995  0.5072
17308TIP3   OH273414   3.130   0.579  16.899 -0.2288 -0.4500 -0.7838
17308TIP3    H173415   3.095   0.622  16.821  2.0064  2.0402 -0.5605
17308TIP3    H273416   3.223   0.601  16.898  0.0647 -1.2345  2.0650
17309TIP3   OH273417   3.066   4.168  11.723  0.1635  0.8434 -0.2742
17309TIP3    H173418   2.970   4.170  11.717 -0.1928  0.9541  3.1240
17309TIP3    H273419   3.090   4.257  11.748  0.9946  0.4711  0.2971
17310TIP3   OH273420   3.873   3.641  11.146 -0.4429 -0.4109 -0.2196
17310TIP3    H173421   3.846   3.733  11.137  1.5924  0.2114 -0.6000
17310TIP3    H273422   3.932   3.627  11.072  0.4996 -1.5561  0.7116
17311TIP3   OH273423   2.423   3.119  14.265  0.5240  0.3484 -0.0708
17311TIP3    H173424   2.428   3.214  14.272  0.6176  0.4966 -1.8878
17311TIP3    H273425   2.499   3.094  14.213  2.5709 -1.1403  3.2946
17312TIP3   OH273426   6.759   3.322  12.765  0.7151  0.0741  0.6586
17312TIP3    H173427   6.749   3.415  12.785  1.2557  0.0800  0.9057
17312TIP3    H273428   6.836   3.317  12.708  0.1253 -0.1212 -0.1606
17313TIP3   OH273429   3.476   2.291  15.383 -0.3727  0.2594 -0.0757
17313TIP3    H173430   3.562   2.332  15.385 -1.0990  1.8164  0.6268
17313TIP3    H273431   3.462   2.272  15.290  0.4375  0.6211 -0.2848
17314TIP3   OH273432   4.943   4.149   1.140 -0.5615 -0.4000  0.2174
17314TIP3    H173433   4.946   4.057   1.111  0.9914 -0.1960 -0.3913
17314TIP3    H273434   4.904   4.196   1.066 -0.4589 -0.4419  0.1359
17315TIP3   OH273435   4.585   6.451   6.384  0.4330  0.2381  0.0501
17315TIP3    H173436   4.546   6.429   6.469  0.3568 -0.2673 -0.1125
17315TIP3    H273437   4.532   6.404   6.320  0.7595  0.2692 -0.2455
17316TIP3   OH273438   5.866   3.482   0.606  0.3037 -0.6219  0.3337
17316TIP3    H173439   5.853   3.510   0.697 -1.0280 -1.2159  0.3535
17316TIP3    H273440   5.960   3.463   0.600  0.8483  1.5470  0.9476
17317TIP3   OH273441   5.154   2.052   4.364 -0.1865 -0.1207 -0.3800
17317TIP3    H173442   5.177   2.004   4.285 -1.6112  0.1481 -0.9843
17317TIP3    H273443   5.060   2.070   4.355 -0.1888  0.6651  0.9624
17318TIP3   OH273444   1.256   3.680  14.773 -0.0226  0.2605 -0.0374
17318TIP3    H173445   1.262   3.776  14.777  1.9311  0.2817 -1.8582
17318TIP3    H273446   1.209   3.656  14.852  0.8550  2.6248  1.3037
17319TIP3   OH273447   1.055   4.321   3.275  0.4843 -0.0505 -0.3258
17319TIP3    H173448   1.127   4.378   3.247 -0.2003  1.1655  0.3055
17319TIP3    H273449   1.027   4.276   3.195  1.7291 -0.3036 -0.6344
17320TIP3   OH273450   5.380   5.037   3.378 -0.2026 -0.9331 -0.0967
17320TIP3    H173451   5.467   5.031   3.418 -0.8668 -0.5195  1.4856
17320TIP3    H273452   5.395   5.085   3.297  0.7001  1.6232  1.4569
17321TIP3   OH273453   5.354   5.384   1.239  0.3858  0.1077 -0.7203
17321TIP3    H173454   5.338   5.457   1.179  0.2448 -0.2466 -1.1193
17321TIP3    H273455   5.391   5.315   1.184  1.3311  0.1759 -0.1916
17322TIP3   OH273456   1.340   2.440   4.676  0.5270 -0.0905  0.3087
17322TIP3    H173457   1.374   2.524   4.646 -0.9379  1.9104  3.6230
17322TIP3    H273458   1.259   2.428   4.626  1.0887  0.0954 -0.6683
17323TIP3   OH273459   5.336   4.280  15.436 -0.4532  0.5269  0.2585
17323TIP3    H173460   5.346   4.188  15.412  1.8452  1.0238 -1.0390
17323TIP3    H273461   5.364   4.285  15.527  3.7524  0.4413 -0.8182
17324TIP3   OH273462   5.777   0.412  15.384 -0.9113  0.8169  0.0111
17324TIP3    H173463   5.866   0.446  15.374 -0.9705  1.0065  0.1206
17324TIP3    H273464   5.777   0.368  15.469 -0.5482 -0.3578 -0.5706
17325TIP3   OH273465   2.509   6.300   0.428 -0.5218 -0.4330  0.0760
17325TIP3    H173466   2.504   6.380   0.376  0.6118  0.2422  0.9718
17325TIP3    H273467   2.526   6.330   0.517 -1.1938 -1.6309  0.6263
17326TIP3   OH273468   4.710   0.945   1.040 -0.2220 -0.5937 -0.3412
17326TIP3    H173469   4.723   0.853   1.015 -3.2406 -1.0524 -0.6243
17326TIP3    H273470   4.751   0.953   1.126 -0.1542 -2.3070 -0.1825
17327TIP3   OH273471   4.877   4.832   0.471 -0.3317 -1.2253 -0.0863
17327TIP3    H173472   4.912   4.896   0.533  0.1918 -0.8283 -0.7812
17327TIP3    H273473   4.929   4.845   0.391 -1.0200 -1.7013 -0.6208
17328TIP3   OH273474   0.700   0.909   4.690  0.5628  0.0079  0.2152
17328TIP3    H173475   0.765   0.976   4.707  0.2874  0.1514  0.7111
17328TIP3    H273476   0.646   0.945   4.619  0.8076  0.0319  0.0397
17329TIP3   OH273477   2.478   0.069  14.591  0.1839 -0.1547  0.6945
17329TIP3    H173478   2.572   0.086  14.591  0.0281  0.8919 -0.4914
17329TIP3    H273479   2.441   0.132  14.652 -0.0306  1.6423 -1.1667
17330TIP3   OH273480   0.405   2.404   0.547  0.3912 -0.0839 -0.5396
17330TIP3    H173481   0.357   2.398   0.465 -0.1705 -2.6089 -0.1223
17330TIP3    H273482   0.343   2.442   0.609  0.0974 -0.1469 -0.7976
17331TIP3   OH273483   5.426   1.170  12.833  0.2355  0.3048  0.0950
17331TIP3    H173484   5.417   1.122  12.915 -1.3526  0.0587 -0.1870
17331TIP3    H273485   5.503   1.226  12.846  1.7109 -1.7464  0.6926
17332TIP3   OH273486   3.826   6.811   5.364  0.2306  0.4998  0.2394
17332TIP3    H173487   3.789   6.730   5.399  0.3221 -0.0651 -0.9285
17332TIP3    H273488   3.773   6.880   5.403 -0.3839 -0.1586  0.6056
17333TIP3   OH273489   6.026   2.329  10.363 -0.0139 -0.1527 -0.6366
17333TIP3    H173490   6.091   2.381  10.410  0.9899  0.0472 -2.1706
17333TIP3    H273491   5.950   2.329  10.420  1.2523 -0.2339  1.1477
17334TIP3   OH273492   1.947   4.174  15.965  0.1171  0.1041 -0.1785
17334TIP3    H173493   1.884   4.109  15.935 -0.2905 -0.1607  1.1789
17334TIP3    H273494   1.899   4.225  16.030  1.3371 -0.2387  1.0346
17335TIP3   OH273495   5.143   0.215  13.794  0.0046 -0.5181  0.2078
17335TIP3    H173496   5.079   0.162  13.746  0.4500 -1.2679  0.4305
17335TIP3    H273497   5.226   0.169  13.781  0.4883  0.3840  0.0163
17336TIP3   OH273498   2.074   0.141  12.133  0.5175  0.1801  0.6970
17336TIP3    H173499   2.124   0.133  12.052  0.9717 -1.4541  1.0969
17336TIP3    H273500   1.986   0.113  12.111  0.5801 -0.0291  0.7128
17337TIP3   OH273501   1.879   0.638  13.348 -0.5574 -0.0041  0.3716
17337TIP3    H173502   1.958   0.589  13.323 -0.3266  0.7604 -0.4890
17337TIP3    H273503   1.906   0.689  13.424  0.2640  1.3900 -0.8053
17338TIP3   OH273504   4.106   2.219  11.343 -0.1141 -0.3110 -0.4913
17338TIP3    H173505   4.102   2.284  11.273 -0.8206  0.6325  0.4002
17338TIP3    H273506   4.156   2.262  11.412  0.4943 -1.2017 -0.3575
17339TIP3   OH273507   0.646   1.361   4.185  0.2549  0.0458  0.0600
17339TIP3    H173508   0.637   1.359   4.280 -1.0036 -3.0701 -0.0166
17339TIP3    H273509   0.564   1.398   4.154  0.9606  1.7788  0.1256
17340TIP3   OH273510   3.211   1.900  16.528 -0.1368  0.4793 -0.5197
17340TIP3    H173511   3.134   1.943  16.564 -0.7977 -0.6979 -0.4949
17340TIP3    H273512   3.180   1.857  16.448  0.3589 -0.4669 -0.2188
17341TIP3   OH273513   3.197   0.909  13.660  0.2411  0.5988  0.1550
17341TIP3    H173514   3.147   0.885  13.738  0.4105  1.9379  0.7153
17341TIP3    H273515   3.273   0.851  13.661 -0.9591 -1.0464 -0.3705
17342TIP3   OH273516   0.416   6.419  13.782  1.1485  0.0314  0.1920
17342TIP3    H173517   0.352   6.454  13.844  1.6419  0.0296  0.7081
17342TIP3    H273518   0.501   6.445  13.818  1.4358  0.1956 -0.5857
17343TIP3   OH273519   2.676   5.683   0.459 -0.0967  0.1831 -0.4078
17343TIP3    H173520   2.748   5.744   0.472 -0.5260  0.7359 -0.5822
17343TIP3    H273521   2.671   5.633   0.541 -0.0843  0.7447 -0.0631
17344TIP3   OH273522   6.322   1.384  11.958 -0.4666 -0.2294  0.4466
17344TIP3    H173523   6.339   1.296  11.924  1.9927 -0.1533  1.2370
17344TIP3    H273524   6.287   1.432  11.883 -1.2633 -1.6971 -0.1718
17345TIP3   OH273525   3.958   4.270  12.854  0.3950  0.1027 -0.0676
17345TIP3    H173526   3.997   4.349  12.817  2.4136 -0.6487  0.3322
17345TIP3    H273527   3.962   4.284  12.949 -1.2885  0.4329 -0.0258
17346TIP3   OH273528   0.832   6.750   1.633  0.4740  0.2086 -0.2573
17346TIP3    H173529   0.757   6.742   1.576 -0.2984  1.9259  0.4367
17346TIP3    H273530   0.805   6.708   1.715  0.4619  0.3906 -0.1686
17347TIP3   OH273531   1.694   4.119   1.614 -0.1327 -0.1062  0.0078
17347TIP3    H173532   1.634   4.183   1.653 -1.0297 -1.0793  0.2797
17347TIP3    H273533   1.640   4.070   1.552  0.8142  0.1367 -1.0526
17348TIP3   OH273534   6.638   3.544  13.123  0.4116  0.6297 -0.5986
17348TIP3    H173535   6.624   3.621  13.177  0.6329 -0.1814  0.6564
17348TIP3    H273536   6.563   3.488  13.141  1.2924 -0.3503  0.1295
17349TIP3   OH273537   6.243   6.602   5.772  0.1135  0.3058 -0.0429
17349TIP3    H173538   6.317   6.637   5.821 -0.2190 -0.2435  0.8672
17349TIP3    H273539   6.283   6.558   5.697  0.6640  0.5772  0.0877
17350TIP3   OH273540   2.539   2.043   3.936  0.0673  0.2138  0.9440
17350TIP3    H173541   2.490   2.112   3.981  0.2538 -0.0413  1.5520
17350TIP3    H273542   2.559   1.980   4.005  1.9344  0.6823  0.8957
17351TIP3   OH273543   1.597   6.640   1.909  0.1640 -0.1418  0.3429
17351TIP3    H173544   1.646   6.563   1.879  1.4363  0.6233  0.3800
17351TIP3    H273545   1.547   6.667   1.832 -1.1124 -1.5852  0.6205
17352TIP3   OH273546   0.816   5.094   0.614  0.1067  0.0733 -0.0105
17352TIP3    H173547   0.830   5.143   0.695  2.1475 -0.1908 -0.1589
17352TIP3    H273548   0.830   5.003   0.639  3.6315  0.1752 -1.1386
17353TIP3   OH273549   0.592   3.015   2.828  0.3915 -0.3159  0.2672
17353TIP3    H173550   0.540   3.058   2.760  2.5068  2.5372  0.2395
17353TIP3    H273551   0.535   3.011   2.904 -0.5491  0.7510 -0.3586
17354TIP3   OH273552   2.440   4.682  17.110  0.4859 -0.1417  0.2764
17354TIP3    H173553   2.420   4.590  17.124  0.4261 -0.4803 -1.8173
17354TIP3    H273554   2.532   4.683  17.084  0.2756  0.2859 -0.4842
17355TIP3   OH273555   3.869   3.704   0.737 -0.5787  0.2609 -0.3044
17355TIP3    H173556   3.823   3.775   0.782 -1.3653  0.3165 -1.1603
17355TIP3    H273557   3.933   3.749   0.681  1.7717  0.1383  2.1165
17356TIP3   OH273558   5.335   1.596   4.147  0.6232  0.3020 -0.1917
17356TIP3    H173559   5.358   1.612   4.056 -0.3352  0.8717 -0.3437
17356TIP3    H273560   5.239   1.593   4.148  0.6180 -2.5651  0.3112
17357TIP3   OH273561   5.861   0.292  16.980 -0.4171 -0.1669 -0.2820
17357TIP3    H173562   5.770   0.297  17.010 -1.3633  2.0959 -3.0487
17357TIP3    H273563   5.912   0.280  17.060 -3.0498 -0.4178  1.4856
17358TIP3   OH273564   4.498   1.768  16.610  0.3411 -0.3935  0.2301
17358TIP3    H173565   4.407   1.738  16.610  0.2368 -0.1504  1.5933
17358TIP3    H273566   4.529   1.751  16.699  1.5745 -0.2732 -0.1484
17359TIP3   OH273567   5.523   6.240   1.856  0.1795  0.3760 -0.1668
17359TIP3    H173568   5.537   6.162   1.910  0.2295  0.6768  0.2640
17359TIP3    H273569   5.554   6.216   1.769 -0.0941 -0.1847 -0.1107
17360TIP3   OH273570   5.044   0.163   4.735 -0.8374  0.0842 -0.6462
17360TIP3    H173571   4.998   0.237   4.695 -1.5259 -1.0289 -1.9964
17360TIP3    H273572   4.983   0.090   4.726 -0.9870 -0.2877  2.3842
17361TIP3   OH273573   4.101   0.887   0.178  0.0114  0.2133 -0.3533
17361TIP3    H173574   4.075   0.863   0.267 -1.2547 -0.1423 -0.8024
17361TIP3    H273575   4.095   0.982   0.176 -0.7835  0.1699 -0.2954
17362TIP3   OH273576   5.100   5.533  15.308  0.5121  0.0956 -0.5020
17362TIP3    H173577   5.101   5.568  15.397 -1.8301 -0.7085 -0.0972
17362TIP3    H273578   5.060   5.602  15.256  0.5471 -0.0045 -0.6616
17363TIP3   OH273579   3.124   3.660  16.625 -0.4654  0.0591 -0.5182
17363TIP3    H173580   3.150   3.746  16.658  0.8375 -0.4084 -0.2416
17363TIP3    H273581   3.038   3.673  16.586 -0.8603  1.2098  0.6865
17364TIP3   OH273582   6.198   3.621   2.246 -0.0973 -0.1926 -0.1926
17364TIP3    H173583   6.207   3.715   2.232 -0.6290 -0.2137 -0.7169
17364TIP3    H273584   6.106   3.608   2.266 -0.5071 -0.8367 -2.2064
17365TIP3   OH273585   2.127   1.260  15.528 -0.4227  0.1852  0.6898
17365TIP3    H173586   2.127   1.347  15.568 -1.4382  0.6995 -0.3679
17365TIP3    H273587   2.057   1.263  15.463  0.9446 -0.7014 -0.9256
17366TIP3   OH273588   0.271   2.940   1.645 -0.3514  0.3534  0.1991
17366TIP3    H173589   0.219   2.978   1.715 -1.4897 -2.3635  0.9728
17366TIP3    H273590   0.237   2.851   1.636  0.6939  0.1600 -2.8952
17367TIP3   OH273591   5.723   3.268   0.854 -0.3307  0.8486  0.1537
17367TIP3    H173592   5.711   3.278   0.948  2.0060  0.6116  0.5478
17367TIP3    H273593   5.794   3.329   0.833  1.0130 -1.0005 -0.9407
17368TIP3   OH273594   0.252   0.347  15.293 -0.6623  0.5436  0.0767
17368TIP3    H173595   0.233   0.413  15.226  0.2174  0.6394 -0.0846
17368TIP3    H273596   0.255   0.396  15.375  0.6150  0.8155 -0.1228
17369TIP3   OH273597   0.879   6.749   0.527  0.5117  0.3234  0.3669
17369TIP3    H173598   0.952   6.811   0.529  1.2372 -0.4665 -0.4444
17369TIP3    H273599   0.907   6.682   0.464 -0.2322 -0.8322  1.2306
17370TIP3   OH273600   5.287   1.282   4.105 -0.0087 -0.2176 -0.4177
17370TIP3    H173601   5.203   1.247   4.133  0.8062 -1.3619  0.6871
17370TIP3    H273602   5.310   1.346   4.172  0.2221 -0.2502 -0.4639
17371TIP3   OH273603   2.921   5.921  15.593 -0.3791 -0.0978 -0.2888
17371TIP3    H173604   2.923   5.833  15.555 -1.3179 -0.0876 -0.3730
17371TIP3    H273605   2.974   5.914  15.672 -0.0869 -0.6249 -0.5233
17372TIP3   OH273606   2.949   2.938   6.266  0.4730  0.1804 -0.0350
17372TIP3    H173607   2.939   2.883   6.188 -1.2308 -0.8930  0.8826
17372TIP3    H273608   2.931   2.879   6.339 -1.1008  1.8427  1.0051
17373TIP3   OH273609   1.630   4.989   2.466 -0.0952  0.1846 -0.3761
17373TIP3    H173610   1.576   5.044   2.523 -0.4156  0.8889 -1.3458
17373TIP3    H273611   1.612   4.900   2.495  1.5876  0.5918  2.2734
17374TIP3   OH273612   2.732   6.798   3.562  0.1795 -0.1049  0.0631
17374TIP3    H173613   2.696   6.712   3.584  0.7535 -0.0903  1.1159
17374TIP3    H273614   2.784   6.783   3.483 -1.1677 -0.3523 -0.8042
17375TIP3   OH273615   6.749   4.280  14.629  0.7950 -0.0691 -0.0575
17375TIP3    H173616   6.777   4.242  14.712  1.2929  1.9693  0.7644
17375TIP3    H273617   6.821   4.337  14.603 -0.2691  1.0184 -0.7454
17376TIP3   OH273618   3.805   2.230  12.880 -0.0470  0.0422  0.3649
17376TIP3    H173619   3.731   2.170  12.873 -0.9027  1.1223 -0.1272
17376TIP3    H273620   3.825   2.232  12.973 -1.1984  0.3840  0.6188
17377TIP3   OH273621   3.136   4.765  12.297  0.3269 -0.1148  0.2708
17377TIP3    H173622   3.084   4.687  12.319 -0.2406  0.4060  0.8051
17377TIP3    H273623   3.071   4.834  12.284  0.8907  0.6699  1.4142
17378TIP3   OH273624   4.809   4.604  14.636  0.2074 -0.2738  0.3265
17378TIP3    H173625   4.723   4.644  14.618  0.0313 -0.6349  0.3607
17378TIP3    H273626   4.839   4.647  14.716  0.4356  0.4540 -0.1341
17379TIP3   OH273627   3.398   0.975  15.137  0.7519  0.6070 -0.0129
17379TIP3    H173628   3.336   1.037  15.099  0.3078  2.0706  2.7785
17379TIP3    H273629   3.452   0.946  15.063  0.6230  3.9257 -1.5938
17380TIP3   OH273630   3.398   6.473  11.582  0.3366 -0.0348 -0.0310
17380TIP3    H173631   3.332   6.431  11.528 -1.6846  2.7234  0.0839
17380TIP3    H273632   3.482   6.447  11.542 -0.9380 -0.9183 -2.3072
17381TIP3   OH273633   6.733   4.482  12.318 -0.1934 -0.3854  0.6893
17381TIP3    H173634   6.644   4.454  12.298 -0.6140  2.0413 -1.2645
17381TIP3    H273635   6.786   4.404  12.303 -1.8767 -1.7825  1.5536
17382TIP3   OH273636   6.646   6.631  14.701  0.1333 -0.3063  0.4248
17382TIP3    H173637   6.554   6.657  14.701  0.0330 -0.4433  2.7573
17382TIP3    H273638   6.648   6.546  14.744  1.1134 -1.5679 -1.9390
17383TIP3   OH273639   5.620   3.267  15.727  0.3441  0.3592  0.3719
17383TIP3    H173640   5.587   3.299  15.811 -1.5831 -0.1004 -0.1736
17383TIP3    H273641   5.673   3.339  15.693 -0.1699  1.1633  1.2414
17384TIP3   OH273642   6.825   0.104   5.512  0.5998 -0.3165  0.2550
17384TIP3    H173643   6.786   0.086   5.426  0.1739 -0.2277  0.4252
17384TIP3    H273644   6.822   0.200   5.519  0.8835 -0.3074  0.2564
17385TIP3   OH273645   4.079   5.688   4.075 -0.6456 -0.1284  0.2566
17385TIP3    H173646   4.011   5.627   4.046 -1.1088  0.1043  0.8326
17385TIP3    H273647   4.080   5.757   4.008 -0.3967 -0.5580 -0.1876
17386TIP3   OH273648   6.233   1.383  15.476 -0.2204  0.4090 -0.7682
17386TIP3    H173649   6.249   1.345  15.390  0.6462  0.1827 -0.5201
17386TIP3    H273650   6.320   1.388  15.517 -0.6375  0.3171  0.1665
17387TIP3   OH273651   0.584   2.999   0.878  0.0188 -0.2940  0.3008
17387TIP3    H173652   0.628   2.924   0.838 -0.0401 -0.5748  0.7567
17387TIP3    H273653   0.648   3.036   0.938  0.3672  0.5714 -0.5645
17388TIP3   OH273654   2.744   4.605  14.775 -0.4351  0.7232 -0.5636
17388TIP3    H173655   2.772   4.581  14.863  0.3146  1.3136 -0.6227
17388TIP3    H273656   2.671   4.666  14.788 -0.4032  0.7151 -0.3523
17389TIP3   OH273657   2.817   3.477   1.593 -0.2488 -0.2234  0.7718
17389TIP3    H173658   2.881   3.410   1.614 -1.8996 -2.3226 -0.5598
17389TIP3    H273659   2.865   3.541   1.540  0.9410 -1.2616  0.5758
17390TIP3   OH273660   5.345   3.516  16.423  0.3121  0.1568  0.0253
17390TIP3    H173661   5.325   3.595  16.373  0.2679  0.6363  0.7842
17390TIP3    H273662   5.311   3.534  16.511 -1.1333 -1.3199 -0.1834
17391TIP3   OH273663   0.904   1.235  13.190  0.2994  0.0449  0.2744
17391TIP3    H173664   0.983   1.244  13.243  0.3962 -0.3497  0.2012
17391TIP3    H273665   0.897   1.141  13.173 -0.5786 -0.0085  0.8717
17392TIP3   OH273666   6.080   2.398   5.139 -0.1235 -0.5848 -0.2208
17392TIP3    H173667   6.051   2.398   5.047  0.4905 -0.7451 -0.4190
17392TIP3    H273668   6.078   2.491   5.164  1.2746 -0.3333 -0.9193
17393TIP3   OH273669   2.414   3.682   5.177  0.3046 -0.4762 -0.2521
17393TIP3    H173670   2.424   3.594   5.140  0.0372 -0.8328  0.4886
17393TIP3    H273671   2.475   3.683   5.251 -1.1902 -0.7991  1.0446
17394TIP3   OH273672   4.957   2.838   2.866 -0.0214  0.1676 -0.2106
17394TIP3    H173673   4.987   2.917   2.820  1.6437 -0.5747 -0.4848
17394TIP3    H273674   4.984   2.852   2.957  0.5503 -0.2013 -0.3188
17395TIP3   OH273675   1.458   2.695   2.645 -0.4278  0.3702  0.1584
17395TIP3    H173676   1.421   2.607   2.645 -2.1959  1.0699 -1.1892
17395TIP3    H273677   1.454   2.722   2.737  0.2188 -0.9493  0.6081
17396TIP3   OH273678   2.720   1.543  15.639  0.0791  0.2749  0.2052
17396TIP3    H173679   2.643   1.600  15.628 -0.9471 -1.0758  0.0922
17396TIP3    H273680   2.687   1.455  15.621  1.7054 -0.3318  0.0226
17397TIP3   OH273681   1.397   2.272   2.930 -0.2120 -0.3398  0.3093
17397TIP3    H173682   1.387   2.339   2.997  0.6975  2.1012 -1.8460
17397TIP3    H273683   1.308   2.252   2.903 -0.4817  0.1661  0.8024
17398TIP3   OH273684   5.619   5.708  11.676  0.1461  0.1686 -0.3165
17398TIP3    H173685   5.569   5.787  11.657 -0.7345  0.1929  1.7930
17398TIP3    H273686   5.683   5.702  11.604 -0.0770  2.5111 -0.7991
17399TIP3   OH273687   3.790   3.880   4.485 -0.1745  0.5655 -0.2928
17399TIP3    H173688   3.732   3.897   4.411 -0.1115  1.1163 -0.2210
17399TIP3    H273689   3.740   3.907   4.561 -0.4634 -0.5532 -0.0717
17400TIP3   OH273690   6.352   0.071   5.063 -0.0803  0.4796 -0.0473
17400TIP3    H173691   6.382   0.128   5.134  0.6823  1.9196 -1.4721
17400TIP3    H273692   6.267   0.107   5.038 -1.3368 -1.2692  1.4226
17401TIP3   OH273693   1.470   0.897  12.722  0.5677 -0.4527 -0.0635
17401TIP3    H173694   1.513   0.979  12.702  1.8587 -0.0803  3.4724
17401TIP3    H273695   1.395   0.921  12.777 -1.3864 -1.4602 -2.1156
17402TIP3   OH273696   5.048   3.185  13.208  0.1953  0.2919  0.0189
17402TIP3    H173697   5.127   3.157  13.162  0.3402  0.8938 -0.0991
17402TIP3    H273698   5.024   3.268  13.167  0.0812  0.6209  0.7369
17403TIP3   OH273699   0.588   0.693  16.176 -0.4733 -0.7725 -0.2599
17403TIP3    H173700   0.656   0.707  16.109 -0.3949  0.8776  0.1065
17403TIP3    H273701   0.585   0.598  16.188  2.6673 -0.8825  0.5991
17404TIP3   OH273702   3.555   6.459   3.134  0.2072  0.4504  0.6698
17404TIP3    H173703   3.638   6.441   3.177  0.9466 -0.0091 -0.8888
17404TIP3    H273704   3.566   6.545   3.094 -0.0601  0.3640  0.4090
17405TIP3   OH273705   5.794   6.747  11.883  0.5278 -0.7078 -0.4654
17405TIP3    H173706   5.749   6.747  11.798  0.3254 -3.2135 -0.4283
17405TIP3    H273707   5.876   6.794  11.866 -1.0382  2.0805 -1.0650
17406TIP3   OH273708   0.748   1.111   2.380  0.8401 -0.3058 -0.1175
17406TIP3    H173709   0.679   1.160   2.334  1.3941 -1.0025 -1.7643
17406TIP3    H273710   0.730   1.126   2.473 -0.6210  0.7673 -0.5342
17407TIP3   OH273711   4.548   4.106  14.986 -0.3782  0.2228 -0.4337
17407TIP3    H173712   4.537   4.012  14.999  1.9407  0.1185  1.3957
17407TIP3    H273713   4.619   4.114  14.923 -1.4006  0.8026 -1.5577
17408TIP3   OH273714   0.378   1.006  15.591 -0.3547 -0.2184 -0.1387
17408TIP3    H173715   0.353   1.098  15.581 -0.4935 -0.1241  0.9058
17408TIP3    H273716   0.446   0.992  15.525  0.2699  0.8787  0.2426
17409TIP3   OH273717   6.015   5.590   5.434 -0.4467  0.4275 -0.0885
17409TIP3    H173718   5.938   5.540   5.407  0.3768 -0.1308 -1.4981
17409TIP3    H273719   6.042   5.548   5.516  0.5965 -1.9548 -1.5381
17410TIP3   OH273720   3.497   6.050   2.907  0.7000  0.1480  0.8156
17410TIP3    H173721   3.573   6.028   2.960  0.1433 -1.5915  0.9587
17410TIP3    H273722   3.502   5.992   2.832 -0.1759  0.4301  0.5263
17411TIP3   OH273723   3.096   3.691   5.089  0.4274  0.1625  0.5515
17411TIP3    H173724   3.129   3.609   5.052 -0.1067  0.2203 -0.0639
17411TIP3    H273725   3.082   3.672   5.182  1.7677  0.0110  0.7469
17412TIP3   OH273726   5.650   5.319   2.133 -1.0856 -0.2508 -0.4582
17412TIP3    H173727   5.719   5.374   2.169 -0.8725  0.6467 -2.1603
17412TIP3    H273728   5.677   5.230   2.155  1.4121 -0.0424 -2.2850
17413TIP3   OH273729   6.513   1.004  12.396  0.0044  0.0972  0.3217
17413TIP3    H173730   6.505   0.977  12.304 -0.4369 -1.7357  0.8526
17413TIP3    H273731   6.430   0.979  12.436  0.0474  1.2135  1.1648
17414TIP3   OH273732   4.650   2.044  13.108  0.6457  0.7772 -0.5403
17414TIP3    H173733   4.646   2.077  13.018 -0.1259 -1.4843 -1.4228
17414TIP3    H273734   4.616   1.954  13.101  1.1863  0.3319  1.9112
17415TIP3   OH273735   2.993   2.644   2.777 -0.7135 -0.0183 -0.0677
17415TIP3    H173736   3.068   2.697   2.800 -0.7596  0.5571 -1.1898
17415TIP3    H273737   3.027   2.555   2.771 -0.2059  0.1838 -0.1926
17416TIP3   OH273738   4.393   3.692  12.075 -0.7273  0.4715  0.2611
17416TIP3    H173739   4.457   3.689  12.004 -1.0898  0.2959 -0.0585
17416TIP3    H273740   4.317   3.644  12.042 -0.2457 -1.1994  1.4183
17417TIP3   OH273741   0.284   1.431  16.264 -0.2460 -0.4273  0.1165
17417TIP3    H173742   0.211   1.453  16.322  1.7714  1.5968  2.0964
17417TIP3    H273743   0.269   1.484  16.186 -0.0997  1.2458  1.1824
17418TIP3   OH273744   1.684   2.504   2.902  0.0723 -0.3227 -0.1382
17418TIP3    H173745   1.640   2.577   2.945 -0.3588 -0.0459 -1.0235
17418TIP3    H273746   1.777   2.524   2.909  0.1642 -1.2584  2.3682
17419TIP3   OH273747   3.991   1.486   2.184  0.0635  0.1901 -0.2641
17419TIP3    H173748   4.080   1.518   2.175  0.0897  0.6710  1.4441
17419TIP3    H273749   3.973   1.490   2.278 -1.0369 -1.8286 -0.3323
17420TIP3   OH273750   2.649   3.115   3.246  0.2272 -0.1869 -0.4798
17420TIP3    H173751   2.665   3.139   3.338  0.2995  0.6178 -0.6999
17420TIP3    H273752   2.724   3.149   3.199  1.0990 -2.1501 -0.6222
17421TIP3   OH273753   2.923   6.591   4.416  0.3783  0.4884  0.3218
17421TIP3    H173754   3.005   6.541   4.422  0.9482  1.5178  1.4528
17421TIP3    H273755   2.937   6.652   4.345  1.0162  1.3642  1.1727
17422TIP3   OH273756   3.079   1.984  11.766  0.4435 -0.2827  0.4179
17422TIP3    H173757   3.113   1.969  11.677  0.7968 -0.2759  0.5506
17422TIP3    H273758   3.079   1.898  11.807  0.4521 -0.2586  0.4687
17423TIP3   OH273759   0.144   1.484   1.726  0.3382  0.1601 -0.4778
17423TIP3    H173760   0.116   1.567   1.766 -0.2370  0.9621 -2.3954
17423TIP3    H273761   0.188   1.437   1.797  0.1976  1.8623  0.8245
17424TIP3   OH273762   5.911   6.322   0.213 -0.3720  0.1336 -0.8587
17424TIP3    H173763   5.940   6.313   0.122  3.1530  0.1625  0.0966
17424TIP3    H273764   5.977   6.274   0.264 -0.3292  2.7697  1.8962
17425TIP3   OH273765   1.203   1.694  15.363 -0.6618 -0.2623 -0.9172
17425TIP3    H173766   1.202   1.785  15.391 -0.2123  0.1238 -2.1107
17425TIP3    H273767   1.111   1.673  15.345 -0.7831 -0.0935 -0.4981
17426TIP3   OH273768   3.961   1.436   6.778  0.2073 -0.6207  0.1052
17426TIP3    H173769   3.888   1.473   6.729  1.4992 -0.3123 -1.6562
17426TIP3    H273770   3.975   1.498   6.850  1.9685  2.1783 -2.4574
17427TIP3   OH273771   2.320   6.421  15.782 -1.0159  0.6036 -0.6836
17427TIP3    H173772   2.267   6.471  15.845  1.5676  0.5885  1.6881
17427TIP3    H273773   2.401   6.471  15.774  1.1459 -2.4319  0.7745
17428TIP3   OH273774   4.518   4.911   3.241 -0.3975 -0.1178  0.4713
17428TIP3    H173775   4.541   4.885   3.330  0.3528  3.2687  1.4019
17428TIP3    H273776   4.487   5.001   3.249 -2.0615 -0.2769 -2.5014
17429TIP3   OH273777   2.420   3.918   1.694 -0.3336 -0.0601 -0.3018
17429TIP3    H173778   2.412   3.833   1.651 -0.0626 -0.4487  0.3963
17429TIP3    H273779   2.492   3.962   1.649  0.8914 -1.0242  0.6414
17430TIP3   OH273780   1.053   0.470  14.894  0.0018  0.3540  0.7675
17430TIP3    H173781   1.044   0.389  14.844 -0.0932  1.9282 -1.9587
17430TIP3    H273782   1.147   0.483  14.903  0.0146 -0.2218  1.5424
17431TIP3   OH273783   5.859   4.629   3.034  0.5807  0.2156 -0.6545
17431TIP3    H173784   5.873   4.722   3.049  2.0836  0.0316 -0.8076
17431TIP3    H273785   5.939   4.587   3.063 -0.0964 -1.0538 -0.5338
17432TIP3   OH273786   2.606   4.081   5.249  0.4877 -0.7087 -0.0834
17432TIP3    H173787   2.605   4.024   5.326  1.9127 -0.2640  0.2789
17432TIP3    H273788   2.547   4.037   5.187 -1.2015 -0.7346  1.4565
17433TIP3   OH273789   4.879   5.304  11.142 -0.7247 -0.0999 -0.1791
17433TIP3    H173790   4.942   5.265  11.203 -1.2374 -1.1322 -0.2904
17433TIP3    H273791   4.802   5.247  11.147 -1.1658  0.4065 -1.0075
17434TIP3   OH273792   3.784   2.311   3.886 -0.2055 -0.0354  0.9985
17434TIP3    H173793   3.851   2.256   3.847 -0.3438  0.0025  0.7019
17434TIP3    H273794   3.832   2.377   3.935  0.0900  1.5490 -1.2634
17435TIP3   OH273795   5.347   0.589  14.292  0.0982  0.2579 -0.5225
17435TIP3    H173796   5.370   0.503  14.327  1.8239  0.3386 -1.3587
17435TIP3    H273797   5.300   0.570  14.211 -0.0748  0.1100 -0.3893
17436TIP3   OH273798   1.229   1.526  12.682 -0.1861 -0.3474 -0.0625
17436TIP3    H173799   1.187   1.612  12.691  0.1928 -0.0732 -0.8075
17436TIP3    H273800   1.310   1.544  12.636  0.6042 -0.9249  1.0530
17437TIP3   OH273801   5.441   3.537   0.259  0.0010 -0.1422  0.5544
17437TIP3    H173802   5.461   3.582   0.176 -0.4381 -2.4875 -0.9197
17437TIP3    H273803   5.431   3.445   0.234 -2.5594 -0.6103  2.8110
17438TIP3   OH273804   0.228   5.847  17.302 -0.0540 -0.0463  0.1149
17438TIP3    H173805   0.222   5.900  17.223 -1.4002 -0.8402 -0.3509
17438TIP3    H273806   0.175   5.894  17.367 -3.0396 -1.7186 -0.8908
17439TIP3   OH273807   3.851   3.535   6.510  0.1962 -0.2810  0.2968
17439TIP3    H173808   3.773   3.482   6.493  2.4794 -3.8727 -0.0422
17439TIP3    H273809   3.843   3.609   6.450 -0.6819 -3.1261 -3.4770
17440TIP3   OH273810   1.848   0.910   5.607  0.1142  0.3737  0.0904
17440TIP3    H173811   1.792   0.939   5.535  0.6045  2.1148  0.3449
17440TIP3    H273812   1.917   0.858   5.566  0.4944  1.4992 -0.7557
17441TIP3   OH273813   0.855   1.511   1.005 -0.4448 -0.5305  0.0060
17441TIP3    H173814   0.807   1.594   1.003 -0.0927 -0.3313 -0.2686
17441TIP3    H273815   0.786   1.444   1.009 -0.7632 -0.2616 -0.7299
17442TIP3   OH273816   5.476   2.265  15.373  0.0169  0.2195 -0.1253
17442TIP3    H173817   5.559   2.265  15.326 -0.5784 -0.0331 -1.2044
17442TIP3    H273818   5.432   2.345  15.344 -0.5181 -0.1307 -0.2916
17443TIP3   OH273819   5.113   2.060  16.617  0.3864 -0.4210  0.7507
17443TIP3    H173820   5.180   1.997  16.591 -0.9973 -1.8583  0.5168
17443TIP3    H273821   5.070   2.085  16.536 -0.4733 -0.8405  1.0631
17444TIP3   OH273822   2.312   3.396   4.406  0.3298 -1.0005  0.2471
17444TIP3    H173823   2.398   3.356   4.395  0.3965 -0.9446  0.5720
17444TIP3    H273824   2.268   3.342   4.471  1.2315  0.7167  2.4068
17445TIP3   OH273825   4.624   4.868   2.243 -0.2124  0.0016 -0.0612
17445TIP3    H173826   4.532   4.872   2.271 -0.3147 -0.1875 -0.3597
17445TIP3    H273827   4.640   4.776   2.226 -0.6316  0.2544 -2.1035
17446TIP3   OH273828   0.906   5.150  11.226 -0.4124 -0.6891  0.5082
17446TIP3    H173829   0.918   5.211  11.299  0.3869 -0.4176  0.1624
17446TIP3    H273830   0.842   5.193  11.170  1.4614  0.7337 -0.6443
17447TIP3   OH273831   1.371   6.367  15.481 -0.4638 -0.1229  0.1699
17447TIP3    H173832   1.315   6.435  15.519 -0.3681 -0.4974  1.0120
17447TIP3    H273833   1.324   6.285  15.496 -1.0375 -0.1784 -1.7087
17448TIP3   OH273834   5.364   1.424   4.354  0.0499 -0.1093 -0.4224
17448TIP3    H173835   5.312   1.476   4.415 -1.1523  0.9139 -2.2096
17448TIP3    H273836   5.366   1.476   4.273  1.6486 -1.3468 -1.2490
17449TIP3   OH273837   1.896   4.132   4.159  0.2617  0.0927 -0.2429
17449TIP3    H173838   1.891   4.104   4.067 -2.0047 -1.3849  0.2470
17449TIP3    H273839   1.823   4.192   4.170  1.1672  1.1111  0.3627
17450TIP3   OH273840   4.571   3.687   3.713  0.0742  0.1139  0.0537
17450TIP3    H173841   4.537   3.761   3.663  0.1465 -0.1316 -0.3605
17450TIP3    H273842   4.665   3.687   3.695 -0.2823 -1.8875 -2.4200
17451TIP3   OH273843   3.892   6.032   1.834 -0.2312  0.5741 -0.1389
17451TIP3    H173844   3.939   5.975   1.894 -1.1199  1.6891  1.7054
17451TIP3    H273845   3.801   6.003   1.840 -0.2909  0.4799 -1.2502
17452TIP3   OH273846   4.927   6.374   2.793  0.2730  0.1272  0.1889
17452TIP3    H173847   4.972   6.424   2.861  0.8395 -1.2091  0.8373
17452TIP3    H273848   4.994   6.316   2.757 -0.8690 -1.9273  1.1961
17453TIP3   OH273849   0.741   0.496  14.736  0.0123  0.3881  0.2620
17453TIP3    H173850   0.831   0.474  14.712 -0.0075  2.4956 -2.1019
17453TIP3    H273851   0.739   0.490  14.831  2.6258  0.1943  0.3580
17454TIP3   OH273852   6.789   2.159   1.867  0.5000  0.4018  0.1899
17454TIP3    H173853   6.875   2.133   1.900  0.1951 -0.7563  0.1238
17454TIP3    H273854   6.777   2.249   1.898  1.2981  0.2199  1.0533
17455TIP3   OH273855   0.760   3.139   6.183  0.2770  0.2913  0.4728
17455TIP3    H173856   0.709   3.062   6.207 -0.9387  0.7842 -0.4350
17455TIP3    H273857   0.730   3.207   6.244  0.5990  0.3187  0.6023
17456TIP3   OH273858   2.571   5.792   2.906 -0.1553  0.2037  0.1052
17456TIP3    H173859   2.576   5.859   2.974 -2.0848 -0.9419  1.4601
17456TIP3    H273860   2.657   5.750   2.907  0.9440  2.3107 -0.4846
17457TIP3   OH273861   4.241   0.661   2.698  0.0960 -0.3370  0.4771
17457TIP3    H173862   4.327   0.619   2.701 -0.0607 -0.7139 -0.0230
17457TIP3    H273863   4.205   0.649   2.786  0.3626 -0.5884  0.5535
17458TIP3   OH273864   0.651   0.305   0.338 -0.4300  0.1231  0.3869
17458TIP3    H173865   0.655   0.236   0.405  1.1223 -0.6094 -0.4057
17458TIP3    H273866   0.683   0.384   0.383 -2.3744  0.4371  1.3473
17459TIP3   OH273867   2.362   0.504   3.530  0.0099 -0.3591  0.3836
17459TIP3    H173868   2.353   0.468   3.618  0.2792 -1.4125 -0.0060
17459TIP3    H273869   2.315   0.442   3.474 -1.3088  0.9861 -0.0817
17460TIP3   OH273870   0.671   1.734   5.321 -0.3665 -0.1358 -0.0167
17460TIP3    H173871   0.744   1.735   5.259 -1.0024 -1.2059 -0.8091
17460TIP3    H273872   0.713   1.724   5.407  0.6198  2.7028 -0.0620
17461TIP3   OH273873   5.730   4.770  12.440  0.4366  0.2950 -0.4048
17461TIP3    H173874   5.812   4.727  12.416  0.7553  1.1054 -0.7935
17461TIP3    H273875   5.755   4.861  12.459 -0.4047  0.6180 -0.7802
17462TIP3   OH273876   3.471   6.747  15.482  0.4707  0.7451  0.3633
17462TIP3    H173877   3.509   6.674  15.530  1.2090  1.8921  1.5573
17462TIP3    H273878   3.420   6.795  15.547  0.8622  1.8926 -0.1571
17463TIP3   OH273879   5.548   4.323   5.234  0.3640 -0.1178 -0.4084
17463TIP3    H173880   5.530   4.407   5.191 -0.0408 -0.1749 -0.3529
17463TIP3    H273881   5.633   4.336   5.276  1.3120 -0.4240 -2.1429
17464TIP3   OH273882   3.609   2.462  11.791 -0.1250  0.3787 -0.9426
17464TIP3    H173883   3.664   2.456  11.713  0.4087  2.2494 -0.7707
17464TIP3    H273884   3.666   2.436  11.863 -0.2869 -0.2627 -1.0375
17465TIP3   OH273885   4.525   2.464  16.714  0.7554 -0.4259  0.0779
17465TIP3    H173886   4.505   2.437  16.624  1.2876 -1.8854  0.3742
17465TIP3    H273887   4.617   2.490  16.711  1.1023 -1.5585  0.4153
17466TIP3   OH273888   6.421   4.593  12.893  0.4075 -0.0064  0.1192
17466TIP3    H173889   6.366   4.631  12.825  0.6976 -0.9713 -0.6679
17466TIP3    H273890   6.368   4.600  12.973 -0.4421  0.0155 -0.4311
17467TIP3   OH273891   4.310   5.448   1.944  0.6381 -0.0342  0.0528
17467TIP3    H173892   4.301   5.353   1.945  0.6107 -0.0660 -1.1431
17467TIP3    H273893   4.222   5.480   1.923  1.2765  0.0647 -2.8948
17468TIP3   OH273894   6.727   2.384   0.716 -0.0595 -0.2860  0.2608
17468TIP3    H173895   6.675   2.307   0.736 -1.3407  0.6861  0.8179
17468TIP3    H273896   6.785   2.357   0.645 -2.6588 -0.9029 -1.7887
17469TIP3   OH273897   0.267   1.787  17.216 -0.1308 -0.3334 -0.3542
17469TIP3    H173898   0.232   1.869  17.180 -0.4354 -0.6200 -0.7216
17469TIP3    H273899   0.362   1.798  17.213 -0.1758  0.1688 -0.0195
17470TIP3   OH273900   1.775   6.187   2.952  0.6982  0.0067  0.4754
17470TIP3    H173901   1.700   6.142   2.913  0.6808  0.8006 -0.4488
17470TIP3    H273902   1.764   6.176   3.046  0.2805 -1.2371  0.2919
17471TIP3   OH273903   1.001   6.052  11.676  0.2051 -0.3350  0.2753
17471TIP3    H173904   1.000   6.083  11.586  0.5113 -0.4289  0.2373
17471TIP3    H273905   0.976   5.960  11.671  0.7324 -0.4799  0.2267
17472TIP3   OH273906   4.688   2.229   3.546 -0.3108 -0.2951  0.1173
17472TIP3    H173907   4.752   2.289   3.584 -1.1178 -0.1394  1.3050
17472TIP3    H273908   4.706   2.145   3.589 -0.3492 -0.4628 -0.1899
17473TIP3   OH273909   6.009   0.182   3.224  0.4537  0.6294  0.1614
17473TIP3    H173910   6.037   0.273   3.231 -0.8337  1.0325  0.1658
17473TIP3    H273911   5.923   0.186   3.184  0.7465 -0.6517 -0.6528
17474TIP3   OH273912   0.486   1.430  13.591  0.4949  0.3922 -0.3452
17474TIP3    H173913   0.549   1.502  13.589  0.4235  0.4616 -0.0711
17474TIP3    H273914   0.540   1.351  13.587  0.5101  0.4660 -2.3389
17475TIP3   OH273915   5.191   0.394   0.779 -0.6232 -0.0307  0.1651
17475TIP3    H173916   5.211   0.487   0.788  0.4622 -0.2498  0.1953
17475TIP3    H273917   5.235   0.353   0.854 -1.8985 -0.4656  0.6917
17476TIP3   OH273918   4.697   0.486   4.771 -0.3618 -0.1533  0.1610
17476TIP3    H173919   4.657   0.544   4.707 -0.2595 -0.6515 -0.3658
17476TIP3    H273920   4.657   0.511   4.854 -0.0148  0.9396  0.0161
17477TIP3   OH273921   5.864   6.408  13.875 -0.3203 -0.7270 -0.0232
17477TIP3    H173922   5.770   6.429  13.869 -0.2603 -0.5514 -0.3842
17477TIP3    H273923   5.881   6.355  13.797 -0.0704 -0.5545 -0.0862
17478TIP3   OH273924   3.202   4.763   0.598  0.0027 -0.4815  0.2907
17478TIP3    H173925   3.185   4.855   0.578  2.2593 -0.2958 -1.0971
17478TIP3    H273926   3.256   4.765   0.678 -0.1507 -0.6117  0.3981
17479TIP3   OH273927   5.661   6.674  14.022 -0.0052  0.1984 -0.1479
17479TIP3    H173928   5.750   6.654  13.992  0.3881  1.1423  0.3542
17479TIP3    H273929   5.638   6.756  13.977 -0.8119 -0.2835 -0.6372
17480TIP3   OH273930   0.034   0.152  15.532  0.2832  0.3193 -0.1984
17480TIP3    H173931   0.012   0.145  15.439 -1.7404 -0.1173  0.2715
17480TIP3    H273932   0.038   0.246  15.549  0.5157  0.4001 -0.6761
17481TIP3   OH273933   1.572   1.562  15.231  0.6017  0.0622  0.1079
17481TIP3    H173934   1.531   1.530  15.312 -0.9846 -2.6552 -1.5729
17481TIP3    H273935   1.507   1.622  15.194  0.7017  0.2169  0.1829
17482TIP3   OH273936   6.237   4.072   6.184  0.5687 -0.1591  0.4206
17482TIP3    H173937   6.281   4.020   6.251  1.3160  0.7060  0.6113
17482TIP3    H273938   6.276   4.159   6.191 -1.7122  0.8843  1.1304
17483TIP3   OH273939   5.157   1.911   0.958  0.5666 -0.7179  0.2838
17483TIP3    H173940   5.250   1.900   0.937  0.6476  0.0548  0.2179
17483TIP3    H273941   5.155   1.926   1.053  0.3203 -2.7675  0.6564
17484TIP3   OH273942   5.385   5.947  13.997  0.3137 -0.6617 -0.2332
17484TIP3    H173943   5.424   6.034  13.994  1.1931 -1.0760 -1.2379
17484TIP3    H273944   5.413   5.905  13.916 -1.7553 -1.1908 -0.7373
17485TIP3   OH273945   0.300   5.467   1.260  0.4606  0.2188 -0.2217
17485TIP3    H173946   0.312   5.549   1.308  1.0385  0.4627 -0.7715
17485TIP3    H273947   0.307   5.491   1.168 -0.7695 -0.2249 -0.4528
17486TIP3   OH273948   0.153   6.094  13.725  0.3597  0.0864  0.2114
17486TIP3    H173949   0.164   6.071  13.633 -1.9311  0.8520 -0.3137
17486TIP3    H273950   0.063   6.069  13.746  0.1094  1.9237  1.5901
17487TIP3   OH273951   5.724   1.120  11.930  0.4080  0.3888  0.4286
17487TIP3    H173952   5.684   1.103  12.016  1.1421  0.8226  0.8669
17487TIP3    H273953   5.683   1.056  11.872  0.5036 -0.4728  1.2823
17488TIP3   OH273954   3.274   5.064   6.219  0.6202  0.1158  0.5000
17488TIP3    H173955   3.211   5.130   6.247  1.0521 -0.0115  1.8316
17488TIP3    H273956   3.355   5.087   6.264  0.9938 -0.8450  0.3474
17489TIP3   OH273957   2.684   5.790  13.296 -0.2112  0.2707 -0.8084
17489TIP3    H173958   2.766   5.774  13.251  0.6449 -0.9956  1.0892
17489TIP3    H273959   2.633   5.843  13.235  1.6696  0.3804 -2.3653
17490TIP3   OH273960   0.112   6.320  14.714  0.0615 -0.3499  0.0710
17490TIP3    H173961   0.185   6.341  14.657  1.0964 -0.0588  1.4601
17490TIP3    H273962   0.036   6.316  14.656  1.0367  0.1526 -1.2713
17491TIP3   OH273963   1.311   1.637   6.002 -0.2184  0.1691 -0.1429
17491TIP3    H173964   1.313   1.569   6.069  1.0001  1.0321  0.7462
17491TIP3    H273965   1.350   1.595   5.925  2.6772  0.4284  1.0520
17492TIP3   OH273966   5.998   6.649   3.601 -0.3832 -0.4614 -0.4107
17492TIP3    H173967   6.038   6.595   3.669 -2.6358 -0.8000  0.7614
17492TIP3    H273968   6.070   6.703   3.568  0.9979 -0.9413  1.5955
17493TIP3   OH273969   1.176   3.674   3.038  0.0074 -0.6134  0.1724
17493TIP3    H173970   1.270   3.668   3.054  0.1760 -1.1092 -0.9452
17493TIP3    H273971   1.169   3.718   2.953 -0.7281 -1.5945 -0.2969
17494TIP3   OH273972   0.370   6.596   3.588 -0.2805 -0.0160 -0.1218
17494TIP3    H173973   0.308   6.666   3.609  0.2359  0.2455  0.5523
17494TIP3    H273974   0.430   6.594   3.662  0.3163 -0.5001 -0.6109
17495TIP3   OH273975   3.675   0.288  13.186  0.0430  0.1320 -0.1924
17495TIP3    H173976   3.651   0.196  13.172 -1.7913  0.5595 -0.1363
17495TIP3    H273977   3.756   0.300  13.137  0.3915 -1.5370 -0.0936
17496TIP3   OH273978   2.514   1.462  13.177  0.0936 -0.2046 -0.5484
17496TIP3    H173979   2.506   1.541  13.231  0.6072 -0.1402 -0.5554
17496TIP3    H273980   2.425   1.441  13.151  0.0301  1.0132 -1.4365
17497TIP3   OH273981   2.758   6.198  15.240 -0.1732 -0.2885 -0.0462
17497TIP3    H173982   2.697   6.234  15.175 -1.8037 -1.7142  0.6067
17497TIP3    H273983   2.701   6.160  15.307  1.4653 -0.0043  1.5838
17498TIP3   OH273984   3.964   1.375   5.048  0.4462  0.0839  0.3895
17498TIP3    H173985   3.988   1.295   5.094 -1.5826  0.1894  1.7510
17498TIP3    H273986   3.977   1.445   5.112 -0.9655  0.4171  0.3473
17499TIP3   OH273987   0.141   3.710   5.521  0.0906 -0.0637 -0.5779
17499TIP3    H173988   0.131   3.687   5.429  1.1629 -0.2587 -0.6644
17499TIP3    H273989   0.062   3.676   5.563 -1.1103  1.2762 -1.6279
17500TIP3   OH273990   0.139   4.940  13.225  0.2602 -0.3453  0.3039
17500TIP3    H173991   0.086   5.019  13.241 -1.7171 -1.7132  0.8458
17500TIP3    H273992   0.114   4.913  13.136  0.6769 -0.5584  0.2513
17501TIP3   OH273993   4.659   6.630  13.136 -0.2261 -0.2476  0.1798
17501TIP3    H173994   4.732   6.669  13.184  1.0721  0.5139 -2.2420
17501TIP3    H273995   4.599   6.703  13.120 -0.2113 -0.2978 -0.1082
17502TIP3   OH273996   3.966   6.588  12.092  0.0790 -0.4939  0.7883
17502TIP3    H173997   4.005   6.673  12.069  0.0084 -0.9308 -1.1538
17502TIP3    H273998   4.039   6.527  12.094 -0.0176 -0.6035  0.9591
17503TIP3   OH273999   3.778   6.604   1.942  0.2755  0.3816 -0.2517
17503TIP3    H174000   3.851   6.582   2.000 -0.4111  0.2889  0.6024
17503TIP3    H274001   3.717   6.653   1.997  0.0301  1.1170 -1.1497
17504TIP3   OH274002   1.827   3.291   0.332  0.3749 -0.4945 -0.4175
17504TIP3    H174003   1.886   3.263   0.262  1.8750  1.7243 -0.1497
17504TIP3    H274004   1.865   3.253   0.412  0.1888 -0.8274 -0.4841
17505TIP3   OH274005   1.127   2.349   5.492  0.1656  0.0391 -0.1336
17505TIP3    H174006   1.060   2.404   5.532  0.7526 -0.2341  1.3165
17505TIP3    H274007   1.133   2.272   5.550  2.8527  0.8112  0.7760
17506TIP3   OH274008   1.456   5.617  15.109  0.2804 -0.3362 -0.4736
17506TIP3    H174009   1.374   5.615  15.058  0.0467  0.0070 -0.1146
17506TIP3    H274010   1.490   5.705  15.095  0.7995 -0.6067 -0.9457
17507TIP3   OH274011   4.137   5.875  15.525  0.0501 -0.6049 -0.1585
17507TIP3    H174012   4.077   5.804  15.547 -0.1923  0.3585  2.6561
17507TIP3    H274013   4.081   5.952  15.515  0.2935 -0.7069 -3.3005
17508TIP3   OH274014   2.984   0.071   0.914 -0.0999 -0.0517 -0.3800
17508TIP3    H174015   2.982  -0.023   0.932  1.9764  0.1929  1.6470
17508TIP3    H274016   2.912   0.106   0.965 -0.3783 -0.4548 -0.4905
17509TIP3   OH274017   2.827   4.601   5.095  0.5854 -0.1734 -0.6239
17509TIP3    H174018   2.911   4.632   5.127 -0.1774  0.6884  0.6721
17509TIP3    H274019   2.848   4.525   5.041  2.1726 -0.0198 -0.2724
17510TIP3   OH274020   4.240   3.886  16.721 -0.8425 -0.0049  0.0657
17510TIP3    H174021   4.333   3.908  16.713 -0.8817  0.0587 -0.2328
17510TIP3    H274022   4.239   3.806  16.772 -0.7208  0.9410  1.5994
17511TIP3   OH274023   3.511   2.007   4.353 -0.1285  0.1015 -0.1601
17511TIP3    H174024   3.472   2.088   4.387 -1.2034  0.0694 -1.2758
17511TIP3    H274025   3.461   1.986   4.275 -0.9295 -2.5054  0.9346
17512TIP3   OH274026   1.587   0.573   5.069 -0.4676  0.5257 -0.2215
17512TIP3    H174027   1.536   0.493   5.053 -0.9449  1.2122 -2.4587
17512TIP3    H274028   1.656   0.545   5.129 -2.5676 -0.7692  1.7602
17513TIP3   OH274029   5.117   5.107   3.805  0.6196  0.1865 -0.2830
17513TIP3    H174030   5.185   5.048   3.838  0.9067 -0.0284 -1.2333
17513TIP3    H274031   5.160   5.191   3.795  0.4107  0.3682  0.3335
17514TIP3   OH274032   3.332   5.952  14.158 -0.1747 -0.0621 -0.0590
17514TIP3    H174033   3.294   5.887  14.098 -0.3845  0.5012 -0.5424
17514TIP3    H274034   3.377   5.899  14.224 -0.3982 -0.7052 -0.4080
17515TIP3   OH274035   3.395   0.136  13.783 -0.2182  0.1973 -0.4335
17515TIP3    H174036   3.436   0.053  13.807  0.6866  0.0987 -2.1223
17515TIP3    H274037   3.445   0.165  13.706 -0.2490  2.5136  0.3556
17516TIP3   OH274038   2.450   3.272   0.293  0.3749  0.3650 -0.0276
17516TIP3    H174039   2.441   3.351   0.345  0.4656  0.5992 -0.3633
17516TIP3    H274040   2.383   3.213   0.326  0.2597  0.6100  0.1729
17517TIP3   OH274041   2.657   6.739  17.280  0.2903  0.0112 -0.3514
17517TIP3    H174042   2.674   6.793  17.357 -0.0253  0.5480 -0.6522
17517TIP3    H274043   2.731   6.679  17.277  0.8543  0.6800 -0.2282
17518TIP3   OH274044   4.116   5.573   1.805 -1.0599  0.2804  0.0702
17518TIP3    H174045   4.103   5.549   1.713 -1.7612 -2.0228  0.7124
17518TIP3    H274046   4.034   5.613   1.831 -0.7701  1.1794 -0.3386
17519TIP3   OH274047   3.217   6.287   4.779  0.2852  0.3897  0.2212
17519TIP3    H174048   3.289   6.322   4.727  0.3496 -0.8001 -0.5177
17519TIP3    H274049   3.138   6.320   4.735  0.3459 -0.2995 -0.4249
17520TIP3   OH274050   0.978   5.713   0.055  0.1404  0.2281 -0.2532
17520TIP3    H174051   0.984   5.757   0.141 -0.7323 -2.2896  1.1963
17520TIP3    H274052   0.892   5.672   0.055  1.5591 -3.0579 -0.6340
17521TIP3   OH274053   2.134   3.368  14.410 -0.8161  0.2628 -0.7498
17521TIP3    H174054   2.168   3.340  14.325  0.9879  0.9734 -0.2980
17521TIP3    H274055   2.058   3.422  14.388 -0.4179  0.3755 -1.9226
17522TIP3   OH274056   3.918   4.370  15.794 -0.3347  0.0833  0.1297
17522TIP3    H174057   3.916   4.409  15.882 -2.1209 -1.6324  0.9446
17522TIP3    H274058   3.993   4.311  15.796  0.9471  1.6385 -0.2979
17523TIP3   OH274059   1.373   4.549  15.292  0.0370 -0.3661  0.6140
17523TIP3    H174060   1.427   4.622  15.264  1.0297 -0.8596  1.1731
17523TIP3    H274061   1.350   4.503  15.211  0.1738  0.0457  0.3410
17524TIP3   OH274062   4.910   0.780  16.516 -0.2344 -0.1952  0.1159
17524TIP3    H174063   4.890   0.733  16.435  1.3987 -1.3822  0.3504
17524TIP3    H274064   4.937   0.712  16.577 -2.9919  0.4460  2.2591
17525TIP3   OH274065   1.793   0.044  11.944 -0.2122  0.2060  0.6574
17525TIP3    H174066   1.742  -0.015  12.000 -0.8465  0.0181 -0.0929
17525TIP3    H274067   1.741   0.125  11.942 -0.1424  0.2452  0.4282
17526TIP3   OH274068   1.681   6.338   4.795  0.1295  0.1682  0.0524
17526TIP3    H174069   1.731   6.328   4.876 -0.0066  0.4031  0.1685
17526TIP3    H274070   1.622   6.412   4.813  0.1441  0.2622 -0.2824
17527TIP3   OH274071   4.212   4.344   2.363 -0.3875 -0.4935  0.1215
17527TIP3    H174072   4.178   4.304   2.283 -0.5526 -1.3209  0.5889
17527TIP3    H274073   4.293   4.297   2.380  1.1525  1.5583 -1.0655
17528TIP3   OH274074   2.848   0.900  12.604  0.0375  0.2820 -0.1601
17528TIP3    H174075   2.888   0.970  12.655 -1.9269  0.9062  0.5997
17528TIP3    H274076   2.913   0.879  12.536  3.4412 -1.6253  3.3078
17529TIP3   OH274077   5.206   1.059  14.506 -0.7464  0.2614 -0.0018
17529TIP3    H174078   5.234   0.984  14.558 -1.6702  0.3830  0.7012
17529TIP3    H274079   5.247   1.046  14.421 -0.6582 -0.8773  0.1999
17530TIP3   OH274080   1.139   5.433  13.972  0.0457 -0.8873  0.5419
17530TIP3    H174081   1.082   5.402  14.043  0.4136  1.7806  2.1517
17530TIP3    H274082   1.079   5.478  13.912  0.0485 -1.0310  0.4300
17531TIP3   OH274083   3.981   2.162   3.795  0.3555  0.0980 -0.0827
17531TIP3    H174084   4.068   2.163   3.756  0.6553  0.6961  0.5898
17531TIP3    H274085   3.957   2.069   3.797  1.4533 -0.1925  0.7603
17532TIP3   OH274086   0.997   6.212  10.750 -0.1039 -0.7165  0.1795
17532TIP3    H174087   0.989   6.121  10.777  1.0604 -1.1863 -0.9620
17532TIP3    H274088   1.030   6.208  10.661  1.6656  0.8166  0.6890
17533TIP3   OH274089   6.257   6.048   3.790 -0.4399 -0.1928 -0.2368
17533TIP3    H174090   6.176   6.098   3.779 -0.3007 -0.1811 -1.3504
17533TIP3    H274091   6.257   5.987   3.716  1.2997  0.8509 -1.1658
17534TIP3   OH274092   0.085   4.926  15.824  0.1937 -0.4361 -0.0471
17534TIP3    H174093   0.069   4.834  15.842  2.2038 -0.6203  1.0921
17534TIP3    H274094   0.148   4.926  15.753  0.1043  0.0823 -0.1311
17535TIP3   OH274095   5.237   2.198   0.662 -0.0698 -0.2433  0.1463
17535TIP3    H174096   5.330   2.190   0.642 -0.0123  0.2519  0.2153
17535TIP3    H274097   5.218   2.291   0.658 -1.2447 -0.5002 -2.8153
17536TIP3   OH274098   1.634   4.952  11.577  0.1414  0.9176  0.2897
17536TIP3    H174099   1.711   4.950  11.633  0.3943 -1.4831 -0.0355
17536TIP3    H274100   1.575   5.015  11.619  0.3980 -0.6022  3.2008
17537TIP3   OH274101   4.251   5.926  16.058 -0.3118 -0.0701 -0.3252
17537TIP3    H174102   4.221   5.915  15.967 -1.1690 -0.2568 -0.0350
17537TIP3    H274103   4.236   6.018  16.077 -0.4343 -0.1005 -0.2732
17538TIP3   OH274104   6.321   4.584  12.273  0.1107 -0.2073  0.3764
17538TIP3    H174105   6.265   4.606  12.348  1.0772 -0.2267  1.1186
17538TIP3    H274106   6.367   4.505  12.300 -0.9234 -1.3408 -0.9964
17539TIP3   OH274107   0.544   3.467   5.028 -0.1273  0.2502  0.2777
17539TIP3    H174108   0.587   3.547   5.058  0.0078 -0.2261  1.4142
17539TIP3    H274109   0.584   3.447   4.944  0.3444  0.9826  0.3276
17540TIP3   OH274110   4.324   0.915   2.934  0.3223  0.0522  0.0726
17540TIP3    H174111   4.373   0.833   2.930  0.5408  0.1040  1.2303
17540TIP3    H274112   4.387   0.979   2.967 -0.0398  0.5248 -0.1430
17541TIP3   OH274113   0.405   6.250  14.936 -0.2514  0.8643 -0.7167
17541TIP3    H174114   0.327   6.299  14.964 -0.4890  2.7886 -4.1848
17541TIP3    H274115   0.474   6.316  14.933  0.0180  0.5731 -3.2053
17542TIP3   OH274116   3.603   0.954  12.953 -0.0332  0.1713 -0.1770
17542TIP3    H174117   3.649   0.908  12.883  0.4348  2.3334 -1.3708
17542TIP3    H274118   3.635   0.914  13.034  0.1923 -1.6738 -1.1169
17543TIP3   OH274119   5.453   3.334  13.588  0.4170 -0.3978  0.2406
17543TIP3    H174120   5.400   3.325  13.509  0.7796  0.4187 -0.0982
17543TIP3    H274121   5.535   3.373  13.558  0.5197  0.0118  1.0295
17544TIP3   OH274122   2.306   5.817  11.156 -1.2047 -0.0115  0.4430
17544TIP3    H174123   2.350   5.806  11.071 -2.8331  0.6832 -0.5311
17544TIP3    H274124   2.321   5.908  11.179 -2.4301  0.3383 -0.0907
17545TIP3   OH274125   6.367   5.990  16.055  0.0360  0.0657  0.1107
17545TIP3    H174126   6.440   5.936  16.026  1.5431  2.4821 -0.8177
17545TIP3    H274127   6.306   5.991  15.981  0.6434  0.7081 -0.3862
17546TIP3   OH274128   2.912   6.815  17.194 -0.3272  0.1232 -0.0964
17546TIP3    H174129   2.959   6.839  17.274  1.6064  1.0179 -1.4225
17546TIP3    H274130   2.879   6.899  17.160 -0.5167 -0.1615 -0.6141
17547TIP3   OH274131   0.938   6.342  11.203 -0.0190 -0.4555 -0.8080
17547TIP3    H174132   0.979   6.305  11.282  0.4636  1.4503 -0.1017
17547TIP3    H274133   0.982   6.299  11.131  0.5705 -1.1897 -0.0315
17548TIP3   OH274134   0.672   5.343  11.491  0.3117  0.1625  0.3466
17548TIP3    H174135   0.642   5.311  11.406  2.2856 -0.8413 -0.0276
17548TIP3    H274136   0.766   5.327  11.491  0.1776 -1.2100  3.2705
17549TIP3   OH274137   4.965   3.073  13.940 -0.1043 -0.4343 -0.1760
17549TIP3    H174138   5.038   3.025  13.979  1.0550 -0.1138 -1.8875
17549TIP3    H274139   4.901   3.005  13.918  0.3260 -0.8795 -0.0553
17550TIP3   OH274140   2.862   0.849   0.373  0.3781 -0.7050 -0.8141
17550TIP3    H174141   2.876   0.939   0.400 -0.3298 -0.8710  0.1670
17550TIP3    H274142   2.918   0.797   0.431 -0.3043 -0.9862 -0.3917
17551TIP3   OH274143   3.991   2.990  12.730  0.6051 -0.2336  0.2572
17551TIP3    H174144   4.023   2.930  12.663 -0.8881 -0.5475 -0.2320
17551TIP3    H274145   4.043   3.069  12.718 -0.2165  0.0598 -1.9279
17552TIP3   OH274146   3.851   6.414   1.507  0.4730  0.7120 -0.2631
17552TIP3    H174147   3.813   6.384   1.424 -0.4698 -0.8875  0.6992
17552TIP3    H274148   3.941   6.382   1.505  0.0215 -0.6335 -0.0535
17553TIP3   OH274149   0.667   3.947   5.712  0.0923  0.1026 -0.5558
17553TIP3    H174150   0.633   4.004   5.781  1.5970 -0.6998  0.8994
17553TIP3    H274151   0.762   3.954   5.719  0.2841 -1.0953 -1.6204
17554TIP3   OH274152   4.610   2.211  14.460 -0.7775  0.4407 -0.7271
17554TIP3    H174153   4.545   2.143  14.480  1.0513 -1.4290 -0.7515
17554TIP3    H274154   4.571   2.292  14.494 -1.8548 -1.0545  1.9551
17555TIP3   OH274155   0.502   5.428   1.496  0.3881 -0.4056 -0.2702
17555TIP3    H174156   0.518   5.334   1.499 -0.4608 -0.5375  1.8028
17555TIP3    H274157   0.492   5.454   1.587  2.0677  2.0058 -0.6710
17556TIP3   OH274158   4.933   1.624  15.087 -0.2720 -0.0890 -0.3743
17556TIP3    H174159   4.988   1.701  15.071 -1.1492  1.1433  2.0009
17556TIP3    H274160   4.989   1.550  15.063  1.9081  1.1582  0.5094
17557TIP3   OH274161   5.440   1.645   5.208 -0.1774 -0.3851 -0.4851
17557TIP3    H174162   5.383   1.596   5.267 -0.5788  0.1690 -0.4111
17557TIP3    H274163   5.396   1.729   5.196  1.3869  0.6726  0.8068
17558TIP3   OH274164   0.702   2.444  10.682 -0.0999 -0.3681 -0.2357
17558TIP3    H174165   0.708   2.516  10.746 -1.5291  1.0433 -1.6045
17558TIP3    H274166   0.711   2.365  10.735  2.3224  0.7530  1.2436
17559TIP3   OH274167   0.127   1.127   3.081  0.0325 -0.1369 -0.3171
17559TIP3    H174168   0.143   1.221   3.078  3.0732 -0.4932  0.5931
17559TIP3    H274169   0.068   1.110   3.008 -1.0620  2.5172 -0.1489
17560TIP3   OH274170   0.734   1.873  11.762  0.4854 -0.6093  0.3744
17560TIP3    H174171   0.733   1.948  11.702 -1.0072  0.0574  1.1926
17560TIP3    H274172   0.761   1.800  11.707  0.8602  0.3082 -0.7134
17561TIP3   OH274173   5.081   0.545   1.911 -0.1629  0.8056 -0.4512
17561TIP3    H174174   5.070   0.451   1.895 -0.9281  0.4236  1.9080
17561TIP3    H274175   5.018   0.587   1.854 -0.1875 -0.1500 -1.1521
17562TIP3   OH274176   6.548   3.110  11.310  0.2988 -0.1200  0.2125
17562TIP3    H174177   6.583   3.128  11.222  0.6570  1.8321  0.6990
17562TIP3    H274178   6.535   3.197  11.348 -1.0612 -0.9052  1.6363
17563TIP3   OH274179   4.976   0.950   6.330 -0.0158  0.1099  0.3218
17563TIP3    H174180   4.975   1.020   6.395  2.5693 -0.5479  1.1706
17563TIP3    H274181   5.049   0.893   6.356 -0.7434 -1.7965 -1.4964
17564TIP3   OH274182   2.096   0.012  14.073  0.2396  1.1641  0.4759
17564TIP3    H174183   2.186  -0.005  14.102  0.5190  1.2823 -0.3017
17564TIP3    H274184   2.106   0.060  13.991 -0.4796 -0.9762 -0.9402
17565TIP3   OH274185   3.165   1.378   3.413 -0.0968  0.0985  0.5947
17565TIP3    H174186   3.115   1.403   3.491 -0.8406  0.1589  0.1105
17565TIP3    H274187   3.223   1.452   3.396  0.1833  0.0181  1.1823
17566TIP3   OH274188   2.568   1.907   0.822 -0.4515 -0.2403 -0.0091
17566TIP3    H174189   2.613   1.836   0.868  3.7199  2.0428 -0.0815
17566TIP3    H274190   2.560   1.977   0.888 -1.6297  0.3510 -0.7384
17567TIP3   OH274191   5.515   3.277   5.503 -0.2404 -1.1220  0.0589
17567TIP3    H174192   5.568   3.264   5.424 -0.1753  1.0760 -0.3231
17567TIP3    H274193   5.441   3.331   5.473 -0.0395  0.0320  1.5337
17568TIP3   OH274194   0.779   1.727   5.575 -0.1968  0.3366 -0.1664
17568TIP3    H174195   0.740   1.793   5.633  0.3054  1.1849 -0.7820
17568TIP3    H274196   0.873   1.746   5.578 -0.0353 -0.4546 -0.2320
17569TIP3   OH274197   0.009   1.467   5.528  0.3073  0.5052  0.2944
17569TIP3    H174198   0.054   1.551   5.514  1.0527  0.0624  0.0197
17569TIP3    H274199  -0.058   1.487   5.594  0.3994  1.3460  0.1464
17570TIP3   OH274200   3.429   2.330   1.099 -0.5884 -0.3026 -0.0784
17570TIP3    H174201   3.359   2.352   1.160 -0.3238 -2.8614  1.2810
17570TIP3    H274202   3.500   2.391   1.121 -0.5450 -1.0782  2.1702
17571TIP3   OH274203   2.418   4.611   2.261  0.1148 -0.5757 -0.3080
17571TIP3    H174204   2.380   4.527   2.236 -2.2934  0.3791 -0.2177
17571TIP3    H274205   2.479   4.632   2.191  1.3712 -2.7275  0.0772
17572TIP3   OH274206   4.380   1.937   2.628 -0.9548 -0.1685 -0.2887
17572TIP3    H174207   4.363   1.948   2.534 -0.1453  0.5665 -0.3681
17572TIP3    H274208   4.434   2.013   2.651 -1.1820 -0.3172  0.7867
17573TIP3   OH274209   5.632   0.600  13.163  0.0891  0.4595 -0.3090
17573TIP3    H174210   5.622   0.570  13.073 -0.8909  1.7496 -0.6550
17573TIP3    H274211   5.707   0.660  13.160  0.5382 -0.0802 -0.0970
17574TIP3   OH274212   0.572   0.796   1.973 -0.1335  0.2799  0.5459
17574TIP3    H174213   0.540   0.808   1.883  0.5370  0.1504  0.2911
17574TIP3    H274214   0.495   0.763   2.021 -0.1156 -1.0604 -0.2986
17575TIP3   OH274215   1.673   2.428   3.193  0.2661  0.3900 -0.5866
17575TIP3    H174216   1.673   2.427   3.288  2.1205 -2.0818 -0.5186
17575TIP3    H274217   1.586   2.395   3.169  0.7043 -1.5638  0.3451
17576TIP3   OH274218   1.130   5.363   2.182 -0.1583 -0.6737 -0.0042
17576TIP3    H174219   1.220   5.337   2.161 -0.1937 -1.4446  0.7283
17576TIP3    H274220   1.140   5.422   2.258 -0.2683 -0.7044  0.0343
17577TIP3   OH274221   1.137   5.221   1.046  0.1244 -0.2865 -0.0345
17577TIP3    H174222   1.065   5.186   1.099 -0.5282  2.3138  0.9423
17577TIP3    H274223   1.195   5.146   1.032 -3.2483 -2.8483 -1.8853
17578TIP3   OH274224   1.856   0.870  12.851  0.6542 -0.2955  0.1140
17578TIP3    H174225   1.804   0.821  12.787  0.9196 -0.0751 -0.2727
17578TIP3    H274226   1.813   0.956  12.856  1.7921  0.4042 -1.2832
17579TIP3   OH274227   1.453   3.139  13.924  0.0402  0.1058 -0.4617
17579TIP3    H174228   1.370   3.169  13.961  0.0417 -0.1001 -0.2943
17579TIP3    H274229   1.427   3.084  13.850  0.0076 -0.7775  0.2001
17580TIP3   OH274230   1.359   3.923  14.291  0.0986 -0.2628  0.6916
17580TIP3    H174231   1.348   3.878  14.207  0.4143  1.3636 -0.2726
17580TIP3    H274232   1.438   3.884  14.329  0.0439 -0.9030  0.1694
17581TIP3   OH274233   3.020   6.700   1.322  0.2961 -0.0039 -0.0363
17581TIP3    H174234   3.036   6.665   1.235 -0.9481 -2.0811  0.5114
17581TIP3    H274235   3.102   6.685   1.369 -0.2007 -2.2786  0.1809
17582TIP3   OH274236   1.049   2.964   5.962  0.9411 -0.3599 -0.2086
17582TIP3    H174237   1.056   3.021   6.039  1.4123 -1.9551  0.9694
17582TIP3    H274238   1.009   2.884   5.996  0.4148 -0.7945 -1.8100
17583TIP3   OH274239   0.606   5.284  12.057 -0.0655 -0.1178  0.5692
17583TIP3    H174240   0.549   5.308  11.984 -1.0598  0.7485  1.5822
17583TIP3    H274241   0.636   5.367  12.093 -0.6973 -0.4551  1.9670
17584TIP3   OH274242   1.856   2.437   1.425 -0.0648  0.9733 -0.5192
17584TIP3    H174243   1.762   2.452   1.428  0.1190  2.6914 -1.7482
17584TIP3    H274244   1.883   2.437   1.517 -1.4326 -1.1222 -0.0620
17585TIP3   OH274245   0.934   5.010   1.573  0.5765  0.0602 -0.3886
17585TIP3    H174246   1.010   5.056   1.538  0.3433  0.9975  0.3029
17585TIP3    H274247   0.882   4.985   1.496  1.7567 -0.9381 -0.8950
17586TIP3   OH274248   1.402   5.546  13.939  0.1559 -0.0252 -0.5209
17586TIP3    H174249   1.426   5.521  13.850  2.2706 -0.1096  0.0209
17586TIP3    H274250   1.316   5.507  13.952 -0.2348  0.0378 -2.5261
17587TIP3   OH274251   2.550   3.893  10.498 -0.4041  0.5656 -0.0434
17587TIP3    H174252   2.533   3.941  10.580 -2.3258 -3.1584  1.9869
17587TIP3    H274253   2.619   3.831  10.520  1.2341  1.4729 -2.2601
17588TIP3   OH274254   1.841   6.658   0.507 -0.2870  0.3543 -0.3851
17588TIP3    H174255   1.934   6.661   0.485 -0.1189 -0.0033  0.2502
17588TIP3    H274256   1.814   6.750   0.507  0.2013  0.5060 -0.0515
17589TIP3   OH274257   3.340   5.336   4.796 -0.0112  0.6756  0.3896
17589TIP3    H174258   3.364   5.422   4.762 -0.0585  0.2685 -0.7209
17589TIP3    H274259   3.423   5.298   4.825  0.4320  0.1321 -1.4312
17590TIP3   OH274260   1.823   5.637   1.754 -0.5180 -0.0662 -0.4730
17590TIP3    H174261   1.897   5.640   1.695  0.1005 -1.7224  0.1757
17590TIP3    H274262   1.805   5.544   1.767  0.0731  0.1294  2.7275
17591TIP3   OH274263   4.417   5.853   1.927  0.2836 -0.3265  0.3406
17591TIP3    H174264   4.341   5.835   1.981  0.5875 -1.1921  0.4847
17591TIP3    H274265   4.385   5.846   1.837  0.3863 -1.5698  0.3913
17592TIP3   OH274266   0.846   4.027  13.696  0.3280 -0.5909  1.0379
17592TIP3    H174267   0.922   4.072  13.659 -0.9171  1.5966  0.9296
17592TIP3    H274268   0.836   3.948  13.643 -0.4237  1.5956 -2.4088
17593TIP3   OH274269   0.627   3.709  11.309 -0.2849  0.1937  0.4746
17593TIP3    H174270   0.565   3.639  11.331 -1.0024  0.6618 -0.0081
17593TIP3    H274271   0.664   3.735  11.394  0.6803 -1.3653  0.5840
17594TIP3   OH274272   0.954   1.033   6.154 -0.4151 -0.3203  0.5096
17594TIP3    H174273   1.010   0.982   6.212  0.0998 -1.5612 -0.9950
17594TIP3    H274274   0.904   1.090   6.212  1.1485 -0.4164  2.0228
17595TIP3   OH274275   0.801   3.792   2.592 -0.2357 -0.8141 -0.3615
17595TIP3    H174276   0.834   3.704   2.573  0.5032 -1.0077  1.5178
17595TIP3    H274277   0.858   3.851   2.544 -0.1407 -1.3315 -0.8839
17596TIP3   OH274278   1.244   6.584   6.716 -0.1138 -0.1472  0.1227
17596TIP3    H174279   1.184   6.552   6.649  0.9167 -0.0151 -0.8797
17596TIP3    H274280   1.316   6.522   6.715 -0.2405 -0.3400  1.3677
17597TIP3   OH274281   5.311   2.293   6.416  0.3456 -0.5543  0.7026
17597TIP3    H174282   5.238   2.296   6.354  1.3820 -0.6214 -0.5584
17597TIP3    H274283   5.335   2.200   6.420  0.1376 -0.5893  1.4171
17598TIP3   OH274284   2.936   1.822   1.891 -0.5498  0.1254 -0.2436
17598TIP3    H174285   2.906   1.731   1.890  1.0304 -0.5028  2.4084
17598TIP3    H274286   2.900   1.858   1.972  1.3604  0.9332  0.2775
17599TIP3   OH274287   1.100   3.109  17.129  0.2174  0.1726  0.3087
17599TIP3    H174288   1.031   3.158  17.173  0.0157  0.3446 -0.1852
17599TIP3    H274289   1.054   3.045  17.075  0.4516  0.1011  0.1904
17600TIP3   OH274290   2.883   2.519  11.773  0.4064 -0.2439  0.1500
17600TIP3    H174291   2.902   2.559  11.688  2.6096 -2.3687 -0.4867
17600TIP3    H274292   2.813   2.572  11.809  0.1764  1.4507 -2.4812
17601TIP3   OH274293   5.081   1.619   4.062  0.2245 -0.4005  0.6045
17601TIP3    H174294   5.019   1.552   4.091  0.6886 -1.5358 -0.9029
17601TIP3    H274295   5.042   1.701   4.091 -1.2575 -1.1813  0.9617
17602TIP3   OH274296   3.081   1.776   3.847  0.1188 -0.1435 -0.8173
17602TIP3    H174297   2.988   1.756   3.839  0.1610 -0.9903  0.6275
17602TIP3    H274298   3.114   1.770   3.757 -1.1984  0.1465 -1.3471
17603TIP3   OH274299   3.617   1.132   1.562 -0.2101 -0.1350 -0.2780
17603TIP3    H174300   3.653   1.091   1.484  0.5531 -1.1602  0.5863
17603TIP3    H274301   3.540   1.179   1.531 -0.0278 -0.6805 -1.6106
17604TIP3   OH274302   5.404   3.056   2.135  0.4170 -0.6034 -0.3169
17604TIP3    H174303   5.320   3.041   2.090  1.3267 -1.6460 -1.7503
17604TIP3    H274304   5.469   3.053   2.066  1.7694 -1.0097  0.9254
17605TIP3   OH274305   0.460   6.738   2.064 -0.0642  0.1415  0.4213
17605TIP3    H174306   0.555   6.741   2.077 -0.0332 -0.1774  0.2815
17605TIP3    H274307   0.449   6.701   1.977 -0.3372 -0.6767  0.7974
17606TIP3   OH274308   6.633   3.768   4.979  0.8268 -0.2380  0.1518
17606TIP3    H174309   6.601   3.841   5.033  2.0056 -0.4062  1.1116
17606TIP3    H274310   6.659   3.701   5.042 -1.4049 -2.0728 -0.7310
17607TIP3   OH274311   2.527   4.520  15.943 -0.7529  0.4534  0.9024
17607TIP3    H174312   2.602   4.495  15.890 -1.5123  1.2401 -0.6014
17607TIP3    H274313   2.536   4.468  16.023  0.9288 -0.0742  0.4120
17608TIP3   OH274314   4.109   2.805  12.583 -0.6610 -0.2800 -0.1333
17608TIP3    H174315   4.203   2.809  12.601 -0.8779 -0.4012  1.1795
17608TIP3    H274316   4.100   2.736  12.517  0.1781 -0.2563 -0.2789
17609TIP3   OH274317   3.050   2.989   1.237  0.3435  0.2121  0.0996
17609TIP3    H174318   3.033   2.932   1.163 -0.7523 -0.2091  0.6503
17609TIP3    H274319   2.965   2.999   1.280  0.2961  2.8982 -0.4078
17610TIP3   OH274320   0.920   5.514   1.591 -0.4045  0.2065  0.3189
17610TIP3    H174321   0.885   5.429   1.567 -0.2889 -0.6987  3.0168
17610TIP3    H274322   0.848   5.575   1.577 -1.0605 -0.6225  0.0297
17611TIP3   OH274323   0.148   1.810   5.972 -0.0333  0.0934  0.1051
17611TIP3    H174324   0.164   1.757   5.893 -0.5273  0.9715 -0.5969
17611TIP3    H274325   0.054   1.828   5.971  0.1232  0.9764  0.3356
17612TIP3   OH274326   1.157   6.100   4.406 -0.0177 -0.4630  0.0437
17612TIP3    H174327   1.241   6.055   4.411  0.5529  0.3640 -1.3661
17612TIP3    H274328   1.099   6.050   4.463  1.9743  0.2228  2.9206
17613TIP3   OH274329   6.488   3.452  13.607  0.4952  0.3723 -0.1939
17613TIP3    H174330   6.411   3.506  13.624  1.1547  0.5951  2.4556
17613TIP3    H274331   6.488   3.387  13.677  4.2362  2.1773  1.7819
17614TIP3   OH274332   4.686   2.083  13.382  0.3377 -0.2646  0.1304
17614TIP3    H174333   4.745   2.156  13.364 -0.3603  0.0771 -0.8544
17614TIP3    H274334   4.676   2.039  13.298 -1.0787 -0.1080  0.1934
17615TIP3   OH274335   6.673   4.511  11.531 -0.2977  0.8852  0.3321
17615TIP3    H174336   6.723   4.530  11.452  1.6277 -0.6525  1.0992
17615TIP3    H274337   6.604   4.451  11.502  1.4040 -1.0366 -0.0151
17616TIP3   OH274338   3.442   3.789  12.352  0.0681  0.0127 -0.7012
17616TIP3    H174339   3.474   3.732  12.422 -1.0769 -1.4510 -1.3230
17616TIP3    H274340   3.348   3.797  12.369 -0.0733  0.3201 -1.5891
17617TIP3   OH274341   4.909   4.230  16.612 -0.0324 -0.8147 -0.6962
17617TIP3    H174342   4.983   4.290  16.606 -1.0150  0.6014  0.4235
17617TIP3    H274343   4.854   4.252  16.538 -0.0713 -0.7902 -0.6592
17618TIP3   OH274344   4.310   1.764   3.517 -0.3862 -0.1858 -1.2766
17618TIP3    H174345   4.305   1.852   3.554  0.7888 -0.1540 -1.1780
17618TIP3    H274346   4.268   1.772   3.431  1.3601  0.9254 -2.0696
17619TIP3   OH274347   1.379   4.288  11.823 -0.5653 -0.2113  0.5467
17619TIP3    H174348   1.366   4.347  11.897  2.5154  1.1801  0.1281
17619TIP3    H274349   1.403   4.204  11.862  0.9241  0.4802  1.2047
17620TIP3   OH274350   3.528   6.021   0.528  0.3306 -0.4536 -0.2651
17620TIP3    H174351   3.439   6.052   0.512 -0.0756 -1.9009 -1.1011
17620TIP3    H274352   3.583   6.077   0.474 -0.1822 -0.0906 -0.4191
17621TIP3   OH274353   5.377   3.863  11.228 -0.2676  0.4040 -0.1209
17621TIP3    H174354   5.322   3.938  11.208 -1.9316 -0.8560 -0.4639
17621TIP3    H274355   5.332   3.789  11.188  0.7091 -0.9534  1.1805
17622TIP3   OH274356   2.314   3.454  12.084  0.1953 -0.2997 -0.4387
17622TIP3    H174357   2.395   3.450  12.135  1.0998 -0.4070 -1.8342
17622TIP3    H274358   2.280   3.364  12.085 -0.7304  0.0170  1.3592
17623TIP3   OH274359   4.278   2.257   3.202 -0.2304  0.1300 -0.4615
17623TIP3    H174360   4.295   2.225   3.113  1.0208  1.0208 -0.5669
17623TIP3    H274361   4.361   2.245   3.248 -0.9858 -0.7202  0.7334
17624TIP3   OH274362   3.004   4.281   5.835  0.1204  0.0074 -0.6069
17624TIP3    H174363   3.086   4.299   5.879 -0.2842 -0.3376  0.3141
17624TIP3    H274364   2.963   4.212   5.887 -2.0192  2.0478  0.6192
17625TIP3   OH274365   1.965   6.100   6.422  0.3287  0.0770  0.4175
17625TIP3    H174366   1.924   6.013   6.418 -1.2934  0.8321 -0.6220
17625TIP3    H274367   2.024   6.095   6.497 -0.5959 -1.5547  1.0995
17626TIP3   OH274368   4.438   1.526  16.112  0.1893 -0.0246  0.1279
17626TIP3    H174369   4.438   1.611  16.155  0.2902  0.6328 -1.1354
17626TIP3    H274370   4.525   1.518  16.073 -0.3032 -0.0221 -1.0319
17627TIP3   OH274371   3.904   2.513  11.841 -0.7456  0.0796  0.6237
17627TIP3    H174372   3.931   2.421  11.841 -2.1247 -0.3601  0.2651
17627TIP3    H274373   3.961   2.556  11.905  3.4776  0.1294 -2.7143
17628TIP3   OH274374   1.856   3.409   1.695 -0.5278 -0.1944 -0.4390
17628TIP3    H174375   1.793   3.338   1.687 -1.8035  0.8896 -0.3114
17628TIP3    H274376   1.812   3.476   1.747  0.9960  0.3149  0.2675
17629TIP3   OH274377   5.326   5.270  16.997  0.3211  0.1307  0.8091
17629TIP3    H174378   5.379   5.319  17.059 -0.9502  0.2507  1.8516
17629TIP3    H274379   5.376   5.272  16.916  1.5981  0.7586  1.5799
17630TIP3   OH274380   4.797   6.309  12.174  0.2227 -0.1039  0.1560
17630TIP3    H174381   4.880   6.354  12.157  0.4103 -0.3313  0.4656
17630TIP3    H274382   4.799   6.232  12.117  1.6321 -1.8272  2.3929
17631TIP3   OH274383   6.714   5.405  12.941  0.6377  0.3931  0.6844
17631TIP3    H174384   6.804   5.377  12.952  1.1516  0.1868 -2.8937
17631TIP3    H274385   6.685   5.363  12.860 -2.1833  1.6455  0.9009
17632TIP3   OH274386   5.448   0.131   6.357  0.4138 -0.0874  0.1630
17632TIP3    H174387   5.357   0.101   6.362  0.8292 -1.3791  0.5210
17632TIP3    H274388   5.445   0.223   6.382 -1.0279  0.4126 -1.6689
17633TIP3   OH274389   5.584   5.160   2.887 -0.1041  0.7178  0.2697
17633TIP3    H174390   5.590   5.196   2.798 -1.7807  2.7970  0.8787
17633TIP3    H274391   5.619   5.230   2.943 -0.9405  0.2915  1.3597
17634TIP3   OH274392   4.406   4.892   1.594 -0.5223 -1.0219 -0.0337
17634TIP3    H174393   4.473   4.916   1.530 -0.5022 -1.1013 -0.0419
17634TIP3    H274394   4.396   4.971   1.648 -0.0842 -1.1641  0.2647
17635TIP3   OH274395   1.857   4.611  16.276  0.4010 -0.5034  0.2847
17635TIP3    H174396   1.864   4.606  16.180 -1.0565  1.0855  0.0346
17635TIP3    H274397   1.933   4.664  16.302  2.0760 -2.7788  0.3187
17636TIP3   OH274398   3.314   4.609  11.524  0.3296  0.6144 -0.0511
17636TIP3    H174399   3.292   4.701  11.507 -2.8965 -0.0735 -0.2497
17636TIP3    H274400   3.255   4.560  11.467  0.4381 -1.6098  1.6359
17637TIP3   OH274401   6.111   6.039   5.323  0.8194 -0.3542  0.4426
17637TIP3    H174402   6.178   6.086   5.274  0.7888  0.7442  1.4007
17637TIP3    H274403   6.063   6.108   5.369  0.2581 -1.2785  1.2682
17638TIP3   OH274404   1.290   3.043   3.313  0.6839 -0.0997  0.1454
17638TIP3    H174405   1.324   3.000   3.235 -1.3552  1.5780 -1.8189
17638TIP3    H274406   1.221   2.984   3.345  1.4442 -0.7328  0.6548
17639TIP3   OH274407   2.112   1.415   5.173 -0.1350 -0.2000 -0.0197
17639TIP3    H174408   2.091   1.403   5.266  0.3730  0.0134  0.1233
17639TIP3    H274409   2.088   1.506   5.155  0.1696 -0.1128  0.0115
17640TIP3   OH274410   0.588   6.636   3.163  0.4891  0.0512 -0.5414
17640TIP3    H174411   0.525   6.587   3.110 -0.4166 -0.6727  1.1229
17640TIP3    H274412   0.592   6.588   3.246  3.7101 -0.2493 -0.7690
17641TIP3   OH274413   2.801   5.468  14.193 -0.5563  0.3162 -0.2680
17641TIP3    H174414   2.865   5.420  14.141 -0.8645  1.2218 -1.5164
17641TIP3    H274415   2.837   5.466  14.282  1.1250  0.6539 -0.9112
17642TIP3   OH274416   3.787   4.729   3.706 -0.2524 -0.0561 -0.4136
17642TIP3    H174417   3.816   4.814   3.673  1.0655  0.1426  1.1400
17642TIP3    H274418   3.782   4.741   3.801 -0.2442 -1.6620 -0.1891
17643TIP3   OH274419   6.705   0.441  15.807 -0.2216 -0.2540  0.6652
17643TIP3    H174420   6.632   0.385  15.834 -0.6808 -1.1022 -2.0373
17643TIP3    H274421   6.672   0.530  15.817 -2.6999 -0.5916 -2.7129
17644TIP3   OH274422   4.209   6.322  16.701  0.4113  0.4602  0.6443
17644TIP3    H174423   4.301   6.306  16.680  0.3997  0.8247  0.3177
17644TIP3    H274424   4.206   6.413  16.729 -0.1390  0.9714 -1.0223
17645TIP3   OH274425   5.083   5.199  12.099  0.8120  0.2789  0.0359
17645TIP3    H174426   5.045   5.216  12.013 -0.6178  1.5218  0.8756
17645TIP3    H274427   5.134   5.277  12.119 -1.0479  1.2165  1.4239
17646TIP3   OH274428   4.798   4.659  15.051  0.0970  0.0852 -0.6829
17646TIP3    H174429   4.798   4.705  14.967  1.4217  2.2816  0.4364
17646TIP3    H274430   4.779   4.727  15.115 -1.1986 -1.6048  0.8195
17647TIP3   OH274431   6.149   0.607   5.796  0.5939 -0.0669  0.4484
17647TIP3    H174432   6.164   0.523   5.841  1.3195 -0.5741 -0.6935
17647TIP3    H274433   6.206   0.603   5.719 -2.0081 -0.1019 -1.6318
17648TIP3   OH274434   4.754   6.742   2.769  0.3709 -0.2824  0.2520
17648TIP3    H174435   4.664   6.716   2.789  1.1893 -1.3887  2.9344
17648TIP3    H274436   4.748   6.834   2.745 -1.5316 -0.5377 -0.4322
17649TIP3   OH274437   4.010   1.214   0.642  0.1644 -0.4692  0.6693
17649TIP3    H174438   4.100   1.240   0.659  0.2163 -0.5094  0.4591
17649TIP3    H274439   3.958   1.293   0.658  0.5380  0.4808 -2.1728
17650TIP3   OH274440   1.235   4.926   0.233 -0.0448 -0.8201  0.4038
17650TIP3    H174441   1.183   4.954   0.309  0.8632 -0.5346  0.9269
17650TIP3    H274442   1.245   4.831   0.245 -0.2021 -0.8319  0.4472
17651TIP3   OH274443   5.341   2.076  16.170  0.0031 -0.5416  0.1430
17651TIP3    H174444   5.306   1.997  16.212  1.1668 -2.0392 -1.5869
17651TIP3    H274445   5.365   2.048  16.082 -1.2947  2.2233 -1.1970
17652TIP3   OH274446   4.169   1.511   2.489  0.0362 -0.8711 -0.2658
17652TIP3    H174447   4.249   1.494   2.538  1.1429  1.3304 -1.1817
17652TIP3    H274448   4.103   1.530   2.556  1.2203  0.9108  0.4584
17653TIP3   OH274449   3.727   4.584   4.922  0.1296 -0.6682 -0.1817
17653TIP3    H174450   3.678   4.569   5.003  0.6739  0.6849  0.4289
17653TIP3    H274451   3.792   4.513   4.920 -2.0189 -2.7496 -1.2219
17654TIP3   OH274452   4.202   0.248   3.266  0.4629 -0.0983 -0.1424
17654TIP3    H174453   4.199   0.202   3.182  1.9041 -0.2456 -0.1364
17654TIP3    H274454   4.236   0.183   3.328  0.6878  0.4104  0.2711
17655TIP3   OH274455   0.927   6.561  12.318 -0.0895 -0.2875  0.3495
17655TIP3    H174456   0.941   6.471  12.289  0.2114 -1.0037  2.5363
17655TIP3    H274457   0.935   6.613  12.238  0.5315 -2.1045 -0.8481
17656TIP3   OH274458   2.435   5.547   2.131 -0.3709  0.2437  0.1991
17656TIP3    H174459   2.452   5.558   2.225  0.0430 -0.3513  0.2022
17656TIP3    H274460   2.340   5.545   2.124 -0.4628 -2.1422  0.9448
17657TIP3   OH274461   2.601   6.352  17.236 -0.0934  0.0152 -0.3931
17657TIP3    H174462   2.672   6.298  17.269  1.3629  2.1274  0.1637
17657TIP3    H274463   2.534   6.348  17.305  0.6897  0.2042  0.4052
17658TIP3   OH274464   6.552   0.953  14.703 -0.7962  0.0409 -0.5948
17658TIP3    H174465   6.562   1.001  14.785 -0.0109  0.2774 -0.8202
17658TIP3    H274466   6.546   1.020  14.636  1.5429 -0.1143 -1.0540
17659TIP3   OH274467   1.441   5.146  11.666 -0.1635 -0.1541 -0.3483
17659TIP3    H174468   1.368   5.090  11.690 -0.9034  0.4514 -1.1380
17659TIP3    H274469   1.419   5.179  11.579 -0.3102  2.2561  0.5348
17660TIP3   OH274470   5.073   5.841   1.396 -0.1554 -0.3304 -0.4899
17660TIP3    H174471   5.064   5.797   1.480 -3.5403 -1.2032 -1.1526
17660TIP3    H274472   5.044   5.776   1.332 -2.1113  1.7432 -1.8291
17661TIP3   OH274473   6.463   6.205  15.728  0.3457  0.0387 -0.2949
17661TIP3    H174474   6.401   6.266  15.767 -0.4427 -0.6983 -0.3406
17661TIP3    H274475   6.418   6.120  15.733  1.7112 -0.6707  0.4511
17662TIP3   OH274476   2.509   5.599   2.404 -0.1221 -0.2065  0.0807
17662TIP3    H174477   2.449   5.606   2.478 -1.3492  0.5880 -0.9389
17662TIP3    H274478   2.501   5.684   2.359  2.1959  0.1289  0.2184
17663TIP3   OH274479   0.292   5.850   5.149  0.0285  0.1225  0.8784
17663TIP3    H174480   0.347   5.811   5.217 -0.9595 -0.9852  1.0626
17663TIP3    H274481   0.220   5.788   5.137  0.2738  0.1897 -1.3320
17664TIP3   OH274482   5.107   1.680  10.833 -1.1881  0.5455 -0.0834
17664TIP3    H174483   5.065   1.595  10.850  0.3799 -0.5831 -1.4572
17664TIP3    H274484   5.114   1.721  10.919 -0.9040 -1.2700  0.8024
17665TIP3   OH274485   2.995   0.713   1.196  0.3559 -0.0223 -0.1758
17665TIP3    H174486   2.989   0.656   1.273  2.0503  1.0289  0.7993
17665TIP3    H274487   3.071   0.681   1.148  0.5786  0.6333 -0.2715
17666TIP3   OH274488   0.095   2.858  13.599  0.0151  0.2857  0.4647
17666TIP3    H174489   0.074   2.947  13.569 -0.5372  0.2555  0.7642
17666TIP3    H274490   0.026   2.803  13.562  0.0687  0.0561  0.7056
17667TIP3   OH274491   4.506   5.997  10.496  0.1988  0.0322  0.1027
17667TIP3    H174492   4.432   6.013  10.556  1.2102 -0.2657  1.4802
17667TIP3    H274493   4.498   6.065  10.429 -2.1993 -0.9087 -0.6903
17668TIP3   OH274494   1.241   3.971  16.489 -0.4079 -1.3861 -0.7788
17668TIP3    H174495   1.216   4.042  16.548  2.7086  1.0489 -2.0890
17668TIP3    H274496   1.262   3.898  16.548 -2.7396 -0.9803  0.6779
17669TIP3   OH274497   2.346   6.476  16.313 -0.5886 -0.1396 -0.1166
17669TIP3    H174498   2.361   6.395  16.264 -0.3400 -0.5533  0.6292
17669TIP3    H274499   2.433   6.508  16.335 -0.7011 -0.0349  0.1807
17670TIP3   OH274500   5.091   5.856  17.110 -0.3745 -0.1500  0.1414
17670TIP3    H174501   5.013   5.815  17.073 -1.0694  1.9244 -0.8987
17670TIP3    H274502   5.060   5.900  17.189 -0.8151  2.2943 -1.2737
17671TIP3   OH274503   4.336   0.236   5.220 -0.0243  0.1657  0.0019
17671TIP3    H174504   4.358   0.222   5.128  1.8653  0.4143  0.3711
17671TIP3    H274505   4.243   0.218   5.226  0.4196 -3.0848 -1.3113
17672TIP3   OH274506   6.217   0.938   3.048  0.4489  0.2872 -0.2078
17672TIP3    H174507   6.237   0.985   2.967 -1.8204 -0.7194 -1.4532
17672TIP3    H274508   6.192   1.006   3.110 -1.2070  0.9032 -1.4751
17673TIP3   OH274509   4.966   0.792  13.742  0.1941  0.6077  0.0639
17673TIP3    H174510   5.060   0.770  13.740  0.5084  1.8939 -0.9655
17673TIP3    H274511   4.956   0.844  13.822 -0.3253 -2.1122  1.8820
17674TIP3   OH274512   0.102   2.388  11.913  0.0265  0.0482 -0.1391
17674TIP3    H174513   0.181   2.443  11.917  0.7161 -0.8963 -0.4559
17674TIP3    H274514   0.030   2.451  11.904  0.8155  0.8942 -0.7979
17675TIP3   OH274515   1.924   5.477   4.822 -0.1263  0.0908 -0.2031
17675TIP3    H174516   1.921   5.402   4.762  1.7374  0.9146 -1.4056
17675TIP3    H274517   1.965   5.547   4.772 -2.2065  2.1065  0.7490
17676TIP3   OH274518   0.696   3.579   1.677 -0.1436 -0.6794 -0.4401
17676TIP3    H174519   0.695   3.616   1.765  0.1347  0.3082 -0.8363
17676TIP3    H274520   0.615   3.529   1.671  1.0753 -3.0544  1.2959
17677TIP3   OH274521   2.884   3.009   3.418 -0.4089 -0.5243 -0.9065
17677TIP3    H174522   2.801   2.968   3.443 -1.0277  0.3900 -1.4294
17677TIP3    H274523   2.942   2.994   3.493 -1.0905 -1.0342 -0.4739
17678TIP3   OH274524   2.556   6.192   1.667  0.0207 -0.9434  0.0046
17678TIP3    H174525   2.472   6.195   1.713  0.8165 -0.0159  1.4784
17678TIP3    H274526   2.620   6.174   1.735  1.1421 -0.5697 -0.9210
17679TIP3   OH274527   3.530   2.823  13.471 -0.8633 -0.2265 -0.5807
17679TIP3    H174528   3.577   2.741  13.481 -0.5512 -0.1870 -1.5965
17679TIP3    H274529   3.504   2.847  13.560  0.3092 -0.6781 -0.0941
17680TIP3   OH274530   6.464   0.402   1.348  0.6909  0.1357 -0.0753
17680TIP3    H174531   6.522   0.328   1.328 -1.9277 -2.2770  0.5352
17680TIP3    H274532   6.417   0.374   1.426 -0.7148  2.3229 -0.0698
17681TIP3   OH274533   3.389   3.544   1.278 -0.0805  0.2269  0.0072
17681TIP3    H174534   3.347   3.466   1.315 -2.7898  1.0745 -1.0096
17681TIP3    H274535   3.363   3.543   1.186  0.6337  1.8376 -0.2313
17682TIP3   OH274536   1.808   2.632  15.612  0.1116  0.3627  0.3181
17682TIP3    H174537   1.885   2.688  15.604  0.5904 -0.0735  1.6548
17682TIP3    H274538   1.803   2.610  15.705 -2.0682  0.9715  0.3930
17683TIP3   OH274539   3.157   5.057   0.561  0.0441 -0.1596  0.1714
17683TIP3    H174540   3.221   5.099   0.619 -0.0570  1.9547 -1.1390
17683TIP3    H274541   3.174   5.096   0.475 -2.5978  0.0514 -0.3456
17684TIP3   OH274542   2.797   2.562   4.276  0.1792 -0.1584 -0.8200
17684TIP3    H174543   2.881   2.516   4.270  0.4434  0.4815 -2.6213
17684TIP3    H274544   2.820   2.655   4.277 -0.5210  0.0398 -1.9233
17685TIP3   OH274545   3.226   1.575   5.807 -0.3662  0.2841  0.1873
17685TIP3    H174546   3.251   1.652   5.757  0.2289  0.2538  0.4294
17685TIP3    H274547   3.309   1.538   5.838 -0.7188  0.3397  1.2517
17686TIP3   OH274548   5.463   2.074  13.341 -0.4464  0.2289 -0.4758
17686TIP3    H174549   5.516   2.113  13.411 -1.5562 -2.2458  1.9357
17686TIP3    H274550   5.514   1.999  13.311 -1.0419 -0.1580 -0.5401
17687TIP3   OH274551   6.251   1.357   2.645 -0.1197  0.0869 -0.3077
17687TIP3    H174552   6.242   1.447   2.613 -0.8115 -0.0787 -0.5881
17687TIP3    H274553   6.184   1.308   2.599  1.1096 -0.8626 -1.1375
17688TIP3   OH274554   1.755   5.162  16.074  0.7118  0.1571 -0.0849
17688TIP3    H174555   1.663   5.181  16.055  0.4540 -0.3631  0.6075
17688TIP3    H274556   1.779   5.093  16.012  0.9717  1.0771 -1.0274
17689TIP3   OH274557   3.445   5.764  16.899  0.1366  0.6477  0.5037
17689TIP3    H174558   3.392   5.828  16.948 -1.0861  0.1687 -0.1456
17689TIP3    H274559   3.422   5.780  16.808 -0.5560 -1.0151  0.3573
17690TIP3   OH274560   4.956   5.874  12.696 -0.1293  0.3028 -0.3036
17690TIP3    H174561   4.945   5.956  12.647  1.0607 -0.0244 -1.1730
17690TIP3    H274562   5.024   5.894  12.761  0.9611 -0.2698 -1.2376
17691TIP3   OH274563   5.069   3.728   5.436 -0.2594  0.5801  0.4420
17691TIP3    H174564   5.021   3.810   5.450 -0.8493  0.4977 -0.9775
17691TIP3    H274565   5.009   3.673   5.386  0.8002 -0.0446 -0.1832
17692TIP3   OH274566   4.880   1.769   6.535 -0.4538  0.1866  0.0178
17692TIP3    H174567   4.917   1.761   6.623  1.3151  1.3525 -0.5683
17692TIP3    H274568   4.822   1.693   6.526  1.4061 -1.4670  1.2024
17693TIP3   OH274569   2.660   1.142  13.520  0.6383 -0.0927 -0.5404
17693TIP3    H174570   2.598   1.076  13.489 -0.3331  0.7003 -0.3292
17693TIP3    H274571   2.621   1.175  13.601  0.5618  1.4939 -1.1895
17694TIP3   OH274572   0.434   1.455   4.658 -0.0039  0.0285  0.1733
17694TIP3    H174573   0.489   1.534   4.660 -1.2017  0.9180 -0.6837
17694TIP3    H274574   0.391   1.458   4.573  0.6420 -2.0894 -0.2908
17695TIP3   OH274575   2.296   4.747  10.451  0.5445  1.0277  0.0032
17695TIP3    H174576   2.297   4.729  10.545  0.9624 -0.5476 -0.2690
17695TIP3    H274577   2.323   4.838  10.443  3.2740  0.4127  1.2703
17696TIP3   OH274578   5.858   2.736   6.168 -0.0891  0.0757 -0.0236
17696TIP3    H174579   5.795   2.790   6.120 -0.8131 -0.8036 -0.1032
17696TIP3    H274580   5.813   2.714   6.250 -1.2086 -3.0041 -1.2817
17697TIP3   OH274581   1.088   1.264   4.796 -0.4106  0.0430  0.4728
17697TIP3    H174582   1.169   1.214   4.780 -0.0787  0.8038 -0.3348
17697TIP3    H274583   1.033   1.205   4.847  0.1749 -0.9621 -0.0203
17698TIP3   OH274584   4.279   4.391  11.323 -0.0911 -0.6986 -0.8416
17698TIP3    H174585   4.257   4.481  11.348  1.7046  0.2324 -2.3040
17698TIP3    H274586   4.239   4.337  11.390 -1.4021  1.1834 -0.0180
17699TIP3   OH274587   0.267   0.644  13.266  0.4248 -0.1595 -0.0850
17699TIP3    H174588   0.250   0.552  13.245 -0.7325  0.0734 -0.2665
17699TIP3    H274589   0.362   0.652  13.264  0.4991 -0.8637 -2.2359
17700TIP3   OH274590   5.348   0.205  16.929  0.4887 -0.4545  0.6003
17700TIP3    H174591   5.436   0.235  16.954  0.7181  0.0355 -0.6996
17700TIP3    H274592   5.361   0.114  16.902  0.4229 -0.6602  1.2343
17701TIP3   OH274593   6.181   5.688  14.824  0.3750 -0.1473 -0.2567
17701TIP3    H174594   6.113   5.735  14.874 -0.6158 -0.8099 -0.9510
17701TIP3    H274595   6.258   5.745  14.830  0.0623  0.1707  1.3575
17702TIP3   OH274596   4.502   4.035  14.278 -0.0058  0.1992  0.3020
17702TIP3    H174597   4.415   4.035  14.239  0.6134  1.2945 -1.1525
17702TIP3    H274598   4.554   3.979  14.220  0.6488  0.9015  0.1952
17703TIP3   OH274599   1.026   5.930   3.351  0.1965  0.0234  0.2162
17703TIP3    H174600   1.047   5.967   3.436  4.0021  0.1361 -0.6243
17703TIP3    H274601   0.983   6.001   3.303 -1.0846  0.2574  1.6089
17704TIP3   OH274602   1.709   4.440  11.792 -0.0464 -0.5845  0.3004
17704TIP3    H174603   1.799   4.408  11.792  0.8895  1.6356 -2.3044
17704TIP3    H274604   1.716   4.533  11.769 -2.9372  0.0418  1.4645
17705TIP3   OH274605   2.564   5.256  14.312  0.7083  0.4394 -0.1195
17705TIP3    H174606   2.493   5.219  14.363  0.8074 -2.3221 -1.8054
17705TIP3    H274607   2.624   5.292  14.378 -0.9892  0.5514  1.4468
17706TIP3   OH274608   0.245   0.019  14.890 -0.4670 -0.0947 -0.0953
17706TIP3    H174609   0.272   0.043  14.978  0.9992 -0.0123 -0.5378
17706TIP3    H274610   0.247   0.101  14.841 -1.4190 -0.1132 -0.1927
17707TIP3   OH274611   1.004   4.984  16.781 -0.6803 -0.5683  0.0714
17707TIP3    H174612   0.942   4.968  16.709  0.3578  0.1964 -1.0310
17707TIP3    H274613   1.051   5.063  16.755  1.9279 -2.0334  0.0318
17708TIP3   OH274614   4.831   4.940  13.620 -0.0965 -0.1005  0.0336
17708TIP3    H174615   4.769   4.901  13.680  1.0248 -1.7423  0.2045
17708TIP3    H274616   4.837   4.878  13.547  0.8579  0.3209 -0.2760
17709TIP3   OH274617   3.009   4.840   5.858 -0.3264  0.0141 -0.0432
17709TIP3    H174618   2.997   4.756   5.902  0.1806  0.9442  2.0073
17709TIP3    H274619   3.021   4.903   5.929 -0.0246  1.7306 -1.5283
17710TIP3   OH274620   2.806   3.292   5.830  0.5021  0.6081 -0.2331
17710TIP3    H174621   2.887   3.243   5.847  0.4066  0.4266 -0.2944
17710TIP3    H274622   2.811   3.316   5.737 -0.4566 -1.1941 -0.8098
17711TIP3   OH274623   5.230   3.078  13.067 -0.1790  0.7130 -0.0351
17711TIP3    H174624   5.206   2.985  13.067 -0.1756  0.6885  1.8465
17711TIP3    H274625   5.324   3.078  13.049 -0.1385  0.3326  0.1593
17712TIP3   OH274626   2.487   1.150   4.376 -0.2547 -0.1665 -0.0629
17712TIP3    H174627   2.528   1.063   4.369  0.2248  0.1851 -2.6736
17712TIP3    H274628   2.394   1.133   4.368 -0.1011 -0.3944 -1.6300
17713TIP3   OH274629   0.799   5.131  13.764 -0.1961 -0.1176 -0.2791
17713TIP3    H174630   0.715   5.093  13.789  0.0841 -2.0190 -1.9469
17713TIP3    H274631   0.856   5.056  13.750  0.9337  0.9823 -1.9603
17714TIP3   OH274632   5.926   5.211   2.226 -0.0885  0.3363 -0.0841
17714TIP3    H174633   5.953   5.168   2.307  2.9298 -1.2473 -1.7432
17714TIP3    H274634   5.966   5.299   2.231 -0.2176  0.3733  0.3005
17715TIP3   OH274635   1.322   3.146  10.844  0.1596  0.1681  0.1974
17715TIP3    H174636   1.327   3.240  10.826 -0.1329  0.2128  0.3566
17715TIP3    H274637   1.398   3.110  10.797  0.8192  0.6031  0.8976
17716TIP3   OH274638   2.717   5.761  16.837  0.9815 -0.5525 -0.1511
17716TIP3    H174639   2.699   5.668  16.824 -3.2843 -0.0700  0.8343
17716TIP3    H274640   2.645   5.806  16.794 -0.0419  1.9926  3.7013
17717TIP3   OH274641   1.625   0.725   0.457  0.3340 -0.1526 -0.2718
17717TIP3    H174642   1.538   0.742   0.419 -1.1350 -1.7855  2.0493
17717TIP3    H274643   1.657   0.810   0.484  0.8484  0.8928 -3.7332
17718TIP3   OH274644   3.978   6.261  16.113 -1.4290  0.2181  0.2067
17718TIP3    H174645   3.962   6.166  16.122 -1.1061 -0.3376 -3.5627
17718TIP3    H274646   4.019   6.286  16.196  1.9707 -3.7644  0.0622
17719TIP3   OH274647   2.838   3.528  13.875  0.5464 -0.1777  0.1820
17719TIP3    H174648   2.752   3.571  13.870  0.3743 -0.4477  0.7526
17719TIP3    H274649   2.901   3.600  13.871  0.2950  0.0239 -0.2188
17720TIP3   OH274650   4.459   5.879  13.369 -0.2959  0.3205  0.0179
17720TIP3    H174651   4.392   5.944  13.343 -1.0385  0.0066  1.0733
17720TIP3    H274652   4.411   5.816  13.423  0.8628  0.0854  0.8019
17721TIP3   OH274653   0.555   2.318   4.062 -0.4545 -0.0681  0.7705
17721TIP3    H174654   0.465   2.299   4.036 -1.1566  2.2775  1.2436
17721TIP3    H274655   0.547   2.354   4.151  1.1454 -1.3044  1.4623
17722TIP3   OH274656   4.228   6.653   2.932  0.6292  0.4062 -0.2086
17722TIP3    H174657   4.214   6.579   2.991 -0.5838  1.0777  0.3622
17722TIP3    H274658   4.195   6.622   2.847 -1.5360  0.8583  0.4142
17723TIP3   OH274659   5.449   2.743   5.666 -0.0613 -0.5046 -0.0704
17723TIP3    H174660   5.356   2.731   5.684 -0.2333 -0.0222 -0.5902
17723TIP3    H274661   5.465   2.836   5.684  0.9640 -1.1387  2.7217
17724TIP3   OH274662   5.912   5.551   1.473 -0.2089  0.2213  1.1188
17724TIP3    H174663   5.949   5.536   1.386  1.2202 -1.5013  1.9692
17724TIP3    H274664   5.825   5.587   1.456 -0.6492 -1.6630 -1.0868
17725TIP3   OH274665   1.247   0.622   1.594  0.1892  0.1692  0.1081
17725TIP3    H174666   1.321   0.648   1.649 -0.7592  1.1478  0.9853
17725TIP3    H274667   1.219   0.537   1.630 -1.1234  1.3000  1.9812
17726TIP3   OH274668   6.025   2.527   2.757  0.2216 -0.3100  0.3592
17726TIP3    H174669   5.983   2.442   2.741  0.4960 -0.4610  0.4269
17726TIP3    H274670   5.954   2.583   2.789 -0.0386 -0.4022 -0.0517
17727TIP3   OH274671   2.736   4.351  15.839  0.2970 -0.6129  0.3754
17727TIP3    H174672   2.769   4.343  15.929  1.6078 -2.6784 -0.2231
17727TIP3    H274673   2.731   4.261  15.807  0.7612  0.1093 -1.9364
17728TIP3   OH274674   0.622   1.205  15.489  0.4569 -0.2577 -0.1128
17728TIP3    H174675   0.654   1.132  15.541  0.2011  0.0014  0.4081
17728TIP3    H274676   0.661   1.192  15.402 -0.0793 -1.3612 -0.2042
17729TIP3   OH274677   2.976   2.028   1.689  0.1972 -0.2428  0.2874
17729TIP3    H174678   2.978   1.935   1.712 -0.4126 -0.0239  1.3260
17729TIP3    H274679   3.058   2.043   1.642 -0.7514 -1.8082 -2.0317
17730TIP3   OH274680   1.266   4.494  12.294  0.2628  0.1592  0.2083
17730TIP3    H174681   1.313   4.450  12.365  1.2023  1.0171  0.1393
17730TIP3    H274682   1.191   4.438  12.277 -0.0910  0.0244  2.0017
17731TIP3   OH274683   4.711   3.805   4.537  0.2935  0.1594 -0.6893
17731TIP3    H174684   4.638   3.856   4.501  1.5787  1.8590 -1.0091
17731TIP3    H274685   4.787   3.836   4.489  1.4316 -0.6214  0.5578
17732TIP3   OH274686   3.993   1.073   1.310  0.5498 -0.2033 -0.3389
17732TIP3    H174687   4.041   1.123   1.244 -0.9367  1.5317 -0.1942
17732TIP3    H274688   4.033   1.099   1.394  0.5014 -0.1015 -0.3468
17733TIP3   OH274689   6.654   4.080  12.850 -0.8039 -0.3183 -0.9352
17733TIP3    H174690   6.677   4.102  12.941  0.9577 -0.8300 -1.2289
17733TIP3    H274691   6.626   4.163  12.812  1.1037  0.5073 -0.6690
17734TIP3   OH274692   3.194   5.874  11.657  0.4701 -0.2459 -0.4011
17734TIP3    H174693   3.182   5.865  11.562 -1.8450 -0.5489 -0.1378
17734TIP3    H274694   3.263   5.812  11.679  1.3428  0.1239 -1.9198
17735TIP3   OH274695   1.690   0.300  11.850 -0.2247  0.3245  0.7003
17735TIP3    H174696   1.756   0.362  11.880  0.2916 -0.4472  1.1771
17735TIP3    H274697   1.606   0.342  11.872 -0.0081  2.2308 -1.7049
17736TIP3   OH274698   1.666   3.916   0.241 -0.3835  0.1668 -0.2564
17736TIP3    H174699   1.583   3.959   0.222 -0.1043  2.2323  2.5575
17736TIP3    H274700   1.726   3.988   0.259  1.0654 -1.3308  1.2748
17737TIP3   OH274701   5.075   5.884   2.928 -0.3085 -0.4032  0.2943
17737TIP3    H174702   5.097   5.804   2.976  0.8599  0.8542  1.9746
17737TIP3    H274703   5.144   5.892   2.862 -1.0011 -1.2762 -0.5722
17738TIP3   OH274704   5.026   6.724  14.535  0.1304  0.6104 -0.2079
17738TIP3    H174705   5.013   6.734  14.629  2.4871  1.3831  0.0995
17738TIP3    H274706   5.112   6.682  14.527 -0.7819 -1.0942 -2.0147
17739TIP3   OH274707   2.078   2.719  12.328  0.6008  0.1485 -0.0308
17739TIP3    H174708   2.026   2.789  12.368  2.4431  0.7776  1.3599
17739TIP3    H274709   2.098   2.751  12.240  0.7035  0.9948  0.2898
17740TIP3   OH274710   0.395   5.679  16.934  0.1683 -0.4414 -0.1494
17740TIP3    H174711   0.446   5.700  17.012 -0.3992  1.7633 -0.3310
17740TIP3    H274712   0.318   5.634  16.968  0.5391 -0.6772  0.4155
17741TIP3   OH274713   3.615   6.132   2.568 -0.4959  0.0613  0.5993
17741TIP3    H174714   3.700   6.089   2.579 -0.4648 -0.7478 -2.1064
17741TIP3    H274715   3.552   6.061   2.580 -0.5476 -0.3061 -1.4984
17742TIP3   OH274716   2.560   6.825   1.227 -0.8703  0.6487  0.0951
17742TIP3    H174717   2.586   6.892   1.290  0.4827  0.7329 -0.5134
17742TIP3    H274718   2.577   6.742   1.272  0.4238  0.7038 -0.2428
17743TIP3   OH274719   3.747   3.128   3.425  0.0238 -0.0314  0.2869
17743TIP3    H174720   3.719   3.214   3.394 -0.4292 -0.2669  0.0484
17743TIP3    H274721   3.832   3.145   3.465 -0.8205  0.8473  1.8043
17744TIP3   OH274722   4.363   5.534  15.240  0.2404  0.5020 -0.5210
17744TIP3    H174723   4.397   5.502  15.324 -1.6036 -0.8856 -0.2319
17744TIP3    H274724   4.414   5.487  15.174 -1.0749 -1.7001 -0.0931
17745TIP3   OH274725   6.261   0.926  16.249 -0.2941  0.9948  0.3481
17745TIP3    H174726   6.261   1.006  16.197  0.2494  0.3480 -0.6738
17745TIP3    H274727   6.169   0.899  16.250 -0.2255  0.6038 -0.9748
17746TIP3   OH274728   5.125   0.039  12.574  0.6890  0.3168 -0.2465
17746TIP3    H174729   5.049   0.070  12.623  1.1137 -0.9724  1.3029
17746TIP3    H274730   5.109   0.067  12.484 -3.2477 -2.6779 -0.7473
17747TIP3   OH274731   5.187   5.429   2.137 -0.2452  0.2930 -0.3119
17747TIP3    H174732   5.242   5.360   2.175 -0.4994  0.6426  0.7140
17747TIP3    H274733   5.242   5.507   2.141 -0.9222  0.7308  1.0819
17748TIP3   OH274734   2.843   1.445   6.820  0.1732  0.5266  0.0467
17748TIP3    H174735   2.748   1.454   6.806  0.5685  3.2977 -1.5111
17748TIP3    H274736   2.874   1.400   6.741  0.1341 -1.2512  0.9742
17749TIP3   OH274737   2.358   5.612   1.648 -0.5192 -0.0599 -0.2935
17749TIP3    H174738   2.399   5.608   1.734  1.0347 -2.1714 -1.0476
17749TIP3    H274739   2.415   5.668   1.596 -0.2584 -0.5184 -0.5094
17750TIP3   OH274740   5.092   3.312   1.635 -0.1269  0.2455 -0.6649
17750TIP3    H174741   5.165   3.294   1.694  0.8048  0.8711 -1.5952
17750TIP3    H274742   5.015   3.317   1.692  0.7425  0.7882  0.4802
17751TIP3   OH274743   3.711   2.445   5.099  0.4389 -0.3611  0.0303
17751TIP3    H174744   3.696   2.371   5.158  0.5395 -0.3138  0.1167
17751TIP3    H274745   3.676   2.521   5.147 -0.9361 -0.5477 -0.6380
17752TIP3   OH274746   6.162   5.604   4.261 -0.5888 -0.1259  0.2028
17752TIP3    H174747   6.247   5.570   4.289 -1.2747 -0.8060  1.5794
17752TIP3    H274748   6.165   5.697   4.282 -0.4605 -0.2987  0.9563
17753TIP3   OH274749   6.684   6.239   1.114  0.0808  0.4656  0.2724
17753TIP3    H174750   6.645   6.325   1.129 -0.3855  0.6163 -1.5504
17753TIP3    H274751   6.630   6.200   1.045  2.6613  0.3927 -1.8589
17754TIP3   OH274752   1.550   0.767   2.866  0.3207 -0.3540  0.8173
17754TIP3    H174753   1.596   0.690   2.900  3.4919  0.4085 -1.3412
17754TIP3    H274754   1.607   0.841   2.887 -1.3853  1.1167  0.5322
17755TIP3   OH274755   1.550   2.670   6.512 -0.0396  0.3564  0.4551
17755TIP3    H174756   1.471   2.647   6.561  1.9583 -1.5745  3.0901
17755TIP3    H274757   1.565   2.594   6.454 -0.4298  1.0289 -0.5613
17756TIP3   OH274758   0.777   0.708  15.920  0.8465 -0.2632 -0.0296
17756TIP3    H174759   0.737   0.623  15.904  0.0529 -0.2385  1.6918
17756TIP3    H274760   0.862   0.688  15.959  1.4837 -0.2703 -1.3687
17757TIP3   OH274761   3.167   5.724  15.102  0.6618  0.2151  0.2360
17757TIP3    H174762   3.100   5.793  15.101 -0.3390 -0.7305 -0.4963
17757TIP3    H274763   3.245   5.767  15.136 -0.2003  1.4654  0.7174
17758TIP3   OH274764   2.081   5.409  16.721 -0.0045 -0.1162  0.4923
17758TIP3    H174765   2.123   5.466  16.657 -2.0465  1.3330  0.3777
17758TIP3    H274766   2.043   5.338  16.669  3.1927 -2.2117  0.6940
17759TIP3   OH274767   6.539   1.579  12.004 -0.6823 -0.3058  0.1991
17759TIP3    H174768   6.604   1.592  11.935  0.1917  1.9318  1.3349
17759TIP3    H274769   6.482   1.510  11.970 -0.6269  1.0346 -2.9947
17760TIP3   OH274770   5.764   6.106  15.423  1.0721 -0.0046 -0.5093
17760TIP3    H174771   5.799   6.195  15.419  0.7336  0.0826 -2.1014
17760TIP3    H274772   5.801   6.069  15.503  0.4546  1.8699  0.6994
17761TIP3   OH274773   6.796   2.752   2.530  0.1226 -0.0634 -0.1504
17761TIP3    H174774   6.789   2.687   2.460  1.4792  1.5662 -1.8997
17761TIP3    H274775   6.722   2.811   2.514  0.8826  0.7495 -0.7126
17762TIP3   OH274776   4.075   6.715  17.295 -0.0659 -0.3872 -0.1487
17762TIP3    H174777   4.103   6.783  17.233  0.8794  0.2945  0.9930
17762TIP3    H274778   4.043   6.644  17.239 -0.9499  0.9201 -1.3829
17763TIP3   OH274779   6.611   0.781   3.334  0.0608 -0.0862 -0.2330
17763TIP3    H174780   6.593   0.726   3.410  0.6530  2.1476  1.6205
17763TIP3    H274781   6.626   0.719   3.262 -0.8127 -2.2577  1.3761
17764TIP3   OH274782   2.531   6.556   5.721  0.9894  0.0319 -0.2258
17764TIP3    H174783   2.570   6.642   5.735  0.4816  0.3351 -0.5981
17764TIP3    H274784   2.538   6.512   5.805  0.6646  0.6884  0.1511
17765TIP3   OH274785   5.295   5.050  10.606  0.3010  0.3095  0.0454
17765TIP3    H174786   5.284   5.140  10.577 -1.6115  0.5587  1.3258
17765TIP3    H274787   5.209   5.010  10.592  0.2997 -0.5050  2.0324
17766TIP3   OH274788   1.997   2.375   3.938  0.2288 -0.1955  0.1564
17766TIP3    H174789   2.024   2.425   4.015 -1.4012 -2.0675  2.0700
17766TIP3    H274790   2.079   2.358   3.891  1.2914  0.9410  1.4909
17767TIP3   OH274791   0.581   2.516   5.666  0.2111  0.0646 -0.4467
17767TIP3    H174792   0.625   2.529   5.583  0.3863 -0.9812 -0.5352
17767TIP3    H274793   0.508   2.578   5.665  0.2490  0.1084 -1.3488
17768TIP3   OH274794   0.138   3.004   4.909 -0.7943 -0.2810 -0.4753
17768TIP3    H174795   0.058   2.972   4.951 -0.0384 -0.4969  0.8694
17768TIP3    H274796   0.184   2.925   4.882 -0.0530 -0.2752  0.6908
17769TIP3   OH274797   0.231   2.122   5.650  0.2570 -0.6474 -0.7494
17769TIP3    H174798   0.273   2.155   5.570  0.8818 -1.0334 -0.5801
17769TIP3    H274799   0.255   2.186   5.717 -0.1712 -0.3875 -0.8350
17770TIP3   OH274800   4.562   4.407   5.604 -0.7726  0.0204 -0.2230
17770TIP3    H174801   4.547   4.422   5.698 -2.4196  0.9129 -0.5805
17770TIP3    H274802   4.593   4.492   5.572  2.0244 -0.8807 -0.1408
17771TIP3   OH274803   3.239   0.756  13.143 -0.0845 -0.2913  0.0482
17771TIP3    H174804   3.319   0.803  13.165  0.7442 -1.9998  0.8194
17771TIP3    H274805   3.170   0.805  13.188  0.2181  2.1339 -1.8722
17772TIP3   OH274806   4.181   0.076   5.481 -0.5199  0.2805  0.1844
17772TIP3    H174807   4.177   0.171   5.492  0.9298  0.5026 -0.9359
17772TIP3    H274808   4.274   0.056   5.475 -0.7722 -1.2898  0.8733
17773TIP3   OH274809   4.638   4.674  12.794 -0.2167 -0.6560  0.5579
17773TIP3    H174810   4.724   4.632  12.788 -0.7071 -1.7365  0.7135
17773TIP3    H274811   4.585   4.612  12.845 -1.6791 -1.0417 -1.3241
17774TIP3   OH274812   6.315   0.767   2.190  0.1934  0.3750 -0.1971
17774TIP3    H174813   6.344   0.813   2.112 -0.7445  0.8009 -0.3081
17774TIP3    H274814   6.241   0.818   2.222  0.6809  0.3144  1.0846
17775TIP3   OH274815   1.088   2.353   4.219  0.4834  0.0073 -0.0604
17775TIP3    H174816   1.050   2.269   4.193  1.0133 -0.8549  1.7952
17775TIP3    H274817   1.174   2.355   4.176  1.1403 -1.1628  1.1341
17776TIP3   OH274818   3.395   1.922   2.427 -0.2250  0.1412 -0.3503
17776TIP3    H174819   3.364   1.875   2.349 -1.5334  0.3677  0.0046
17776TIP3    H274820   3.393   1.857   2.497 -0.0792  0.2102 -0.2823
17777TIP3   OH274821   6.664   6.775  10.914 -0.0068  0.0184 -0.0991
17777TIP3    H174822   6.598   6.721  10.957  1.3505 -0.8500  0.9519
17777TIP3    H274823   6.650   6.760  10.820 -0.5832 -1.0105  0.1431
17778TIP3   OH274824   4.800   2.770   3.770 -0.0354  0.0392  0.4901
17778TIP3    H174825   4.748   2.792   3.693  1.7251  0.3606 -0.6573
17778TIP3    H274826   4.889   2.794   3.747  0.8996 -1.9347  1.8044
17779TIP3   OH274827   5.649   4.587  14.625 -0.3254 -0.2672  0.2365
17779TIP3    H174828   5.608   4.670  14.651 -1.6205 -0.3382 -1.3743
17779TIP3    H274829   5.590   4.520  14.659  0.4741 -0.5451  1.1253
17780TIP3   OH274830   6.779   5.220  14.976  0.1491 -0.5941 -0.1862
17780TIP3    H174831   6.770   5.191  15.067  3.0787 -1.0505  0.0871
17780TIP3    H274832   6.830   5.301  14.982  1.0705 -1.0471 -1.4348
17781TIP3   OH274833   2.877   6.595   0.101  0.5025 -0.3906  0.3223
17781TIP3    H174834   2.818   6.535   0.147 -1.9172  0.7524 -1.0532
17781TIP3    H274835   2.852   6.682   0.132  2.0887  0.1069  0.3002
17782TIP3   OH274836   0.918   5.300   2.376  0.3882  0.3461 -0.3188
17782TIP3    H174837   0.916   5.279   2.282 -0.0821 -0.2612 -0.1732
17782TIP3    H274838   1.004   5.268   2.405 -0.5191 -1.9699  0.0174
17783TIP3   OH274839   2.733   3.541  13.283 -0.1119  0.4302  0.0621
17783TIP3    H174840   2.709   3.560  13.374 -0.4190 -1.1388  0.3341
17783TIP3    H274841   2.652   3.556  13.234 -0.3165 -0.0458  0.2512
17784TIP3   OH274842   5.662   3.169  17.140  0.2513 -0.2876  0.3344
17784TIP3    H174843   5.704   3.106  17.082  1.5560 -0.3866  1.3520
17784TIP3    H274844   5.643   3.119  17.220  1.9422  0.7183  1.4250
17785TIP3   OH274845   5.253   5.177   1.489  0.1220 -0.1120  0.3975
17785TIP3    H174846   5.184   5.217   1.541 -1.7489  2.2668 -3.4034
17785TIP3    H274847   5.214   5.097   1.454  0.9362 -1.0521  1.5335
17786TIP3   OH274848   0.881   3.556  14.165 -0.0437 -0.1103  1.0187
17786TIP3    H174849   0.841   3.588  14.246 -1.1815 -0.0599  0.4445
17786TIP3    H274850   0.832   3.598  14.095  0.7234 -0.4078  0.2812
17787TIP3   OH274851   2.438   5.121  11.102 -0.2101 -0.3125  0.2850
17787TIP3    H174852   2.452   5.211  11.131  0.5241 -0.1157 -0.6356
17787TIP3    H274853   2.522   5.077  11.117  0.7645  0.1942 -2.8427
17788TIP3   OH274854   2.775   4.532   4.734  0.5161 -0.6739 -0.2343
17788TIP3    H174855   2.682   4.545   4.712  1.0065  1.8733 -1.0830
17788TIP3    H274856   2.819   4.529   4.649  1.2250 -2.3655  0.1440
17789TIP3   OH274857   1.107   2.791   1.168  0.0164  0.4835 -0.4541
17789TIP3    H174858   1.063   2.776   1.084 -0.1946 -1.1135 -0.0983
17789TIP3    H274859   1.047   2.756   1.233  0.5223  1.0036  0.3111
17790TIP3   OH274860   4.222   4.654   3.938  0.7995 -0.2305 -0.3545
17790TIP3    H174861   4.306   4.669   3.894  0.0068  2.4376 -1.1636
17790TIP3    H274862   4.181   4.740   3.940 -2.5387 -1.6504 -1.2695
17791TIP3   OH274863   0.410   2.664   2.411 -0.4443  0.0049  0.5218
17791TIP3    H174864   0.386   2.718   2.336  0.4444 -1.4797 -0.9219
17791TIP3    H274865   0.454   2.588   2.372  0.8732 -0.3874  2.6133
17792TIP3   OH274866   1.804   4.896   0.621 -0.3203 -0.3121 -0.0477
17792TIP3    H174867   1.850   4.949   0.686 -0.8597 -0.4041  0.4167
17792TIP3    H274868   1.786   4.957   0.549  0.6026 -0.3022 -0.2782
17793TIP3   OH274869   0.324   4.219   5.112 -0.0780 -0.2450  0.6122
17793TIP3    H174870   0.263   4.258   5.175 -0.1466 -0.2419  0.5440
17793TIP3    H274871   0.407   4.265   5.126 -0.3691  0.5081 -0.0295
17794TIP3   OH274872   0.124   6.369  15.577  0.7064 -0.6074 -0.1472
17794TIP3    H174873   0.093   6.310  15.508 -0.8405 -0.0495  0.0329
17794TIP3    H274874   0.163   6.311  15.642  1.2697 -1.2234 -1.0120
17795TIP3   OH274875   4.484   0.158   3.524 -0.0510  0.0416 -0.1096
17795TIP3    H174876   4.393   0.182   3.540  0.3024  1.6054 -0.3413
17795TIP3    H274877   4.496   0.167   3.430  0.8692  1.9329  0.1371
17796TIP3   OH274878   2.103   6.395   4.390 -0.1331 -0.6239 -0.7115
17796TIP3    H174879   2.119   6.317   4.442  2.4986 -0.2746 -0.8964
17796TIP3    H274880   2.075   6.362   4.304  0.0111 -1.3113 -0.4989
17797TIP3   OH274881   3.337   2.680  13.696  0.2030  0.4879  0.1152
17797TIP3    H174882   3.342   2.646  13.607 -2.8449  0.6952 -0.2371
17797TIP3    H274883   3.355   2.773  13.688 -0.6013  0.6084 -0.4100
17798TIP3   OH274884   1.191   6.822  16.247  0.3861  0.1344  0.2731
17798TIP3    H174885   1.258   6.876  16.288  1.0021 -0.4637  0.0676
17798TIP3    H274886   1.220   6.732  16.261 -0.2990 -0.1318  0.0554
17799TIP3   OH274887   2.491   5.900   1.137  0.5496  0.5677  0.4780
17799TIP3    H174888   2.538   5.975   1.173  1.1935  0.7419 -0.6538
17799TIP3    H274889   2.437   5.937   1.067  0.6892  0.0197  0.0709
17800TIP3   OH274890   4.166   5.419  11.170 -0.2785  0.0548  0.0366
17800TIP3    H174891   4.261   5.405  11.164 -0.5355 -1.3251 -1.3433
17800TIP3    H274892   4.149   5.494  11.112  0.1553  1.4564  1.6527
17801TIP3   OH274893   4.269   3.760   4.298 -0.5221  0.0864  0.1190
17801TIP3    H174894   4.238   3.850   4.308 -0.9278 -0.1579  1.1540
17801TIP3    H274895   4.260   3.722   4.385  1.0918 -0.5198  0.0458
17802TIP3   OH274896   4.529   4.853   0.289  0.1950 -0.4413 -0.2565
17802TIP3    H174897   4.468   4.900   0.232 -0.3474  0.8458  1.2906
17802TIP3    H274898   4.588   4.922   0.322  0.6380 -1.1867  0.5428
17803TIP3   OH274899   2.044   5.370  12.519 -0.6023 -0.0441  0.3411
17803TIP3    H174900   2.139   5.363  12.508 -0.7294  0.4055 -1.2504
17803TIP3    H274901   2.022   5.456  12.483 -1.7987 -0.7682 -0.7223
17804TIP3   OH274902   3.298   2.230   1.429  0.2091 -0.1084 -0.2914
17804TIP3    H174903   3.304   2.288   1.505 -1.2426  1.0884 -1.0565
17804TIP3    H274904   3.251   2.281   1.363  1.4738 -1.0956 -2.0370
17805TIP3   OH274905   4.809   3.144   0.590 -0.1326 -0.0017 -0.2317
17805TIP3    H174906   4.805   3.093   0.671 -0.1588  0.1071 -0.1640
17805TIP3    H274907   4.839   3.231   0.618  0.2362 -0.0770 -0.3935
17806TIP3   OH274908   6.402   2.412  14.429  0.2239  1.1195  0.1597
17806TIP3    H174909   6.359   2.335  14.468 -0.7232 -0.0296 -2.8731
17806TIP3    H274910   6.456   2.376  14.359  3.1778  2.9321  1.3595
17807TIP3   OH274911   4.870   4.908   5.256  0.7141  0.1731 -0.0380
17807TIP3    H174912   4.934   4.882   5.323  1.8477  2.5941 -0.0616
17807TIP3    H274913   4.849   4.999   5.278 -1.4604 -0.0239 -1.0687
17808TIP3   OH274914   4.923   0.504  12.738 -0.2280  0.4046 -0.1558
17808TIP3    H174915   4.860   0.449  12.691 -0.9600  0.7861  0.3634
17808TIP3    H274916   4.996   0.444  12.759  0.1435  0.2405 -1.7879
17809TIP3   OH274917   1.101   2.182  10.793 -0.2958  0.3169 -0.3173
17809TIP3    H174918   1.038   2.111  10.808  0.3905 -1.0031 -2.9890
17809TIP3    H274919   1.079   2.216  10.706  2.1276  0.3365 -1.0119
17810TIP3   OH274920   1.569   1.004  16.706 -0.2885 -0.1066  0.5760
17810TIP3    H174921   1.664   1.009  16.692 -0.2558 -1.2245  0.3463
17810TIP3    H274922   1.555   0.916  16.741 -1.2427  0.0741  0.6638
17811TIP3   OH274923   4.188   2.506  12.002  0.0325 -0.6398  0.0902
17811TIP3    H174924   4.134   2.580  12.030  0.0093 -0.4774 -0.3752
17811TIP3    H274925   4.151   2.431  12.050  0.3705 -0.2805  0.9380
17812TIP3   OH274926   5.869   1.018  15.015 -0.0659 -0.1669  0.4006
17812TIP3    H174927   5.851   0.984  15.103 -1.0270  1.4354  0.8596
17812TIP3    H274928   5.952   1.064  15.024  0.4107 -0.9555  0.1687
17813TIP3   OH274929   4.801   4.332   3.697  0.3210  0.0965 -0.1807
17813TIP3    H174930   4.877   4.291   3.657 -0.3865 -2.6922  1.1139
17813TIP3    H274931   4.735   4.263   3.701 -1.4937  1.7610  0.8512
17814TIP3   OH274932   1.657   3.693  15.728  0.2277 -0.3104  0.2396
17814TIP3    H174933   1.618   3.617  15.684  2.3006 -0.3760 -1.6411
17814TIP3    H274934   1.604   3.767  15.698 -0.7164 -0.7958  0.6758
17815TIP3   OH274935   6.739   3.228  15.373  0.2390  0.0407 -0.1564
17815TIP3    H174936   6.660   3.217  15.427 -0.1829 -1.2291 -0.9991
17815TIP3    H274937   6.807   3.179  15.420 -0.1306 -1.0736 -0.7467
17816TIP3   OH274938   6.577   3.909  10.847 -0.3781  0.5311 -0.0045
17816TIP3    H174939   6.526   3.866  10.916  0.0825  0.5730  0.3612
17816TIP3    H274940   6.625   3.837  10.804  0.0394  0.6183  0.3119
17817TIP3   OH274941   5.244   4.594  16.746  0.1110 -0.2101  0.0242
17817TIP3    H174942   5.305   4.633  16.683  0.1577  0.4953  0.4960
17817TIP3    H274943   5.191   4.667  16.777 -0.6185 -0.7333  0.0170
17818TIP3   OH274944   0.070   5.716   0.398  0.6479  0.3183  0.2285
17818TIP3    H174945   0.135   5.667   0.448  0.5532  1.1665  1.2331
17818TIP3    H274946   0.001   5.652   0.378  0.8725 -0.1302  0.8648
17819TIP3   OH274947   0.421   4.006   6.186 -0.2824  0.3610 -0.1961
17819TIP3    H174948   0.403   3.916   6.161  0.3460  0.2474 -0.2557
17819TIP3    H274949   0.503   4.001   6.235  1.3741  1.2608 -2.7159
17820TIP3   OH274950   1.025   1.209   6.418  0.1527 -0.6702 -0.1149
17820TIP3    H174951   1.082   1.143   6.378 -0.4534 -0.2393 -1.7604
17820TIP3    H274952   0.944   1.206   6.367  1.2903  3.6929 -2.7340
17821TIP3   OH274953   4.619   3.606  11.608  0.5753 -0.6050  0.0990
17821TIP3    H174954   4.556   3.542  11.577  1.3425 -1.3131 -0.0412
17821TIP3    H274955   4.704   3.574  11.575  0.8049  1.3730 -1.4808
17822TIP3   OH274956   6.101   3.489  13.901 -0.0731  0.4630  0.0170
17822TIP3    H174957   6.025   3.470  13.957  0.6644 -0.5126  0.7173
17822TIP3    H274958   6.175   3.452  13.948  0.8551  1.4064 -0.6559
17823TIP3   OH274959   5.133   1.797   1.941 -0.0585 -0.2034 -0.1857
17823TIP3    H174960   5.088   1.724   1.982 -2.3269  0.1924 -1.7740
17823TIP3    H274961   5.073   1.871   1.950  0.8745  0.7260 -1.2093
17824TIP3   OH274962   4.795   0.868   3.547 -0.6537  0.2211 -0.0870
17824TIP3    H174963   4.799   0.895   3.638  0.5745  1.6156 -0.5212
17824TIP3    H274964   4.856   0.926   3.501 -1.7260  0.0043 -1.9081
17825TIP3   OH274965   3.547   1.463   1.649  0.2910 -0.0389  0.5773
17825TIP3    H174966   3.609   1.512   1.702 -0.5206  0.7017  0.8778
17825TIP3    H274967   3.461   1.495   1.678 -0.1720  0.5764 -1.3431
17826TIP3   OH274968   5.457   1.322  11.316  0.2827 -0.7475  0.3113
17826TIP3    H174969   5.403   1.334  11.238 -0.4053 -0.2906  0.8486
17826TIP3    H274970   5.420   1.382  11.381  2.9849  1.5261 -0.0508
17827TIP3   OH274971   2.402   1.016  15.015 -0.0678  0.0173  0.6906
17827TIP3    H174972   2.428   1.004  14.923 -1.0537  0.4897  0.3318
17827TIP3    H274973   2.307   1.004  15.014 -0.4406  2.4665  1.1926
17828TIP3   OH274974   6.730   2.794  12.220  0.0267 -0.0695  0.1062
17828TIP3    H174975   6.668   2.750  12.278 -1.0908  0.9825 -0.2548
17828TIP3    H274976   6.788   2.842  12.279  0.5393 -1.0747  0.4464
17829TIP3   OH274977   5.567   2.377  17.125 -0.8329  0.5894  0.1727
17829TIP3    H174978   5.511   2.411  17.055 -0.8883  0.4704  0.1583
17829TIP3    H274979   5.622   2.452  17.150  0.6652  0.1040 -1.4351
17830TIP3   OH274980   3.273   5.187  12.978  0.1676 -0.1410 -0.2223
17830TIP3    H174981   3.215   5.237  13.035 -0.4112 -0.7591 -0.2553
17830TIP3    H274982   3.235   5.195  12.891  1.3016  1.1787 -0.6381
17831TIP3   OH274983   4.707   1.149  10.557 -0.1487  0.0355  0.2806
17831TIP3    H174984   4.752   1.064  10.552 -0.9248 -0.3216 -1.5321
17831TIP3    H274985   4.614   1.127  10.566 -0.4613  0.6479 -1.1918
17832TIP3   OH274986   0.800   0.927   1.942  0.5190 -0.1042  0.0632
17832TIP3    H174987   0.718   0.884   1.965  0.4893 -0.5121 -0.7810
17832TIP3    H274988   0.861   0.902   2.011  0.2678 -0.8054  0.0294
17833TIP3   OH274989   3.501   5.347  13.359  0.3533 -0.2558 -0.7188
17833TIP3    H174990   3.507   5.442  13.345  1.4595  0.1877  2.0563
17833TIP3    H274991   3.411   5.333  13.389  1.0229  0.5061  1.8956
17834TIP3   OH274992   0.518   5.178  13.212 -0.3857 -0.1680 -0.2094
17834TIP3    H174993   0.575   5.103  13.230 -2.0934 -1.0620  2.0180
17834TIP3    H274994   0.499   5.215  13.298 -0.9912  1.7830 -1.1228
17835TIP3   OH274995   5.913   2.657   0.256  0.2030 -0.4685  0.0316
17835TIP3    H174996   5.863   2.657   0.337 -1.7591  1.7053 -1.0589
17835TIP3    H274997   5.953   2.744   0.252  0.3721 -0.5869 -1.2707
17836TIP3   OH274998   0.631   1.448  15.829  0.7433  0.5238  0.1247
17836TIP3    H174999   0.647   1.534  15.868 -5.0148  2.0630  0.0024
17836TIP3    H275000   0.639   1.463  15.734  2.7709  0.0055  0.1810
17837TIP3   OH275001   6.321   5.816  12.674  0.6775 -0.3578  0.4351
17837TIP3    H175002   6.367   5.891  12.634 -0.4923 -0.4058 -1.1111
17837TIP3    H275003   6.239   5.853  12.705 -0.0344 -1.0332 -0.5968
17838TIP3   OH275004   1.954   5.669   6.001  0.3053 -0.0586 -0.3614
17838TIP3    H175005   2.037   5.710   6.021 -0.2684  0.5528  0.9004
17838TIP3    H275006   1.900   5.740   5.966 -0.6953  0.3736  1.8445
17839TIP3   OH275007   1.861   6.455   6.669 -0.3014  0.2169  0.1117
17839TIP3    H175008   1.836   6.489   6.755  0.5091  0.8845  0.1028
17839TIP3    H275009   1.954   6.476   6.662  0.2739 -2.1388  0.1246
17840TIP3   OH275010   1.957   3.563  14.984  0.2125  0.9490  0.3498
17840TIP3    H175011   1.915   3.505  15.048 -1.1402  1.1807 -0.2924
17840TIP3    H275012   2.000   3.630  15.038 -0.3453  0.7738  1.0355
17841TIP3   OH275013   5.248   3.393   5.458 -0.5818  0.0051  0.7079
17841TIP3    H175014   5.209   3.363   5.375  0.7355  0.9030 -0.2840
17841TIP3    H275015   5.237   3.488   5.457 -0.7128  0.0068  1.6648
17842TIP3   OH275016   6.294   6.566   2.164 -0.3639 -0.1511 -0.1697
17842TIP3    H175017   6.254   6.643   2.123 -0.3927  0.1669  0.4524
17842TIP3    H275018   6.226   6.530   2.221  0.4545  0.8529  1.5065
17843TIP3   OH275019   5.067   0.388  13.088 -0.0168 -0.5457  0.0597
17843TIP3    H175020   5.076   0.296  13.063 -0.0399 -0.8947  1.2713
17843TIP3    H275021   4.975   0.398  13.111  0.4888 -0.9723  2.5895
17844TIP3   OH275022   0.585   2.584  13.241  0.5739  0.0041  0.3071
17844TIP3    H175023   0.620   2.656  13.188  0.9227 -0.4494 -0.0820
17844TIP3    H275024   0.497   2.613  13.264  0.6173  0.4470 -0.0602
17845TIP3   OH275025   2.973   4.720  16.753  0.0777  0.0483  0.7303
17845TIP3    H175026   2.956   4.626  16.751 -1.7085  0.3547 -0.0866
17845TIP3    H275027   2.970   4.747  16.661  4.1505  0.3875  0.5137
17846TIP3   OH275028   0.348   4.725  16.914  0.5518 -0.1952 -0.3791
17846TIP3    H175029   0.423   4.766  16.873  1.9651 -0.5729  1.6821
17846TIP3    H275030   0.333   4.646  16.862  0.6671  0.5858 -1.6399
17847TIP3   OH275031   3.233   5.295  11.368  0.2917  0.4558  0.0810
17847TIP3    H175032   3.306   5.335  11.416 -1.1289  1.6342  1.3375
17847TIP3    H275033   3.155   5.334  11.405 -1.1745 -2.5890  0.5512
17848TIP3   OH275034   0.843   1.409  15.306  0.5100  0.5420 -0.4213
17848TIP3    H175035   0.890   1.409  15.389 -0.1809 -0.1533 -0.0230
17848TIP3    H275036   0.911   1.399  15.240  1.0041  0.4557  0.0962
17849TIP3   OH275037   6.368   2.905   4.397 -0.0014  0.1975  0.2516
17849TIP3    H175038   6.345   2.819   4.360 -0.2643  0.8860 -1.2797
17849TIP3    H275039   6.445   2.932   4.348  0.3724  0.6362  1.0619
17850TIP3   OH275040   4.148   6.430   1.466 -0.3473 -0.3914  0.4136
17850TIP3    H175041   4.223   6.482   1.437 -0.3222  0.2418  1.5740
17850TIP3    H275042   4.187   6.352   1.505 -0.3105 -0.3564  0.4471
17851TIP3   OH275043   3.347   2.290  13.711 -0.1100  0.1252 -0.2608
17851TIP3    H175044   3.304   2.208  13.686  0.7035 -0.4113  0.0466
17851TIP3    H275045   3.406   2.309  13.637 -0.5792  0.6415 -0.5036
17852TIP3   OH275046   0.804   0.766  15.182 -0.3269 -0.3567  0.5504
17852TIP3    H175047   0.748   0.700  15.222 -2.8446  1.2482 -0.1046
17852TIP3    H275048   0.779   0.767  15.090  3.7682 -2.3987 -0.8401
17853TIP3   OH275049   3.499   6.091  14.415 -0.5663 -0.5977 -0.2536
17853TIP3    H175050   3.514   6.141  14.335  2.1084  1.2538  1.2431
17853TIP3    H275051   3.559   6.017  14.409  0.2402 -0.0054  0.3656
17854TIP3   OH275052   1.265   5.674  11.287 -0.2267  0.5518 -1.0584
17854TIP3    H175053   1.225   5.727  11.355 -1.3574  1.9822 -2.7299
17854TIP3    H275054   1.358   5.697  11.290  0.2567 -1.3913  1.6445
17855TIP3   OH275055   2.146   1.457  15.708 -0.4154  0.5046 -0.2688
17855TIP3    H175056   2.210   1.471  15.778 -0.1202 -0.7447 -0.2667
17855TIP3    H275057   2.062   1.457  15.754 -0.2686  0.3211  0.0107
17856TIP3   OH275058   3.258   6.246   6.797  0.6316 -0.5675 -0.1463
17856TIP3    H175059   3.316   6.251   6.873 -0.1712  0.6277  0.4208
17856TIP3    H275060   3.314   6.267   6.723  0.8617  1.0208  0.4421
17857TIP3   OH275061   1.004   0.083  14.199 -0.2499 -0.5218  0.1037
17857TIP3    H175062   1.074   0.149  14.201 -0.4450 -0.3134  2.0002
17857TIP3    H275063   1.010   0.045  14.112  1.8329 -0.0740 -0.0073
17858TIP3   OH275064   5.294   1.828  14.400 -0.8495  0.2309 -0.0510
17858TIP3    H175065   5.225   1.894  14.403 -0.3673  0.7186  0.3463
17858TIP3    H275066   5.348   1.852  14.325 -1.4475 -0.4993 -0.7323
17859TIP3   OH275067   0.751   2.096   0.598 -0.2592 -0.2600  0.2284
17859TIP3    H175068   0.707   2.180   0.612  0.2010 -0.1415  1.0220
17859TIP3    H275069   0.683   2.038   0.563 -0.9583  0.0058  1.1170
17860TIP3   OH275070   4.288   6.382  12.667 -0.3245 -0.5634  0.0589
17860TIP3    H175071   4.341   6.314  12.709 -0.1912 -0.7391 -0.3841
17860TIP3    H275072   4.254   6.434  12.739 -1.0105 -1.5310  0.4563
17861TIP3   OH275073   2.212   1.687   1.117  0.2890 -0.6496 -0.2188
17861TIP3    H175074   2.169   1.757   1.068 -0.9452 -1.6045 -0.5493
17861TIP3    H275075   2.141   1.626   1.138  1.6860 -3.0385 -2.0130
17862TIP3   OH275076   5.320   4.021  16.201 -0.6421 -0.2695  0.1603
17862TIP3    H175077   5.377   4.087  16.161  0.2857 -1.9437 -1.4281
17862TIP3    H275078   5.231   4.051  16.180 -0.2694  0.7714 -0.0036
17863TIP3   OH275079   5.121   2.672   4.997 -0.3703  0.2540  0.2456
17863TIP3    H175080   5.207   2.683   4.956 -0.4421 -1.3942 -0.4353
17863TIP3    H275081   5.122   2.732   5.071  0.7979  1.3359 -0.6071
17864TIP3   OH275082   2.556   6.051   3.035  0.0049 -0.7124 -0.1647
17864TIP3    H175083   2.542   6.120   3.100  0.9432 -0.2580 -0.4277
17864TIP3    H275084   2.515   6.084   2.956  0.3327 -0.5050 -0.2525
17865TIP3   OH275085   0.877   2.887   4.826  0.0975  0.1318 -0.0766
17865TIP3    H175086   0.942   2.948   4.791 -0.2536  0.3265 -0.3982
17865TIP3    H275087   0.832   2.853   4.748  0.4668 -0.7433  0.0753
17866TIP3   OH275088   5.396   4.864  13.232  0.1139 -0.1628 -0.1114
17866TIP3    H175089   5.464   4.888  13.169 -1.1371  0.9552 -1.0935
17866TIP3    H275090   5.354   4.787  13.195  0.5053 -0.5642  0.2582
17867TIP3   OH275091   3.165   6.449   4.422 -0.0670  0.2578  0.3350
17867TIP3    H175092   3.191   6.401   4.343  0.4612  0.5001  0.3531
17867TIP3    H275093   3.230   6.424   4.488  1.0912  2.0235 -0.0384
17868TIP3   OH275094   2.365   4.951  11.510  0.9250  0.2861  0.6079
17868TIP3    H175095   2.455   4.978  11.527  1.0520  0.3157 -0.1037
17868TIP3    H275096   2.368   4.908  11.425 -0.0033  1.6846 -0.1550
17869TIP3   OH275097   2.567   1.711   1.584 -0.1102 -0.0098  0.4729
17869TIP3    H175098   2.614   1.788   1.616 -2.0032  0.6253  1.8584
17869TIP3    H275099   2.636   1.646   1.569  1.1775  0.5704  3.2903
17870TIP3   OH275100   3.248   1.945   3.191 -0.2194  0.3849 -0.3203
17870TIP3    H175101   3.154   1.946   3.210 -0.2400  2.0379 -0.3760
17870TIP3    H275102   3.257   2.001   3.114  0.6445 -1.0929 -1.3496
17871TIP3   OH275103   0.547   5.535  13.971  0.0821 -0.1060  0.0777
17871TIP3    H175104   0.637   5.553  13.946  0.0801 -0.6491 -0.3388
17871TIP3    H275105   0.541   5.565  14.062  0.8208 -0.5115  0.2683
17872TIP3   OH275106   2.223   5.702   6.004 -0.2181 -0.2153 -0.1211
17872TIP3    H175107   2.265   5.616   5.993 -0.5243 -0.2573 -1.1247
17872TIP3    H275108   2.282   5.751   6.060 -0.4845 -1.3907  1.2448
17873TIP3   OH275109   1.006   2.833   0.367  0.0630 -0.2199 -0.4003
17873TIP3    H175110   1.013   2.764   0.301  1.6707  0.8429 -1.4200
17873TIP3    H275111   1.096   2.862   0.381 -0.0109 -1.2955  3.3178
17874TIP3   OH275112   4.139   6.635   6.441 -0.0543  0.6375  0.0873
17874TIP3    H175113   4.071   6.654   6.506 -1.9034 -0.8012 -1.3054
17874TIP3    H275114   4.093   6.587   6.372  2.6075 -1.4394 -0.4046
17875TIP3   OH275115   6.017   2.904  13.810  0.2851 -0.1951 -0.2530
17875TIP3    H175116   5.926   2.891  13.785  0.1668 -0.0564  0.1085
17875TIP3    H275117   6.067   2.868  13.736 -0.0610 -0.0121 -0.5816
17876TIP3   OH275118   2.452   3.473   3.745  0.4954 -0.4073  0.3522
17876TIP3    H175119   2.516   3.471   3.674  0.5929 -1.4231  0.4502
17876TIP3    H275120   2.495   3.427   3.817 -0.0249 -0.3592  0.6983
17877TIP3   OH275121   1.938   1.645   0.479 -0.0869 -0.9926  0.2963
17877TIP3    H175122   2.027   1.609   0.477 -0.0720 -1.0476  1.5387
17877TIP3    H275123   1.947   1.730   0.521 -0.4814 -0.5444 -0.4995
17878TIP3   OH275124   2.724   1.200   5.809 -0.2211  0.4247  0.2589
17878TIP3    H175125   2.783   1.226   5.880 -0.0563 -0.4390  0.4470
17878TIP3    H275126   2.645   1.170   5.854  0.5063 -1.7516  0.1926
17879TIP3   OH275127   5.275   2.104  15.260 -0.1306  0.5666 -0.2635
17879TIP3    H175128   5.288   2.013  15.286  0.7388  0.4204 -1.1548
17879TIP3    H275129   5.340   2.153  15.311 -1.3998  0.8898  1.1439
17880TIP3   OH275130   0.964   4.906   0.921  0.2473  0.4098 -0.0553
17880TIP3    H175131   0.973   4.815   0.891 -1.3478  0.7570 -1.7101
17880TIP3    H275132   1.040   4.919   0.978  0.0988 -2.2016  0.8895
17881TIP3   OH275133   3.423   2.179   6.336  0.6105  0.7869 -0.4930
17881TIP3    H175134   3.508   2.213   6.311  0.9016 -0.1223 -0.7703
17881TIP3    H275135   3.367   2.194   6.260  0.4342  1.6689 -0.1951
17882TIP3   OH275136   1.636   4.218  16.353  0.3574  0.0258 -0.2279
17882TIP3    H175137   1.578   4.288  16.322 -1.9304 -1.0047  1.4244
17882TIP3    H275138   1.614   4.142  16.299 -0.5741 -0.6097  0.9756
17883TIP3   OH275139   6.583   1.675   3.814  0.1504  0.0483  0.3559
17883TIP3    H175140   6.577   1.672   3.718  0.0773  1.4860  0.2984
17883TIP3    H275141   6.656   1.615   3.835  0.6163  0.2418 -0.6443
17884TIP3   OH275142   1.284   6.112  10.841  0.6575  0.2887  0.3185
17884TIP3    H175143   1.193   6.112  10.871  0.3383 -1.6436 -0.4702
17884TIP3    H275144   1.330   6.054  10.902  0.8767 -0.4250 -0.4958
17885TIP3   OH275145   4.819   2.901  14.381  0.2097 -0.2686  0.5242
17885TIP3    H175146   4.744   2.865  14.428 -0.0534  0.2671  0.5162
17885TIP3    H275147   4.832   2.841  14.308 -1.6834  0.8915 -0.8416
17886TIP3   OH275148   4.913   3.966  16.592 -0.0673 -0.0533 -0.2175
17886TIP3    H175149   4.853   3.931  16.658  0.1948  0.1664  0.1403
17886TIP3    H275150   4.910   4.061  16.604  0.1864 -0.0284 -0.3482
17887TIP3   OH275151   3.310   1.693   3.108 -0.5547  0.4035 -0.0941
17887TIP3    H175152   3.298   1.787   3.123  0.2915  0.5434 -0.2301
17887TIP3    H275153   3.388   1.688   3.053 -1.2863 -0.3207 -1.1111
17888TIP3   OH275154   5.542   0.387  14.616 -0.0957 -0.1954 -0.3034
17888TIP3    H175155   5.585   0.472  14.606  0.2846 -0.4291 -0.6875
17888TIP3    H275156   5.480   0.383  14.544  1.0154 -0.9088 -1.2503
17889TIP3   OH275157   6.753   3.416  13.967 -0.0088 -0.0646  0.3040
17889TIP3    H175158   6.780   3.467  13.891 -0.9370  1.4050  0.8994
17889TIP3    H275159   6.831   3.410  14.022  1.1414 -2.5671 -1.4304
17890TIP3   OH275160   4.894   2.145   2.502 -0.1027  0.0150  0.1228
17890TIP3    H175161   4.899   2.050   2.504 -1.1802 -0.0934 -0.9529
17890TIP3    H275162   4.934   2.174   2.584  1.0609 -1.3190  0.0463
17891TIP3   OH275163   1.409   3.532   3.810 -0.0098  0.5544  0.6920
17891TIP3    H175164   1.458   3.590   3.752  1.3940 -0.6001  0.6648
17891TIP3    H275165   1.476   3.486   3.861 -1.0864 -0.6232  1.1125
17892TIP3   OH275166   1.722   5.705  17.048  0.0209 -0.5742  0.2754
17892TIP3    H175167   1.806   5.672  17.016 -0.9344 -0.7897 -2.2545
17892TIP3    H275168   1.745   5.764  17.120  2.4600  0.3412 -1.1345
17893TIP3   OH275169   4.995   4.638   1.915  0.3107  0.4085 -0.0150
17893TIP3    H175170   4.978   4.621   1.822  0.4954 -0.0405  0.0354
17893TIP3    H275171   4.949   4.721   1.932 -0.1339  0.2432 -0.3840
17894TIP3   OH275172   1.044   1.909   0.371  0.0941 -0.4507 -0.4960
17894TIP3    H175173   1.082   1.881   0.454 -0.3068 -0.1528 -0.2069
17894TIP3    H275174   0.982   1.839   0.348  1.0039 -1.0700 -1.1059
17895TIP3   OH275175   1.773   5.509  12.003  0.5927 -0.1244 -0.6809
17895TIP3    H175176   1.680   5.518  12.024  0.6214 -0.1714 -0.5360
17895TIP3    H275177   1.804   5.600  11.991  0.7326 -0.0555  0.1498
17896TIP3   OH275178   3.210   1.931   5.332 -0.2373 -0.0880  0.6376
17896TIP3    H175179   3.281   1.884   5.289 -0.0021  0.3634  0.5275
17896TIP3    H275180   3.242   2.021   5.340 -0.5926  0.0042  1.0482
17897TIP3   OH275181   2.516   2.837   2.099 -0.1386 -0.2474  0.3482
17897TIP3    H175182   2.560   2.765   2.144 -0.7287 -0.1933  1.0382
17897TIP3    H275183   2.435   2.849   2.148 -0.2077  0.6571  0.0235
17898TIP3   OH275184   4.639   1.245   1.118  0.2872  0.0885  0.4494
17898TIP3    H175185   4.733   1.264   1.118  0.9261 -2.7096  0.7619
17898TIP3    H275186   4.627   1.185   1.191 -1.5875 -0.3162 -0.1463
17899TIP3   OH275187   0.751   3.171  14.232  0.3092  0.4967 -0.1668
17899TIP3    H175188   0.813   3.103  14.205 -0.8775 -0.6177 -0.2263
17899TIP3    H275189   0.734   3.221  14.152 -0.2770 -0.3808 -0.6124
17900TIP3   OH275190   6.363   4.032   4.596 -0.1599 -0.8030 -0.3027
17900TIP3    H175191   6.405   4.024   4.682  2.4656 -0.5017 -1.4319
17900TIP3    H275192   6.422   3.986   4.536 -0.5285  1.1191 -2.3175
17901TIP3   OH275193   0.771   2.475   4.697 -0.1506  0.4729 -0.0322
17901TIP3    H175194   0.832   2.533   4.650  0.4054  1.3131  1.6528
17901TIP3    H275195   0.799   2.479   4.788 -0.6815 -1.7715  0.2928
17902TIP3   OH275196   6.641   5.878   4.070 -0.8135  0.2126 -0.4810
17902TIP3    H175197   6.610   5.917   3.989 -2.7184  0.2523  0.2311
17902TIP3    H275198   6.717   5.826   4.044 -0.3372  1.5869 -1.9928
17903TIP3   OH275199   5.556   5.378   0.943  0.0822 -0.1232  0.3862
17903TIP3    H175200   5.492   5.445   0.917 -0.0069 -0.6780 -0.8722
17903TIP3    H275201   5.632   5.428   0.973  0.0252  0.5528 -0.5555
17904TIP3   OH275202   6.547   3.280  16.867 -0.6229 -0.0194 -0.7226
17904TIP3    H175203   6.596   3.224  16.807 -0.9823  0.6885 -1.7010
17904TIP3    H275204   6.578   3.254  16.954 -0.4013 -1.3621 -1.1704
17905TIP3   OH275205   4.287   0.558  13.862 -0.1895  0.0247  0.2236
17905TIP3    H175206   4.322   0.572  13.949 -0.2940 -0.0654  0.2807
17905TIP3    H275207   4.277   0.463  13.854 -1.1505  0.0856  0.5063
17906TIP3   OH275208   2.757   2.679   2.922  0.4878 -0.2267  0.1744
17906TIP3    H175209   2.828   2.652   2.864  0.7993 -1.7233  1.1918
17906TIP3    H275210   2.779   2.768   2.948  0.8479  0.1103 -1.1962
17907TIP3   OH275211   1.835   6.641  13.168 -0.2152  0.0782  1.0191
17907TIP3    H175212   1.751   6.620  13.209 -1.3386  0.3524 -0.9915
17907TIP3    H275213   1.878   6.556  13.158 -1.1090 -0.3292  0.4008
17908TIP3   OH275214   5.976   4.462   2.248  0.1513 -0.1621  0.2225
17908TIP3    H175215   5.885   4.480   2.269 -0.6549 -2.4967 -0.9409
17908TIP3    H275216   6.013   4.548   2.227 -2.2655  0.6558 -1.0244
17909TIP3   OH275217   4.211   3.604   3.334  0.1469 -0.1633 -0.1610
17909TIP3    H175218   4.119   3.628   3.349  0.8418  1.7575  1.5509
17909TIP3    H275219   4.235   3.554   3.412  0.5954 -0.5066 -0.5191
17910TIP3   OH275220   6.318   4.607  14.197  0.2700  0.2359 -0.3548
17910TIP3    H175221   6.322   4.679  14.259 -0.8635  0.5485 -0.6145
17910TIP3    H275222   6.296   4.531  14.251 -2.1597  0.7591 -0.4810
17911TIP3   OH275223   0.549   2.862  13.923  0.5361 -0.6651 -0.0463
17911TIP3    H175224   0.461   2.890  13.898  0.6389  0.6853  1.0047
17911TIP3    H275225   0.535   2.797  13.992  0.3605 -0.0719  0.4831
17912TIP3   OH275226   3.265   3.809   2.018 -0.9339 -0.4008 -0.6644
17912TIP3    H175227   3.341   3.821   2.075 -0.7118 -0.5221 -0.9304
17912TIP3    H275228   3.266   3.715   1.997 -1.9189 -0.6768  0.3860
17913TIP3   OH275229   1.651   5.105   3.442  0.1120 -0.1376 -0.4050
17913TIP3    H175230   1.607   5.126   3.524  0.7814  0.5259 -0.2052
17913TIP3    H275231   1.691   5.019   3.456 -0.2065 -0.2522 -0.2144
17914TIP3   OH275232   5.275   2.642  12.345 -0.2953  0.0317 -0.1254
17914TIP3    H175233   5.332   2.715  12.322 -1.0919  0.9314  0.7034
17914TIP3    H275234   5.240   2.611  12.261  3.0820 -2.0335 -0.9825
17915TIP3   OH275235   2.385   3.272  17.210  0.0676  0.1762  0.0274
17915TIP3    H175236   2.327   3.344  17.184 -0.1376 -0.5694 -1.7418
17915TIP3    H275237   2.468   3.314  17.229 -0.3251  0.9862 -0.0018
17916TIP3   OH275238   4.079   5.109   0.820  0.5781 -0.0683 -0.7181
17916TIP3    H175239   4.144   5.168   0.858 -0.1143  0.4199 -0.2928
17916TIP3    H275240   4.132   5.043   0.774  1.3666  1.0144 -1.4382
17917TIP3   OH275241   1.473   2.723   5.819 -0.1752  0.2485  0.0978
17917TIP3    H175242   1.494   2.632   5.839  1.7776  0.6756  0.2375
17917TIP3    H275243   1.386   2.720   5.780  0.0795 -1.7415 -0.4240
17918TIP3   OH275244   4.063   5.807   1.093  0.2715  0.2269  0.1209
17918TIP3    H175245   4.105   5.852   1.020  1.5423 -0.8118  0.1718
17918TIP3    H275246   4.033   5.878   1.150  0.6723  1.0335 -0.6425
17919TIP3   OH275247   3.712   5.335  16.852 -0.4250  0.0473  0.7395
17919TIP3    H175248   3.624   5.355  16.885 -0.6043  1.0002 -0.2403
17919TIP3    H275249   3.724   5.242  16.869 -2.1700 -0.4072 -0.2714
17920TIP3   OH275250   1.352   4.235  15.569 -0.2281  0.7425 -0.8706
17920TIP3    H175251   1.334   4.196  15.655  2.6660  0.5384 -0.2421
17920TIP3    H275252   1.431   4.287  15.583  0.3838  0.6449 -3.4390
17921TIP3   OH275253   6.172   2.077  16.821 -0.6596  0.5796 -0.0657
17921TIP3    H175254   6.253   2.106  16.863 -0.9884 -3.2072  3.9389
17921TIP3    H275255   6.190   1.987  16.794 -2.8032  0.5098 -1.4987
17922TIP3   OH275256   4.773   5.251   5.917 -0.3186  0.4019  0.1369
17922TIP3    H175257   4.813   5.332   5.950 -0.2683  1.6246 -2.6566
17922TIP3    H275258   4.680   5.261   5.935  0.0019 -0.3632  2.5242
17923TIP3   OH275259   3.789   4.547   2.242  0.1458 -0.7980 -0.1024
17923TIP3    H175260   3.782   4.556   2.147  0.8545 -0.7464 -0.1553
17923TIP3    H275261   3.721   4.605   2.277  2.1228  1.9936 -0.5087
17924TIP3   OH275262   5.460   2.506   0.164 -0.5502  0.5716  0.6928
17924TIP3    H175263   5.468   2.594   0.200  0.1785 -0.7655  4.1889
17924TIP3    H275264   5.366   2.492   0.155 -0.6619  1.7723 -0.1919
17925TIP3   OH275265   3.061   4.695   5.236  0.5230 -0.0009 -0.0702
17925TIP3    H175266   3.141   4.744   5.255  0.0418  1.6515 -1.9188
17925TIP3    H275267   3.015   4.691   5.320  1.0793  1.8720  0.3841
17926TIP3   OH275268   5.681   0.618   6.029 -0.4603 -0.1531  0.4923
17926TIP3    H175269   5.751   0.576   6.079 -0.0838 -0.2387 -0.0950
17926TIP3    H275270   5.667   0.562   5.953 -1.2275 -0.1760  0.6412
17927TIP3   OH275271   1.549   4.684  17.128  0.2810  0.0041 -0.5089
17927TIP3    H175272   1.458   4.699  17.103 -0.4154  0.3329  1.9523
17927TIP3    H275273   1.596   4.682  17.045 -1.8248  0.6842 -1.8160
17928TIP3   OH275274   3.418   6.563  14.951 -0.2715  1.0606 -0.1300
17928TIP3    H175275   3.473   6.636  14.921  1.5442 -0.7198 -1.4316
17928TIP3    H275276   3.328   6.591  14.933  0.5034  1.8930 -3.2390
17929TIP3   OH275277   2.332   1.096   5.394  0.5058  0.3560 -0.3764
17929TIP3    H175278   2.299   1.136   5.314 -1.5495 -0.6143 -0.0845
17929TIP3    H275279   2.397   1.032   5.365  0.1604  0.3750 -1.2156
17930TIP3   OH275280   1.608   6.748   5.663 -0.1263 -0.0679 -0.0233
17930TIP3    H175281   1.588   6.802   5.740 -2.2996  1.0100 -1.2222
17930TIP3    H275282   1.556   6.669   5.675  1.6012 -1.1294  0.8276
17931TIP3   OH275283   4.125   2.060   0.683  0.0806  0.1322 -0.2521
17931TIP3    H175284   4.035   2.071   0.714  0.0369 -1.0573  0.0870
17931TIP3    H275285   4.125   1.975   0.639  1.9272 -1.8920  3.2170
17932TIP3   OH275286   2.652   4.081   4.236 -0.2825  0.3641 -0.4767
17932TIP3    H175287   2.738   4.047   4.259  0.0557  1.2995 -0.3252
17932TIP3    H275288   2.610   4.010   4.187  0.2288 -0.4300  0.2128
17933TIP3   OH275289   2.166   5.468   5.133 -0.5743  0.2146 -0.7254
17933TIP3    H175290   2.237   5.433   5.080  0.2319 -2.0608  1.6290
17933TIP3    H275291   2.100   5.398   5.133 -0.2170 -0.2030  1.7513
17934TIP3   OH275292   5.248   2.662   2.976  0.0168  0.1222  0.2835
17934TIP3    H175293   5.242   2.570   3.002  1.2967  0.4364  1.7619
17934TIP3    H275294   5.162   2.699   2.998 -0.3237 -0.5751  0.1588
17935TIP3   OH275295   5.149   1.139   5.895 -0.1097 -0.4991 -0.0262
17935TIP3    H175296   5.233   1.097   5.876  0.0517 -0.2323  0.0936
17935TIP3    H275297   5.108   1.081   5.959  0.5988  0.0909  0.9953
17936TIP3   OH275298   1.071   6.824   2.228 -0.4747 -0.3381  0.8353
17936TIP3    H175299   1.011   6.750   2.223 -0.9291 -0.0256  1.5427
17936TIP3    H275300   1.138   6.805   2.162 -0.7649 -1.2104  0.7807
17937TIP3   OH275301   0.166   1.648  12.479  0.4730  0.5352  0.1810
17937TIP3    H175302   0.175   1.587  12.407  1.4632 -1.1862  1.6740
17937TIP3    H275303   0.254   1.657  12.515 -0.0686  0.9004  1.5011
17938TIP3   OH275304   2.736   2.577  11.261  0.4322 -0.1153 -0.1287
17938TIP3    H175305   2.653   2.584  11.308 -0.7109 -0.8420 -1.9138
17938TIP3    H275306   2.766   2.488  11.280 -0.1376 -0.4844 -0.8872
17939TIP3   OH275307   3.622   6.079   0.790 -0.1430 -0.4001 -0.0766
17939TIP3    H175308   3.601   6.062   0.698 -1.1517  0.5746 -0.0445
17939TIP3    H275309   3.580   6.009   0.838  0.5662 -1.0350 -0.3622
17940TIP3   OH275310   3.037   1.856   4.819  0.4563  0.1122  0.8967
17940TIP3    H175311   3.039   1.941   4.777 -2.2489 -0.7136 -1.2387
17940TIP3    H275312   3.027   1.875   4.913  0.7390  2.0799  0.5638
17941TIP3   OH275313   0.841   5.050   3.568  0.1812  0.1499  0.1224
17941TIP3    H175314   0.788   5.097   3.633  1.6598 -0.6602  2.0166
17941TIP3    H275315   0.901   4.998   3.621  0.2828 -1.9278 -1.9267
17942TIP3   OH275316   1.761   2.976  16.445 -0.3706 -0.0797 -0.0847
17942TIP3    H175317   1.849   3.012  16.452  0.0562 -1.0218 -0.5531
17942TIP3    H275318   1.734   2.962  16.536  1.0352 -2.3206  0.0668
17943TIP3   OH275319   5.863   2.175   1.304 -0.3166  0.4282 -0.3891
17943TIP3    H175320   5.879   2.259   1.347 -0.0387 -0.7022  1.8257
17943TIP3    H275321   5.773   2.154   1.326 -0.0508 -0.3465 -0.0181
17944TIP3   OH275322   2.636   0.669  14.185 -0.0852  0.3032 -0.0709
17944TIP3    H175323   2.627   0.594  14.244  2.4158 -1.0821 -1.2804
17944TIP3    H275324   2.717   0.711  14.211  0.5609  0.2520 -1.8541
17945TIP3   OH275325   2.844   4.667   5.432 -0.4992 -0.0851  0.1653
17945TIP3    H175326   2.784   4.656   5.506 -0.9351 -0.2916 -0.2126
17945TIP3    H275327   2.811   4.743   5.386  0.7979  1.1211  1.1388
17946TIP3   OH275328   5.626   0.285   1.521  0.6963 -0.3708 -0.2200
17946TIP3    H175329   5.650   0.192   1.514 -1.8927 -1.4419  2.6049
17946TIP3    H275330   5.530   0.285   1.512  0.5834  1.9261  0.4799
17947TIP3   OH275331   0.088   6.406  15.946  0.0269  0.4541  0.1105
17947TIP3    H175332   0.131   6.491  15.940  0.1437  0.2948 -2.4509
17947TIP3    H275333   0.019   6.409  15.880 -1.7131 -0.5369  1.7964
17948TIP3   OH275334   1.526   4.195  16.002  0.0170 -0.5884 -0.2186
17948TIP3    H175335   1.513   4.144  15.922  0.6777 -0.8176 -0.1832
17948TIP3    H275336   1.563   4.278  15.971  0.0637 -0.5909 -0.1682
17949TIP3   OH275337   1.319   0.628   3.849  1.0455 -0.2373 -0.0268
17949TIP3    H175338   1.279   0.542   3.861  0.0890  0.2800  0.5809
17949TIP3    H275339   1.309   0.646   3.756 -0.7743  0.1555  0.2004
17950TIP3   OH275340   6.328   1.747  17.271 -0.4382 -0.1835  0.2265
17950TIP3    H175341   6.381   1.761  17.349  0.5361  1.4600 -0.6708
17950TIP3    H275342   6.310   1.835  17.238 -1.5413 -0.8061 -0.9419
17951TIP3   OH275343   1.396   2.524  12.080  0.6140 -0.2055 -0.3427
17951TIP3    H175344   1.329   2.582  12.116  2.7074  1.3706  1.3019
17951TIP3    H275345   1.349   2.443  12.059 -1.3249 -0.4373  3.8389
17952TIP3   OH275346   2.043   1.181  11.691 -0.4595  0.3174 -0.1345
17952TIP3    H175347   2.132   1.157  11.663  0.1318 -0.2613  1.9939
17952TIP3    H275348   1.986   1.138  11.628  0.7492  2.2066 -2.6418
17953TIP3   OH275349   6.523   2.290  15.352  0.1712  0.1936  0.5064
17953TIP3    H175350   6.501   2.206  15.393  0.0435 -0.6215 -1.1560
17953TIP3    H275351   6.459   2.351  15.388 -2.3464 -1.2583 -1.1767
17954TIP3   OH275352   0.776   3.559   4.434  0.4735 -0.0855 -1.1675
17954TIP3    H175353   0.704   3.610   4.397 -0.0663  0.2133  0.2018
17954TIP3    H275354   0.732   3.489   4.484  1.1892 -1.4002 -2.3091
17955TIP3   OH275355   6.674   3.409   0.197  0.0073  0.0931  0.0531
17955TIP3    H175356   6.613   3.473   0.234  1.4712  2.1769 -0.9799
17955TIP3    H275357   6.753   3.459   0.178  1.9219 -2.4153  0.8700
17956TIP3   OH275358   3.886   5.371  11.579  0.0131 -0.0433 -0.1274
17956TIP3    H175359   3.913   5.445  11.525 -0.2908 -0.1482 -0.4295
17956TIP3    H275360   3.834   5.316  11.520  1.6051 -1.3529 -0.3877
17957TIP3   OH275361   4.698   0.708   1.441 -0.1917 -0.1471  0.0869
17957TIP3    H175362   4.727   0.785   1.394  0.0439  0.3761  1.0675
17957TIP3    H275363   4.646   0.659   1.377  3.1812 -1.3986 -1.9382
17958TIP3   OH275364   5.079   5.241   5.204 -0.3874  0.0300 -0.5654
17958TIP3    H175365   5.028   5.179   5.255  0.7100 -0.2331  0.2577
17958TIP3    H275366   5.040   5.239   5.117 -2.4367  0.6355  0.2881
17959TIP3   OH275367   1.532   6.001  15.534 -0.2075 -0.1228  0.5200
17959TIP3    H175368   1.457   6.055  15.560 -0.6749  0.1850 -1.3527
17959TIP3    H275369   1.493   5.918  15.507  0.1489 -0.0494 -0.2241
17960TIP3   OH275370   4.528   6.659   5.103 -0.3355  0.3934  0.4632
17960TIP3    H175371   4.451   6.687   5.055  0.7218  1.9359 -0.3969
17960TIP3    H275372   4.574   6.740   5.125  1.0144 -0.4778  1.0058
17961TIP3   OH275373   1.755   0.233   5.132  0.7238 -0.4214  0.3495
17961TIP3    H175374   1.773   0.150   5.177 -2.1006 -0.4774  1.5398
17961TIP3    H275375   1.660   0.239   5.129  0.8376  1.9259 -1.4031
17962TIP3   OH275376   4.201   4.208   3.155  0.6735  0.2752  0.1910
17962TIP3    H175377   4.146   4.268   3.206  0.7832 -0.1208  0.7877
17962TIP3    H275378   4.140   4.157   3.103  0.6136  1.3987 -0.8962
17963TIP3   OH275379   4.019   0.175   1.349  0.1880  0.4550 -0.0700
17963TIP3    H175380   4.083   0.127   1.297  2.1125  2.9134 -0.1536
17963TIP3    H275381   3.938   0.169   1.299  0.2558 -2.7017  0.0007
17964TIP3   OH275382   4.569   0.825   2.256 -0.0972  0.6639  0.0597
17964TIP3    H175383   4.484   0.786   2.234  0.7210 -1.4191  0.3112
17964TIP3    H275384   4.569   0.831   2.351  0.3790 -0.2547  0.1289
17965TIP3   OH275385   6.075   3.158   3.412  0.0024 -0.0832  0.7680
17965TIP3    H175386   6.107   3.231   3.359  0.0759 -1.0808 -0.6186
17965TIP3    H275387   6.093   3.184   3.503  0.3027  1.4659  0.2873
17966TIP3   OH275388   4.066   1.483  14.471  0.5780 -0.0433 -0.3634
17966TIP3    H175389   4.060   1.491  14.376 -1.7910  0.4425 -0.2274
17966TIP3    H275390   4.034   1.395  14.490 -0.6683  0.4694  0.0569
17967TIP3   OH275391   2.453   2.979  16.307  0.9083 -0.0389  0.0720
17967TIP3    H175392   2.477   2.886  16.311 -0.6707 -0.4566  0.4061
17967TIP3    H275393   2.417   2.997  16.394  0.5359  0.6910 -0.2318
17968TIP3   OH275394   0.437   5.545   4.969  0.4353 -0.0722  0.7010
17968TIP3    H175395   0.350   5.575   4.943  1.1588  0.8264 -0.8484
17968TIP3    H275396   0.492   5.623   4.962  1.3651 -0.6222  1.6718
17969TIP3   OH275397   3.883   3.436  11.886  0.4206 -0.0778  0.2445
17969TIP3    H175398   3.873   3.503  11.954  0.0172  0.2724 -0.1537
17969TIP3    H275399   3.833   3.470  11.811  1.9423  0.2195 -0.7086
17970TIP3   OH275400   2.342   6.256   4.119  0.4056 -0.1033  0.5220
17970TIP3    H175401   2.372   6.265   4.209 -2.5509 -2.4472  1.9253
17970TIP3    H275402   2.260   6.304   4.116  0.0340 -0.7717 -0.6579
17971TIP3   OH275403   3.397   2.275  15.066 -0.1694  0.5590  0.0272
17971TIP3    H175404   3.435   2.357  15.035 -0.3841  0.2545 -1.0765
17971TIP3    H275405   3.304   2.282  15.045  0.1513 -0.8544 -2.1316
17972TIP3   OH275406   4.009   1.467   3.893  0.1302  0.2947  0.0627
17972TIP3    H175407   3.948   1.491   3.963 -0.8956  1.0218 -1.0327
17972TIP3    H275408   4.042   1.551   3.861  1.0902 -0.0637  0.1032
17973TIP3   OH275409   4.546   0.628   4.360 -0.0199  0.2905  0.1837
17973TIP3    H175410   4.612   0.629   4.430 -1.4791  0.2720  1.6084
17973TIP3    H275411   4.477   0.686   4.391 -0.7421  0.2353 -1.2304
17974TIP3   OH275412   0.340   6.046   2.159  0.0578 -0.1332 -0.1328
17974TIP3    H175413   0.426   6.051   2.201 -0.1526  0.3532  0.2456
17974TIP3    H275414   0.312   5.955   2.173  0.9374 -0.5967 -1.1327
17975TIP3   OH275415   0.053   5.896   5.366 -0.3267 -0.5197 -0.5866
17975TIP3    H175416  -0.020   5.838   5.386 -0.3248  0.1842  1.7110
17975TIP3    H275417   0.012   5.970   5.320 -1.0940 -0.1513  0.6394
17976TIP3   OH275418   2.640   6.797  16.848 -0.5228 -0.1293 -0.0395
17976TIP3    H175419   2.545   6.809  16.838 -0.5225 -0.6014 -0.6480
17976TIP3    H275420   2.651   6.765  16.937 -0.7768  1.5549  0.6375
17977TIP3   OH275421   2.431   3.934   5.031 -0.7674  0.3864  0.2500
17977TIP3    H175422   2.366   3.903   4.967  0.3293 -0.5751 -0.4346
17977TIP3    H275423   2.429   3.868   5.100 -0.7273  0.5204  0.3788
17978TIP3   OH275424   4.193   2.225  17.051 -0.0672 -0.1935  0.2291
17978TIP3    H175425   4.262   2.161  17.038  0.6291  0.7649 -1.1011
17978TIP3    H275426   4.120   2.175  17.088  0.7514 -1.5526  0.0752
17979TIP3   OH275427   1.545   4.120  11.506  0.1965 -0.4259  0.2374
17979TIP3    H175428   1.567   4.133  11.414  0.2835  0.5144  0.3864
17979TIP3    H275429   1.494   4.197  11.529 -1.9424 -1.8052  0.3276
17980TIP3   OH275430   4.248   6.493  15.722 -0.0262  0.4444  0.3664
17980TIP3    H175431   4.293   6.576  15.705 -0.3179  0.3042 -1.2460
17980TIP3    H275432   4.166   6.500  15.674  0.5042 -1.2691 -0.8809
17981TIP3   OH275433   5.488   1.600   1.674  0.4288  0.2026  0.2391
17981TIP3    H175434   5.435   1.624   1.750  0.1943  1.6599 -0.3547
17981TIP3    H275435   5.548   1.674   1.662  2.4119 -1.2303  0.6787
17982TIP3   OH275436   4.149   0.376  16.475  0.0638  0.7470 -0.2294
17982TIP3    H175437   4.083   0.372  16.545 -0.8186  1.0766 -1.0135
17982TIP3    H275438   4.231   0.353  16.518 -0.4783  0.8233  0.8906
17983TIP3   OH275439   5.754   3.802   1.646  0.2124  0.0529  0.5887
17983TIP3    H175440   5.690   3.815   1.716  0.8813  1.3975  0.9793
17983TIP3    H275441   5.839   3.814   1.688  0.9642 -4.0117  0.6323
17984TIP3   OH275442   2.954   5.070   3.045 -0.1882 -0.0245 -0.4182
17984TIP3    H175443   3.004   5.020   3.109  1.0608  0.8937 -0.6418
17984TIP3    H275444   2.863   5.059   3.072  0.2726 -0.0196  1.2443
17985TIP3   OH275445   0.542   6.534   5.404 -0.0821  0.1786  0.0601
17985TIP3    H175446   0.559   6.608   5.345  0.5972 -0.8453 -1.0577
17985TIP3    H275447   0.574   6.564   5.489  0.7086  0.9513 -0.4924
17986TIP3   OH275448   5.423   0.533  10.864 -0.2588  0.2308  0.3640
17986TIP3    H175449   5.365   0.606  10.840 -1.0514 -0.5942 -0.3187
17986TIP3    H275450   5.507   0.556  10.825 -0.2000  1.2706  1.0466
17987TIP3   OH275451   4.207   1.146   6.154  0.6013 -0.4701 -0.2280
17987TIP3    H175452   4.274   1.087   6.188 -0.2032  0.0041  2.4094
17987TIP3    H275453   4.139   1.087   6.121  0.4061 -1.0503  1.1298
17988TIP3   OH275454   1.944   5.876   0.688  0.7589  0.1299  0.1813
17988TIP3    H175455   1.901   5.814   0.628  1.0836 -1.3110  1.3905
17988TIP3    H275456   1.976   5.822   0.760  0.2405  1.8442  1.7634
17989TIP3   OH275457   6.490   5.334  15.984 -0.0468 -0.0388  0.0982
17989TIP3    H175458   6.412   5.298  15.942 -0.4040  0.1849  0.5696
17989TIP3    H275459   6.561   5.312  15.923 -0.8375  2.2528 -1.7800
17990TIP3   OH275460   6.629   1.261  13.074 -0.3243  0.3224 -0.2318
17990TIP3    H175461   6.682   1.187  13.046 -0.1900 -0.2233  1.3929
17990TIP3    H275462   6.673   1.337  13.037 -0.0036 -0.3394 -1.2352
17991TIP3   OH275463   5.578   3.743   4.025 -0.4947  0.5961 -0.2826
17991TIP3    H175464   5.642   3.704   3.965 -1.1348  1.1521 -1.3615
17991TIP3    H275465   5.581   3.687   4.103  0.5849  0.0380 -0.7022
17992TIP3   OH275466   5.978   1.607  16.366  0.1864  0.3999  0.0831
17992TIP3    H175467   5.897   1.561  16.345  0.2524 -0.9592  2.4712
17992TIP3    H275468   5.951   1.698  16.379 -0.4980  0.4585 -1.4840
17993TIP3   OH275469   4.997   0.978  14.710  0.8508  0.5164 -0.1887
17993TIP3    H175470   5.058   1.051  14.722  0.9528  0.7995 -2.0525
17993TIP3    H275471   4.963   0.991  14.622  0.1071 -1.1474 -0.1736
17994TIP3   OH275472   2.385   0.054   3.833 -0.5354 -0.0649 -0.5927
17994TIP3    H175473   2.471   0.024   3.804 -0.6689 -0.4446 -0.5957
17994TIP3    H275474   2.344  -0.023   3.871 -0.6630  0.2456 -0.0855
17995TIP3   OH275475   5.349   0.710   3.713 -0.0389 -0.5260 -0.0793
17995TIP3    H175476   5.374   0.631   3.761 -0.4440 -0.1369  0.7954
17995TIP3    H275477   5.313   0.678   3.631  0.0139 -1.2420  0.1719
17996TIP3   OH275478   2.185   3.423  15.450  0.0385 -0.0608 -0.4861
17996TIP3    H175479   2.267   3.466  15.474  0.8016 -2.0397  0.6345
17996TIP3    H275480   2.124   3.447  15.519 -0.0033  0.4373 -0.6871
17997TIP3   OH275481   6.763   0.646  16.432  0.3346  0.2889  0.4925
17997TIP3    H175482   6.831   0.688  16.380 -0.1383 -3.5958 -3.9645
17997TIP3    H275483   6.798   0.560  16.454 -2.2476 -1.0340 -0.0824
17998TIP3   OH275484   5.228   5.157  16.606  0.4030 -0.1320 -0.0508
17998TIP3    H175485   5.138   5.189  16.596  0.0415 -0.9738  0.3487
17998TIP3    H275486   5.283   5.229  16.576 -0.2994  1.4575  2.1532
17999TIP3   OH275487   5.301   4.227   5.007  0.1845 -0.1313 -0.0636
17999TIP3    H175488   5.350   4.266   5.080 -0.7255 -2.4537  1.9101
17999TIP3    H275489   5.277   4.302   4.952  2.5802  1.5018  0.9112
18000TIP3   OH275490   4.233   6.575  17.036 -0.1478 -0.3791 -0.3804
18000TIP3    H175491   4.187   6.492  17.051 -1.5679  0.7456  2.1078
18000TIP3    H275492   4.324   6.555  17.059 -0.3508 -1.3944 -0.3803
18001TIP3   OH275493   1.488   0.878   3.566  0.1652  0.8691  0.3089
18001TIP3    H175494   1.403   0.916   3.541 -0.1771 -0.7992 -1.3149
18001TIP3    H275495   1.481   0.865   3.660 -1.7097  0.1282  0.1311
18002TIP3   OH275496   6.776   3.851  14.026  0.0096 -0.1946 -0.1754
18002TIP3    H175497   6.703   3.912  14.029  0.3780  0.2441  0.0517
18002TIP3    H275498   6.848   3.898  14.068  0.7624 -0.1412 -1.4455
18003TIP3   OH275499   2.376   2.759  14.146 -0.1703 -0.2524 -0.9204
18003TIP3    H175500   2.389   2.710  14.065 -0.7666 -1.2839 -0.4120
18003TIP3    H275501   2.448   2.822  14.147  0.8956 -1.4144 -1.3873
18004TIP3   OH275502   5.425   5.236  14.943  0.1711  0.0956  0.3319
18004TIP3    H175503   5.447   5.327  14.923  0.2794  0.2570  1.1491
18004TIP3    H275504   5.475   5.216  15.023  1.9788 -1.4308 -1.0967
18005TIP3   OH275505   1.291   6.370   1.738  0.3065  0.6122 -0.0084
18005TIP3    H175506   1.316   6.312   1.666 -1.6999 -0.2702 -0.0776
18005TIP3    H275507   1.352   6.349   1.808  0.7421 -0.3134 -0.6391
18006TIP3   OH275508   3.077   0.278  12.768  0.1818 -0.3730  0.1177
18006TIP3    H175509   3.122   0.208  12.816 -0.0041  0.9684  2.4042
18006TIP3    H275510   2.992   0.241  12.744 -0.2858 -0.6863  2.1098
18007TIP3   OH275511   2.787   0.106   1.124 -0.0490 -0.5733 -0.3940
18007TIP3    H175512   2.740   0.118   1.206 -0.7144  0.9408 -0.9717
18007TIP3    H275513   2.732   0.047   1.072  0.3948 -1.5673  0.2329
18008TIP3   OH275514   2.224   3.769   6.062 -0.2243  0.1027  0.2346
18008TIP3    H175515   2.211   3.705   6.132  0.3776  0.7798  0.9778
18008TIP3    H275516   2.256   3.847   6.106 -0.6443  0.8227 -0.7028
18009TIP3   OH275517   1.908   5.222   3.568 -0.1643 -0.4094  0.4418
18009TIP3    H175518   1.929   5.133   3.540 -1.6009 -1.0403  1.2428
18009TIP3    H275519   1.913   5.274   3.488  0.7141 -1.1944 -0.0386
18010TIP3   OH275520   2.400   5.259   2.900 -0.4477 -0.4889 -0.1026
18010TIP3    H175521   2.319   5.311   2.904 -0.0382  0.1224  3.0643
18010TIP3    H275522   2.465   5.319   2.864 -0.5026  0.4525  1.3171
18011TIP3   OH275523   2.896   3.874  12.244 -0.0566  0.2051  0.4583
18011TIP3    H175524   2.823   3.841  12.191  0.3846 -0.3550  0.1855
18011TIP3    H275525   2.866   3.959  12.277 -0.1520  0.7970 -1.0989
18012TIP3   OH275526   6.733   3.793  16.593  0.1017  0.3383  0.2421
18012TIP3    H175527   6.807   3.768  16.538 -0.3244 -0.3938 -0.0225
18012TIP3    H275528   6.675   3.842  16.535 -0.7653 -1.1791 -0.2467
18013TIP3   OH275529   3.914   3.105  15.282  0.0443  0.0341  0.1460
18013TIP3    H175530   3.857   3.182  15.272  0.2687  0.0938 -0.7639
18013TIP3    H275531   4.000   3.141  15.302 -0.5308 -0.1013  3.2645
18014TIP3   OH275532   5.808   2.427   1.316 -0.0162 -0.0158  0.1472
18014TIP3    H175533   5.826   2.518   1.294  1.1402 -0.7207 -2.2243
18014TIP3    H275534   5.712   2.419   1.312 -0.1805  1.2363  1.1841
18015TIP3   OH275535   3.996   3.853  13.809 -0.2511 -0.6843  0.1878
18015TIP3    H175536   4.045   3.868  13.890 -0.5275  0.2583  0.1883
18015TIP3    H275537   3.951   3.936  13.792 -2.0419 -1.5695  0.3249
18016TIP3   OH275538   2.970   1.624  13.694 -0.0281  0.9131  0.2658
18016TIP3    H175539   3.033   1.554  13.713 -1.1411 -0.2104 -0.0383
18016TIP3    H275540   2.919   1.590  13.620  0.0182  2.4644 -0.5103
18017TIP3   OH275541   4.648   5.883   4.264 -0.4419 -0.4583 -0.3286
18017TIP3    H175542   4.725   5.938   4.280  0.1007 -1.7991  2.0628
18017TIP3    H275543   4.668   5.836   4.183 -0.3326  1.7464 -1.6766
18018TIP3   OH275544   2.210   0.816  14.378 -0.1385 -0.1662  0.8812
18018TIP3    H175545   2.244   0.759  14.448  0.9357 -1.5682 -0.7152
18018TIP3    H275546   2.195   0.757  14.305 -0.4570  1.3974 -0.3497
18019TIP3   OH275547   5.472   6.502  16.819 -0.4108  0.6559 -0.0252
18019TIP3    H175548   5.527   6.538  16.888  1.1833 -1.4637 -0.0937
18019TIP3    H275549   5.520   6.523  16.738  0.1519 -0.8840 -0.1105
18020TIP3   OH275550   0.372   5.021  13.021 -0.0847 -0.0038 -0.5232
18020TIP3    H175551   0.383   4.928  13.041  3.2821  0.0759 -1.3340
18020TIP3    H275552   0.433   5.066  13.080  0.7836  1.3202 -2.3043
18021TIP3   OH275553   6.204   0.004  11.468 -0.3139  0.3226 -0.2248
18021TIP3    H175554   6.135  -0.036  11.520  0.6234 -0.0594  0.7571
18021TIP3    H275555   6.233   0.079  11.521  0.5186  0.0453 -0.2800
18022TIP3   OH275556   1.639   1.576  15.941  0.3490 -0.3320 -0.3355
18022TIP3    H175557   1.594   1.660  15.956 -0.5445 -0.2456 -2.8946
18022TIP3    H275558   1.576   1.510  15.969  0.5378 -0.1794  0.4753
18023TIP3   OH275559   4.599   6.052  13.027  0.3334  0.4756  0.2843
18023TIP3    H175560   4.591   6.097  13.111 -0.7785  0.1250  0.3907
18023TIP3    H275561   4.686   6.075  12.995  0.4921  1.1994  1.1942
18024TIP3   OH275562   2.819   5.991   4.043 -0.1336 -0.2315  0.0162
18024TIP3    H175563   2.752   6.000   4.111 -0.0761 -0.6637  0.1308
18024TIP3    H275564   2.811   6.071   3.991  1.8541  1.5705  2.2830
18025TIP3   OH275565   0.676   5.045  14.106 -0.2096 -0.6444 -0.2323
18025TIP3    H175566   0.758   5.056  14.153 -0.6489  1.1748  0.1964
18025TIP3    H275567   0.613   5.017  14.172 -0.9505  2.4252  0.4846
18026TIP3   OH275568   0.493   2.772   4.575 -0.2816  0.2109 -0.7995
18026TIP3    H175569   0.582   2.750   4.604 -0.9368 -0.0231  1.1524
18026TIP3    H275570   0.506   2.846   4.515  1.2271  0.2864 -0.4291
18027TIP3   OH275571   6.655   5.341   0.919 -0.1632  0.2844 -0.0200
18027TIP3    H175572   6.643   5.367   1.010 -0.5097 -0.1419  0.0563
18027TIP3    H275573   6.567   5.345   0.881 -0.3934 -1.6541  0.2245
18028TIP3   OH275574   0.416   2.120   0.623  0.5035  0.1242  0.1833
18028TIP3    H175575   0.419   2.215   0.611 -1.0240  0.0902 -0.8462
18028TIP3    H275576   0.403   2.108   0.717 -2.5862  1.1178 -0.0022
18029TIP3   OH275577   1.802   0.001   2.702 -0.2877  0.0239 -0.2108
18029TIP3    H175578   1.764  -0.063   2.762  0.2199 -2.2919 -2.2389
18029TIP3    H275579   1.765  -0.020   2.616  0.3676  2.0953 -1.0720
18030TIP3   OH275580   3.077   0.989  14.806 -0.4809  0.2051 -0.3350
18030TIP3    H175581   3.117   1.060  14.856 -1.3726  1.1505 -0.9326
18030TIP3    H275582   3.067   1.024  14.718 -2.9609  0.1998 -0.1376
18031TIP3   OH275583   1.231   3.309  10.393  0.0784 -0.3229 -0.3254
18031TIP3    H175584   1.307   3.358  10.423  1.2245 -1.3681 -1.3975
18031TIP3    H275585   1.263   3.259  10.318 -1.8883 -0.1390 -1.3538
18032TIP3   OH275586   2.774   5.235  13.259 -0.2021 -0.1667 -0.0707
18032TIP3    H175587   2.833   5.236  13.334 -1.5166 -1.0143  1.0164
18032TIP3    H275588   2.796   5.153  13.213  3.1119  1.9556 -2.8187
18033TIP3   OH275589   0.206   4.061   0.712  0.3374 -0.1983 -0.0107
18033TIP3    H175590   0.270   4.029   0.649  0.0517  0.1771 -0.4928
18033TIP3    H275591   0.258   4.111   0.775  0.6475 -0.7362  0.1702
18034TIP3   OH275592   0.066   2.174   5.106  0.6601  0.4458  0.9321
18034TIP3    H175593   0.071   2.181   5.201 -1.4528 -1.2063  1.2505
18034TIP3    H275594  -0.026   2.153   5.088  1.4226 -1.5284 -1.2717
18035TIP3   OH275595   2.141   5.000   4.039 -0.0241  0.1966  0.0393
18035TIP3    H175596   2.237   5.011   4.038  0.0634 -0.5405  0.1776
18035TIP3    H275597   2.124   4.927   3.981 -0.1326 -2.2659  2.9331
18036TIP3   OH275598   4.945   3.888  12.294 -0.0321  1.0091  0.2210
18036TIP3    H175599   4.911   3.868  12.381  1.6926  1.3335  1.0245
18036TIP3    H275600   4.989   3.808  12.266 -0.6476  0.8807 -0.3954
18037TIP3   OH275601   2.904   0.886  14.518  0.4533  0.0547 -0.0587
18037TIP3    H175602   2.939   0.975  14.528  0.0082  0.2459 -0.1513
18037TIP3    H275603   2.977   0.829  14.540  1.2627  0.4200 -1.6393
18038TIP3   OH275604   1.109   0.935  16.506 -0.0442  0.5608  0.5152
18038TIP3    H175605   1.080   0.865  16.448  2.4917 -0.5362  0.4435
18038TIP3    H275606   1.163   0.991  16.451 -1.3288  2.1285  0.7856
18039TIP3   OH275607   6.598   2.433   3.143  0.0020 -0.6359  0.2643
18039TIP3    H175608   6.525   2.481   3.181  0.0308 -0.5025  0.1508
18039TIP3    H275609   6.557   2.362   3.094 -0.0805 -0.1320 -0.3982
18040TIP3   OH275610   1.197   2.325   1.753 -0.1574  0.3440  0.0267
18040TIP3    H175611   1.148   2.385   1.697 -0.1042 -1.6024 -2.2114
18040TIP3    H275612   1.144   2.318   1.832 -3.0954 -0.9287 -1.9166
18041TIP3   OH275613   5.654   2.655   6.513 -0.4739 -0.2349  0.0384
18041TIP3    H175614   5.655   2.750   6.521 -1.5025 -0.0850 -1.2362
18041TIP3    H275615   5.561   2.631   6.512 -0.2332 -1.2389  0.2646
18042TIP3   OH275616   0.353   4.035   1.824  0.2103 -0.1765  0.1875
18042TIP3    H175617   0.322   4.074   1.742  0.9682  1.4321  0.6265
18042TIP3    H275618   0.444   4.063   1.830 -0.0714  0.4454  1.9854
18043TIP3   OH275619   3.906   0.516  15.211 -0.1708  0.0663  0.3182
18043TIP3    H175620   4.001   0.511  15.201 -0.1388 -0.4334  0.8475
18043TIP3    H275621   3.873   0.437  15.167 -0.3696  0.4040 -0.1528
18044TIP3   OH275622   3.419   1.779   5.176  0.0129 -0.0066  0.8385
18044TIP3    H175623   3.371   1.696   5.173  0.5057 -0.2686 -0.2666
18044TIP3    H275624   3.402   1.818   5.090  1.1252  0.2665  0.7391
18045TIP3   OH275625   2.920   4.299   5.564 -0.9203 -0.3001 -0.1601
18045TIP3    H175626   2.956   4.289   5.653 -0.5219 -2.2258 -0.4785
18045TIP3    H275627   2.828   4.274   5.573 -0.8103 -0.7793 -0.3210
18046TIP3   OH275628   0.361   2.019  13.581  0.1063  0.3322 -0.3357
18046TIP3    H175629   0.433   2.023  13.645  0.2887  0.4237 -0.5475
18046TIP3    H275630   0.311   1.941  13.607  0.0451  0.5000  0.0631
18047TIP3   OH275631   5.655   2.929  16.902  0.0504  0.1490 -0.5917
18047TIP3    H175632   5.735   2.880  16.888 -1.3873 -2.4479 -0.3502
18047TIP3    H275633   5.585   2.871  16.872 -2.0939  0.2774  3.4067
18048TIP3   OH275634   4.994   3.959   6.028  0.1586  0.4044  0.0271
18048TIP3    H175635   4.966   3.947   6.119  0.4742  0.4888  0.1366
18048TIP3    H275636   4.926   4.014   5.989 -2.0101 -2.6174 -0.8302
18049TIP3   OH275637   0.404   6.452  12.560 -0.1832 -0.1061  0.0848
18049TIP3    H175638   0.376   6.497  12.480 -1.1796 -2.1823 -0.8187
18049TIP3    H275639   0.496   6.477  12.571 -0.0251  0.2296 -1.7047
18050TIP3   OH275640   6.028   4.013   2.694  0.1301  0.3409  0.1322
18050TIP3    H175641   6.069   3.961   2.763 -0.4611 -0.5194 -0.1502
18050TIP3    H275642   5.952   4.053   2.738 -1.5734 -1.9796 -0.4846
18051TIP3   OH275643   3.007   2.627  13.115 -0.3828 -0.1570  0.0460
18051TIP3    H175644   2.932   2.680  13.087 -0.1101  1.1286  1.6045
18051TIP3    H275645   3.081   2.664  13.067 -0.6320 -1.0763 -1.0851
18052TIP3   OH275646   1.423   1.250   0.144 -0.0222  1.1158 -0.0925
18052TIP3    H175647   1.443   1.326   0.090  3.4504  0.9659  0.7649
18052TIP3    H275648   1.493   1.247   0.209  1.2128 -3.8536 -1.2046
18053TIP3   OH275649   1.059   0.094   1.852 -0.1235 -0.5175  0.2078
18053TIP3    H175650   1.009   0.172   1.827  0.2495 -0.5060 -0.5346
18053TIP3    H275651   1.063   0.042   1.772  2.2310  0.1172 -0.1784
18054TIP3   OH275652   2.204   1.576   2.273  0.5720  0.6208 -0.1491
18054TIP3    H175653   2.253   1.637   2.218 -1.7400  2.6397 -0.1716
18054TIP3    H275654   2.220   1.607   2.362 -0.9178  1.6554 -0.1819
18055TIP3   OH275655   1.132   5.659   5.145 -0.3019  0.5640  0.2878
18055TIP3    H175656   1.186   5.589   5.181  0.6551  1.4049  0.5260
18055TIP3    H275657   1.182   5.692   5.070 -0.3110  1.5774  0.7133
18056TIP3   OH275658   4.235   4.668  14.658 -0.1373 -0.2190  0.7960
18056TIP3    H175659   4.190   4.751  14.672 -1.7470 -1.3662  3.1514
18056TIP3    H275660   4.243   4.630  14.746  0.5604 -2.5335 -0.1838
18057TIP3   OH275661   5.912   6.704   4.816  0.7127 -0.2897  0.0491
18057TIP3    H175662   5.939   6.660   4.897 -1.8731 -1.3691  0.4332
18057TIP3    H275663   5.927   6.797   4.834 -0.4029 -0.4263  2.0994
18058TIP3   OH275664   3.342   0.344  15.876  0.7811 -0.1381  0.9704
18058TIP3    H175665   3.374   0.422  15.832 -0.1113  0.0413  0.6220
18058TIP3    H275666   3.250   0.338  15.851  0.6435 -0.8746  1.6055
18059TIP3   OH275667   6.326   3.748   0.768  0.6006 -0.1454  0.0670
18059TIP3    H175668   6.412   3.735   0.729  0.9738 -0.1359  0.8724
18059TIP3    H275669   6.333   3.830   0.816  0.0205  0.0546 -0.1820
18060TIP3   OH275670   4.965   5.445   0.018 -0.4935 -0.1713 -0.1005
18060TIP3    H175671   4.996   5.523   0.064  1.2171 -1.4519  1.0251
18060TIP3    H275672   4.973   5.468  -0.075  2.1947  0.2405  0.1580
18061TIP3   OH275673   1.824   2.093   0.769  0.6957  0.4329  0.2339
18061TIP3    H175674   1.808   2.187   0.761  0.6129  0.4644  0.7408
18061TIP3    H275675   1.814   2.075   0.863  0.7496 -0.0730  0.1439
18062TIP3   OH275676   6.358   4.849  13.308 -0.2689  0.4182  0.0743
18062TIP3    H175677   6.320   4.832  13.394  2.8314  0.4329  1.6175
18062TIP3    H275678   6.334   4.939  13.288  0.9907  1.2875  2.1877
18063TIP3   OH275679   4.474   6.444   5.962  0.6711 -0.0222  0.3992
18063TIP3    H175680   4.416   6.399   6.024 -0.2909 -0.3210 -0.6838
18063TIP3    H275681   4.562   6.416   5.987  0.3841  0.4652  2.1041
18064TIP3   OH275682   2.351   4.088   2.114  0.0613  0.0109 -0.2939
18064TIP3    H175683   2.269   4.070   2.069 -0.3555 -0.9724  0.8138
18064TIP3    H275684   2.390   4.001   2.128  0.7101  0.3800  0.2399
18065TIP3   OH275685   2.900   6.695   2.590 -0.4027 -0.2672  0.1623
18065TIP3    H175686   2.984   6.666   2.627 -1.5732 -1.5119  2.0065
18065TIP3    H275687   2.921   6.717   2.499  1.7212 -1.5105  0.2673
18066TIP3   OH275688   1.102   2.354   3.814 -0.4608  0.1472  0.1104
18066TIP3    H175689   1.014   2.335   3.781 -0.6807  0.7827  0.3291
18066TIP3    H275690   1.123   2.441   3.780  0.6035 -0.4949 -1.0030
18067TIP3   OH275691   1.303   5.592  13.211  0.0719  0.3812  0.0104
18067TIP3    H175692   1.249   5.514  13.215  1.8842 -1.0141 -1.0370
18067TIP3    H275693   1.298   5.620  13.119  1.2460  0.1006 -0.1583
18068TIP3   OH275694   6.123   3.357  10.554  0.3262 -0.0272 -0.1422
18068TIP3    H175695   6.105   3.274  10.510  0.5242  0.4629 -1.1597
18068TIP3    H275696   6.105   3.424  10.488 -3.2780  1.0019  1.6141
18069TIP3   OH275697   5.913   0.672  17.266  0.9811  0.2547  0.5421
18069TIP3    H175698   5.833   0.643  17.310  0.8662  1.5726  1.2561
18069TIP3    H275699   5.950   0.593  17.228 -1.2910 -0.2423 -0.8361
18070TIP3   OH275700   6.680   1.989  14.048 -0.0362  0.2553  0.1030
18070TIP3    H175701   6.603   2.017  13.999 -0.3353 -0.0200  0.4052
18070TIP3    H275702   6.660   2.011  14.139  1.3182  2.5499 -0.0872
18071TIP3   OH275703   0.933   0.245  15.435 -0.6397  0.4358  0.2329
18071TIP3    H175704   0.897   0.320  15.482 -1.3743 -0.3344  0.9321
18071TIP3    H275705   0.856   0.201  15.398 -0.1834  0.2452 -0.5193
18072TIP3   OH275706   3.919   3.348  15.137 -0.1913  0.2821  0.0011
18072TIP3    H175707   4.014   3.363  15.131  0.4291 -1.0450  3.6200
18072TIP3    H275708   3.882   3.436  15.144  0.9236  0.7928 -0.2288
18073TIP3   OH275709   4.626   6.131  16.715 -0.0275  0.3266  0.1533
18073TIP3    H175710   4.537   6.104  16.692  1.0389 -2.4616 -1.3022
18073TIP3    H275711   4.682   6.069  16.667  2.6494  0.7116  2.5310
18074TIP3   OH275712   5.492   1.768   4.306  0.6955 -0.1715  0.0675
18074TIP3    H175713   5.430   1.712   4.258  0.5211 -0.5605  0.7288
18074TIP3    H275714   5.565   1.780   4.246  1.1650 -1.9041  0.2423
18075TIP3   OH275715   3.154   4.350  10.648  0.1711 -0.3495 -0.0732
18075TIP3    H175716   3.155   4.294  10.570  1.9357  1.0811 -1.1687
18075TIP3    H275717   3.182   4.436  10.616  1.2750  0.2130  2.1890
18076TIP3   OH275718   3.403   1.376  12.485  0.1044 -0.0903 -0.3981
18076TIP3    H175719   3.435   1.447  12.541 -0.2073  0.5884 -1.0655
18076TIP3    H275720   3.316   1.404  12.458  0.7351  0.2456 -2.2739
18077TIP3   OH275721   2.092   2.447  12.614 -0.5736 -0.1969  0.6067
18077TIP3    H175722   2.162   2.483  12.560 -0.5835 -1.0476  0.0053
18077TIP3    H275723   2.129   2.366  12.650 -0.6263  0.2648  1.7427
18078TIP3   OH275724   0.122   6.139  15.327  0.2675  0.3980 -0.0469
18078TIP3    H175725   0.214   6.162  15.336  0.5751 -0.7923 -0.0197
18078TIP3    H275726   0.120   6.044  15.336 -0.7217  0.1884 -1.8899
18079TIP3   OH275727   5.356   1.555  14.456  0.1432 -0.0205  0.0052
18079TIP3    H175728   5.410   1.591  14.526  0.2926 -0.8599  0.3351
18079TIP3    H275729   5.295   1.625  14.433 -0.5250 -0.0460  1.6275
18080TIP3   OH275730   4.893   6.154  16.158 -0.7276  0.3147  0.0231
18080TIP3    H175731   4.841   6.187  16.084 -1.6655  0.9119  0.9289
18080TIP3    H275732   4.846   6.076  16.188  0.8062 -1.2031 -1.3121
18081TIP3   OH275733   3.578   1.399  16.491 -0.2170 -0.1619 -0.6774
18081TIP3    H175734   3.661   1.357  16.513  0.4154  0.0618 -2.4405
18081TIP3    H275735   3.527   1.330  16.448 -1.2540 -0.4859  0.9801
18082TIP3   OH275736   4.404   2.725   0.978 -0.2945 -0.1124  0.4821
18082TIP3    H175737   4.476   2.727   1.040  2.1589 -0.3998 -2.1734
18082TIP3    H275738   4.360   2.642   0.994  0.9661 -0.6771  1.0859
18083TIP3   OH275739   5.508   5.651  16.084 -0.5018 -0.6784  0.3262
18083TIP3    H175740   5.530   5.685  15.997 -1.2854 -1.2591 -0.1025
18083TIP3    H275741   5.554   5.710  16.144  0.1689 -0.3559 -0.4767
18084TIP3   OH275742   5.525   0.263  10.579 -0.3879  0.1186 -0.4134
18084TIP3    H175743   5.474   0.207  10.520 -0.3243 -1.0320  0.5896
18084TIP3    H275744   5.612   0.266  10.539 -0.2917 -0.8098 -0.3084
18085TIP3   OH275745   0.863   1.759   5.104 -0.2075  0.3121  0.1888
18085TIP3    H175746   0.893   1.716   5.024  1.1761  0.9751  0.3194
18085TIP3    H275747   0.816   1.837   5.074  0.3371  0.5768  0.0245
18086TIP3   OH275748   1.830   6.764  16.066  0.2325 -0.6622  0.2923
18086TIP3    H175749   1.797   6.697  16.007 -2.7063  1.1637 -0.3521
18086TIP3    H275750   1.880   6.823  16.009 -0.5021 -0.2350  0.0780
18087TIP3   OH275751   2.380   5.237  14.859 -0.1543 -0.0939  0.7680
18087TIP3    H175752   2.359   5.317  14.811  1.9083 -1.1008 -2.0576
18087TIP3    H275753   2.475   5.240  14.872  0.0762 -2.2635  0.0785
18088TIP3   OH275754   0.872   6.414  10.850 -0.3588  0.5599  0.7909
18088TIP3    H175755   0.935   6.486  10.846  1.8745 -1.3318 -0.5125
18088TIP3    H275756   0.919   6.339  10.816 -3.4178 -0.9769 -0.4580
18089TIP3   OH275757   2.520   6.678  12.321 -0.3127 -0.2237 -0.5818
18089TIP3    H175758   2.468   6.643  12.249 -1.3544  2.2521 -1.1439
18089TIP3    H275759   2.457   6.722  12.378  0.6737 -0.8712  1.1195
18090TIP3   OH275760   2.629   0.693   2.955 -0.2855  0.5422  0.3661
18090TIP3    H175761   2.586   0.704   2.871 -1.4292 -0.2625  0.8216
18090TIP3    H275762   2.570   0.735   3.018  1.2768  2.5158  0.6309
18091TIP3   OH275763   3.640   4.607  16.426  0.0112 -0.0059 -0.2693
18091TIP3    H175764   3.632   4.702  16.431  1.0578  0.1124 -0.4965
18091TIP3    H275765   3.636   4.587  16.333  0.9683 -0.0474 -0.3139
18092TIP3   OH275766   4.576   0.636   5.702  0.2348 -0.4130  0.0221
18092TIP3    H175767   4.614   0.720   5.729 -1.7660  0.7652 -0.6845
18092TIP3    H275768   4.555   0.647   5.610  1.5340 -2.3436 -0.5739
18093TIP3   OH275769   5.278   3.292   4.907  0.5206 -0.5929 -0.7194
18093TIP3    H175770   5.365   3.280   4.869  0.0486  0.4623 -2.1994
18093TIP3    H275771   5.231   3.211   4.887  1.1684 -1.2191  0.1968
18094TIP3   OH275772   3.776   1.436  13.928 -0.2361  0.4123 -0.8766
18094TIP3    H175773   3.819   1.490  13.862 -1.2431 -0.0031 -1.9013
18094TIP3    H275774   3.804   1.346  13.908  1.6339  0.5188  0.9703
18095TIP3   OH275775   4.655   6.670   6.185  0.2345 -0.2522 -0.2538
18095TIP3    H175776   4.632   6.712   6.268 -0.8366  0.7797 -1.0317
18095TIP3    H275777   4.636   6.577   6.199 -0.7477  0.0280  0.3926
18096TIP3   OH275778   3.631   0.164  16.814 -0.3374  0.4348  0.3428
18096TIP3    H175779   3.645   0.144  16.721  0.5642  0.2235  0.5125
18096TIP3    H275780   3.687   0.240  16.831 -1.7641  1.5406  0.3324
18097TIP3   OH275781   2.859   5.102  16.025 -0.3566 -0.2218  0.6724
18097TIP3    H175782   2.868   5.011  15.998  1.5274 -0.5131  2.0955
18097TIP3    H275783   2.765   5.120  16.018 -0.5505 -1.7143 -1.2488
18098TIP3   OH275784   0.046   1.467  11.606  0.9083  0.3896 -0.6108
18098TIP3    H175785   0.104   1.448  11.679 -0.1995  2.5539  0.9634
18098TIP3    H275786  -0.041   1.477  11.646  0.1418  0.9989 -2.2996
18099TIP3   OH275787   3.012   2.382  10.774  0.3318  0.0142  0.2351
18099TIP3    H175788   2.985   2.404  10.863  1.2446 -2.2027  1.1426
18099TIP3    H275789   3.107   2.368  10.781  0.4539  0.0485 -1.1433
18100TIP3   OH275790   4.149   4.612  11.992  0.4135 -0.5471 -0.3370
18100TIP3    H175791   4.106   4.674  12.050 -0.0482 -0.1337 -1.0955
18100TIP3    H275792   4.211   4.565  12.047 -0.5101 -0.6597  0.6333
18101TIP3   OH275793   1.586   0.128  16.107 -0.1363  0.1824  0.5475
18101TIP3    H175794   1.571   0.093  16.019 -1.0588  0.2800  0.6617
18101TIP3    H275795   1.674   0.098  16.129 -0.8496 -2.0066  0.6132
18102TIP3   OH275796   1.092   2.682   1.832 -0.0442 -0.1227  0.0032
18102TIP3    H175797   1.166   2.706   1.888 -0.0267 -0.0352 -0.0582
18102TIP3    H275798   1.043   2.617   1.884 -1.7490  2.1597  1.4309
18103TIP3   OH275799   6.181   0.403  11.666 -0.0556 -0.1294 -0.3057
18103TIP3    H175800   6.244   0.343  11.628  0.3816  0.5155 -0.6192
18103TIP3    H275801   6.160   0.464  11.595  0.0782  0.5393  0.2174
18104TIP3   OH275802   1.577   0.330   5.412 -0.5908  0.4062 -0.2565
18104TIP3    H175803   1.579   0.236   5.395 -0.2090  0.5253 -0.8901
18104TIP3    H275804   1.485   0.354   5.404 -0.7333  0.0310  0.2338
18105TIP3   OH275805   2.532   6.493  13.352  0.0323 -0.1427 -0.4616
18105TIP3    H175806   2.444   6.521  13.376  0.2385  0.1526 -0.0337
18105TIP3    H275807   2.583   6.501  13.433  0.4534 -0.3019 -0.7051
18106TIP3   OH275808   1.686   2.594  15.368  0.2261  0.1410 -0.0637
18106TIP3    H175809   1.756   2.627  15.312  0.0395 -1.1171 -1.0984
18106TIP3    H275810   1.723   2.595  15.456  0.3663  2.6183 -0.0802
18107TIP3   OH275811   3.596   4.037  16.597  0.3958 -0.4417 -0.0196
18107TIP3    H175812   3.640   4.085  16.528  1.7149  1.2141  1.8597
18107TIP3    H275813   3.513   4.010  16.558  1.2919 -0.0341 -2.3662
18108TIP3   OH275814   5.382   0.014   2.194 -0.1460  0.0216  0.1297
18108TIP3    H175815   5.325  -0.059   2.171  0.0955  0.1720 -0.9632
18108TIP3    H275816   5.459  -0.027   2.233  0.1100 -0.3305 -0.7293
18109TIP3   OH275817   3.303   0.153  15.383  0.1982 -0.5886 -0.4032
18109TIP3    H175818   3.364   0.080  15.374 -1.5962 -2.6810  2.4562
18109TIP3    H275819   3.355   0.224  15.420  1.5423 -1.1306 -1.1887
18110TIP3   OH275820   5.224   3.615  13.471 -0.2237 -0.4992 -0.3293
18110TIP3    H175821   5.164   3.562  13.524  0.9915 -1.5651  0.0426
18110TIP3    H275822   5.292   3.642  13.533 -1.5978  2.9656 -0.0996
18111TIP3   OH275823   2.070   2.368   0.471 -0.2008  0.8386  0.1787
18111TIP3    H175824   1.977   2.354   0.491  0.2337  0.0764  1.8174
18111TIP3    H275825   2.102   2.281   0.445  0.1471  1.0122  0.0297
18112TIP3   OH275826   6.084   3.269  17.200 -0.2093  0.0371 -1.0710
18112TIP3    H175827   6.130   3.328  17.141  1.6015 -2.3391 -2.1981
18112TIP3    H275828   6.030   3.215  17.143 -0.6726 -0.3990 -0.2463
18113TIP3   OH275829   4.438   2.642   3.646  0.0845  0.4597 -0.4594
18113TIP3    H175830   4.377   2.570   3.626 -0.3106  1.3905 -3.1338
18113TIP3    H275831   4.394   2.693   3.714  0.2541 -1.6033  1.3016
18114TIP3   OH275832   5.889   3.617   3.114 -0.1660  0.2386  0.0599
18114TIP3    H175833   5.968   3.608   3.168  0.1978  0.7552 -0.3802
18114TIP3    H275834   5.875   3.529   3.078  0.2728  0.1660  0.0574
18115TIP3   OH275835   1.933   0.157   6.868 -0.3019  0.0915  0.6542
18115TIP3    H175836   1.999   0.091   6.845 -1.5552 -0.3390 -2.0906
18115TIP3    H275837   1.964   0.237   6.827 -1.0971  0.0465 -0.0714
18116TIP3   OH275838   4.366   6.224  13.061  0.0998  0.3156  0.2717
18116TIP3    H175839   4.447   6.246  13.107  0.3760  0.2103 -0.1582
18116TIP3    H275840   4.392   6.216  12.969 -0.8369  2.7361 -0.2803
18117TIP3   OH275841   0.344   4.961   5.972 -0.2257 -0.2488  0.0659
18117TIP3    H175842   0.344   5.056   5.962 -1.2600 -0.1555  0.7997
18117TIP3    H275843   0.251   4.936   5.969 -0.1814 -0.9362  2.2843
18118TIP3   OH275844   5.494   5.439  17.157  0.2135 -0.2435 -0.4854
18118TIP3    H175845   5.424   5.489  17.198 -0.1120 -0.3483 -0.9041
18118TIP3    H275846   5.574   5.474  17.195 -0.0229  0.4281 -0.5933
18119TIP3   OH275847   1.492   5.705  16.912  0.7159 -0.4286 -0.2677
18119TIP3    H175848   1.568   5.731  16.964 -0.2896 -1.0769  1.6069
18119TIP3    H275849   1.507   5.746  16.826  1.5875  2.1752  1.0072
18120TIP3   OH275850   3.853   6.426   0.883  0.4685  0.3279 -0.5375
18120TIP3    H175851   3.877   6.380   0.802  0.0701 -2.4052  0.7535
18120TIP3    H275852   3.927   6.411   0.941  0.2510  1.2437 -0.0215
18121TIP3   OH275853   6.727   5.528   3.826 -0.1724 -0.4717  0.3762
18121TIP3    H175854   6.722   5.612   3.871 -1.5991 -0.7285  0.7230
18121TIP3    H275855   6.819   5.501   3.836  0.3424  1.0818  0.1563
18122TIP3   OH275856   5.055   2.089  13.626  0.0872 -0.1043  0.3955
18122TIP3    H175857   5.145   2.057  13.617  0.5960  1.5878 -1.1896
18122TIP3    H275858   5.038   2.136  13.545 -3.0314 -2.1306 -0.3083
18123TIP3   OH275859   3.292   6.110  14.903 -0.3124 -0.1172  0.0800
18123TIP3    H175860   3.375   6.147  14.935 -0.0747  0.7623 -1.4784
18123TIP3    H275861   3.228   6.180  14.916 -0.1700  0.3324 -1.4936
18124TIP3   OH275862   4.819   4.723   0.158  0.3953  0.3093 -0.2599
18124TIP3    H175863   4.758   4.774   0.212  1.2872 -0.0660  1.1597
18124TIP3    H275864   4.905   4.740   0.196  0.7792 -1.8774 -0.0100
18125TIP3   OH275865   1.569   1.481   5.274  0.4209 -0.6918  0.2728
18125TIP3    H175866   1.626   1.477   5.197  0.3484 -2.8208  0.2725
18125TIP3    H275867   1.496   1.536   5.247  0.8863 -0.5815 -0.8235
18126TIP3   OH275868   4.028   0.242   4.482 -0.0298  0.2270 -0.0187
18126TIP3    H175869   3.977   0.297   4.541 -0.5906 -0.4572  0.1484
18126TIP3    H275870   3.972   0.165   4.467  0.0783  0.4125 -1.4812
18127TIP3   OH275871   0.026   4.437  15.307  0.2575 -0.2020 -0.0190
18127TIP3    H175872  -0.066   4.447  15.333 -0.6953 -0.8987 -2.8089
18127TIP3    H275873   0.044   4.514  15.253  1.2034 -0.3083  0.1307
18128TIP3   OH275874   3.969   5.778   1.574  0.4590  0.5977  0.0384
18128TIP3    H175875   3.932   5.866   1.560  0.7592  0.6936 -0.1775
18128TIP3    H275876   3.954   5.733   1.491 -1.2161 -0.1344  0.6936
18129TIP3   OH275877   4.497   4.609   0.676 -0.4144  0.5082  0.3575
18129TIP3    H175878   4.569   4.557   0.712 -0.3807  1.3091  1.5012
18129TIP3    H275879   4.517   4.617   0.583  0.5847  0.0856  0.5266
18130TIP3   OH275880   5.196   2.143   2.868 -0.1608 -0.0193  0.3252
18130TIP3    H175881   5.271   2.096   2.903 -0.7718  0.4322  2.4141
18130TIP3    H275882   5.130   2.076   2.853  0.4832 -0.3607 -1.0989
18131TIP3   OH275883   4.543   0.360   2.725  0.2503 -0.3360  0.0925
18131TIP3    H175884   4.637   0.343   2.736  0.8848 -0.1695 -3.7739
18131TIP3    H275885   4.506   0.276   2.697 -0.4097  0.0026 -0.0797
18132TIP3   OH275886   1.042   6.401   3.311 -0.1090 -0.2911 -0.3168
18132TIP3    H175887   1.089   6.365   3.387 -1.8443 -1.8319  0.1079
18132TIP3    H275888   1.106   6.457   3.267  0.7144  1.4782  2.8011
18133TIP3   OH275889   6.540   1.915   3.073  0.0367  0.6935 -0.0625
18133TIP3    H175890   6.507   1.991   3.025 -1.3639  0.0399 -0.2078
18133TIP3    H275891   6.597   1.870   3.010 -0.3227  0.8302 -0.4982
18134TIP3   OH275892   4.513   3.458   0.124 -0.2698 -0.2417  0.0047
18134TIP3    H175893   4.456   3.514   0.177 -0.5929 -0.2804 -0.3003
18134TIP3    H275894   4.467   3.374   0.118 -0.1370 -0.3054 -0.1605
18135TIP3   OH275895   3.023   5.131   1.065 -0.0226  0.1393  0.2910
18135TIP3    H175896   3.031   5.066   0.995 -2.2208 -1.9726  1.8646
18135TIP3    H275897   3.066   5.209   1.029  2.9940 -2.1453 -1.6173
18136TIP3   OH275898   5.685   6.091  13.163  0.0817  0.5562 -0.4811
18136TIP3    H175899   5.695   5.996  13.151  0.2598  0.5232 -0.0977
18136TIP3    H275900   5.613   6.099  13.226 -0.6544  0.7115 -1.3247
18137TIP3   OH275901   2.724   3.303  16.684 -0.2418  0.2183 -0.1706
18137TIP3    H175902   2.724   3.318  16.589  1.0041 -1.6957 -0.5164
18137TIP3    H275903   2.705   3.210  16.694  1.5183 -0.0465  1.3307
18138TIP3   OH275904   2.115   0.902  12.782  0.0333 -0.2671  0.1679
18138TIP3    H175905   2.116   0.846  12.704 -0.7372  2.3796 -1.8659
18138TIP3    H275906   2.031   0.881  12.824 -0.3594 -0.4890 -0.6930
18139TIP3   OH275907   6.079   6.232  14.494 -0.3532  0.2881  0.0167
18139TIP3    H175908   6.034   6.316  14.483  0.0276  0.4749 -0.1135
18139TIP3    H275909   6.172   6.252  14.481 -0.0316  0.2243  1.8889
18140TIP3   OH275910   0.666   3.298  14.021 -0.3572  0.1778 -0.2625
18140TIP3    H175911   0.750   3.269  13.985 -1.3818 -2.8368 -0.5041
18140TIP3    H275912   0.604   3.287  13.949 -0.9967  2.4519 -0.1188
18141TIP3   OH275913   1.464   0.585   2.350  0.3734 -0.3394  1.2117
18141TIP3    H175914   1.457   0.544   2.436 -0.0096  0.5533  1.6232
18141TIP3    H275915   1.466   0.679   2.369  3.1058 -0.1484  0.4443
18142TIP3   OH275916   3.532   3.938  15.593 -0.0183  0.1813  0.5179
18142TIP3    H175917   3.574   3.973  15.672 -0.7746 -0.6146  1.2856
18142TIP3    H275918   3.440   3.932  15.616 -0.0228 -1.5788  0.1493
18143TIP3   OH275919   6.812   0.082  13.852 -0.2588  0.0526  0.0444
18143TIP3    H175920   6.746   0.073  13.783 -0.3212 -1.8884  0.3085
18143TIP3    H275921   6.779   0.152  13.908 -1.4203  0.0244 -0.5819
18144TIP3   OH275922   2.442   3.104   4.970  0.0444 -0.1513 -0.3069
18144TIP3    H175923   2.466   3.109   5.063 -3.4349 -2.2104  0.8963
18144TIP3    H275924   2.498   3.036   4.934 -0.7747 -1.7112  1.2143
18145TIP3   OH275925   5.831   3.847   3.299  0.1736 -0.3184  0.5073
18145TIP3    H175926   5.895   3.851   3.228 -0.6614 -1.3557 -0.3409
18145TIP3    H275927   5.810   3.754   3.307 -1.8954  0.0671  0.1290
18146TIP3   OH275928   4.670   1.240   1.675 -0.3735 -0.2404  0.2988
18146TIP3    H175929   4.721   1.303   1.725 -1.6344  0.5496  0.6460
18146TIP3    H275930   4.640   1.288   1.598 -0.0807 -0.8717 -0.2133
18147TIP3   OH275931   4.127   2.164  13.135  0.9405  0.2312  0.0258
18147TIP3    H175932   4.198   2.183  13.074  2.1106 -0.3018  1.1737
18147TIP3    H275933   4.170   2.153  13.219 -0.2021 -2.3560  0.3746
18148TIP3   OH275934   0.559   2.461  15.186 -0.2001 -0.4613 -0.3644
18148TIP3    H175935   0.494   2.391  15.180  0.4614 -1.1643  0.3941
18148TIP3    H275936   0.521   2.533  15.135 -0.3608 -1.7599 -2.1950
18149TIP3   OH275937   4.418   4.099   5.693  0.5324  0.0486  0.0200
18149TIP3    H175938   4.375   4.023   5.733  0.6559  0.1657  0.3818
18149TIP3    H275939   4.437   4.072   5.604 -0.2754 -0.0144 -0.1353
18150TIP3   OH275940   5.847   0.185  11.553 -0.1289 -0.0849  0.0627
18150TIP3    H175941   5.919   0.171  11.615 -0.6331  0.4683  0.7865
18150TIP3    H275942   5.768   0.181  11.607 -0.7314 -1.5699 -0.8409
18151TIP3   OH275943   3.380   3.066   0.772 -0.2414 -0.4879  0.6008
18151TIP3    H175944   3.395   3.132   0.840 -0.2402  0.5453 -0.3751
18151TIP3    H275945   3.342   2.991   0.819  0.2639 -0.0085  1.8117
18152TIP3   OH275946   4.487   5.038  12.441 -0.8438  0.5588  0.6010
18152TIP3    H175947   4.462   5.111  12.499 -0.2519  0.4024  1.0650
18152TIP3    H275948   4.499   4.964  12.501 -3.3352 -0.4664 -0.0411
18153TIP3   OH275949   5.624   2.214   6.479  1.1814  0.2039  0.1820
18153TIP3    H175950   5.559   2.148   6.455  0.5813  1.2482 -1.2128
18153TIP3    H275951   5.579   2.272   6.540  1.5955 -0.4320  1.1198
18154TIP3   OH275952   3.090   4.106   3.979 -0.4777 -0.3932 -0.0782
18154TIP3    H175953   3.047   4.179   4.023 -0.7529 -0.9877  0.6833
18154TIP3    H275954   3.137   4.061   4.049  1.2580  0.1263 -0.8549
18155TIP3   OH275955   0.955   4.859  12.321 -0.9411 -0.1715 -0.1934
18155TIP3    H175956   0.863   4.862  12.347 -1.4487 -0.2080 -1.8267
18155TIP3    H275957   0.959   4.788  12.257  0.4355 -0.7879  0.5345
18156TIP3   OH275958   5.008   1.957  11.340 -0.2753  0.2969  0.4101
18156TIP3    H175959   4.914   1.976  11.332 -0.0106  1.0914 -1.0731
18156TIP3    H275960   5.043   2.033  11.387 -0.2002  0.5912 -0.1077
18157TIP3   OH275961   6.463   3.982  11.271  0.2256  0.3136  0.1798
18157TIP3    H175962   6.430   3.895  11.251  0.7500  0.1551 -0.0250
18157TIP3    H275963   6.540   3.991  11.214 -1.4445  2.0202 -2.0163
18158TIP3   OH275964   4.750   1.048  13.155 -0.2657 -0.0478  0.8088
18158TIP3    H175965   4.671   0.993  13.158 -0.8083  0.7573  2.0938
18158TIP3    H275966   4.736   1.105  13.079 -2.1403  1.7806  2.4110
18159TIP3   OH275967   5.388   4.182  11.402  0.0015  0.6259 -0.1855
18159TIP3    H175968   5.334   4.169  11.325  0.7948 -1.5543 -0.4261
18159TIP3    H275969   5.338   4.243  11.457 -2.0436 -0.2555 -0.9924
18160TIP3   OH275970   3.798   2.005  16.633  0.0005 -0.1592 -0.4297
18160TIP3    H175971   3.715   1.999  16.586  0.1685 -1.6288 -0.5811
18160TIP3    H275972   3.781   1.964  16.718  0.6751 -0.8469 -0.6183
18161TIP3   OH275973   4.409   6.651   3.242  0.4407 -0.2324 -0.6054
18161TIP3    H175974   4.430   6.587   3.175  0.0177 -1.3432  0.2841
18161TIP3    H275975   4.339   6.610   3.294  1.2264  0.2887  0.9308
18162TIP3   OH275976   5.731   6.621   3.786 -0.7096 -0.1303  0.5624
18162TIP3    H175977   5.810   6.670   3.804  0.2129 -1.4897  0.3580
18162TIP3    H275978   5.689   6.609   3.872 -0.9995  1.0491  0.6007
18163TIP3   OH275979   1.064   0.472   0.412 -0.1352  0.4771  0.2769
18163TIP3    H175980   1.121   0.546   0.433 -1.5601  2.2163 -1.6877
18163TIP3    H275981   1.124   0.403   0.384  1.1056  1.7994 -0.4376
18164TIP3   OH275982   2.435   1.444  11.214  0.3574  0.3189  0.3727
18164TIP3    H175983   2.484   1.369  11.250  1.2610  0.7522  0.0810
18164TIP3    H275984   2.500   1.513  11.205  0.0591  0.4122 -1.5677
18165TIP3   OH275985   0.910   0.929  13.231 -0.4476  0.4426  0.2575
18165TIP3    H175986   0.969   0.961  13.299  0.1065 -2.1270  1.0920
18165TIP3    H275987   0.823   0.942  13.267 -0.4628  3.3100 -0.5528
18166TIP3   OH275988   0.706   5.680   1.581 -0.0268  0.4755  0.1413
18166TIP3    H175989   0.666   5.678   1.667 -1.9205 -0.8963 -0.7032
18166TIP3    H275990   0.718   5.773   1.562 -1.7752  0.8952  0.9450
18167TIP3   OH275991   3.704   4.070  13.559  0.6418  0.0574 -0.5371
18167TIP3    H175992   3.695   4.126  13.482  2.1506 -0.2654 -0.9919
18167TIP3    H275993   3.668   3.985  13.531  0.6619  0.1012 -0.6943
18168TIP3   OH275994   6.496   4.118  11.907  0.5960  0.2018 -0.2955
18168TIP3    H175995   6.446   4.158  11.836 -2.0801  1.5017  2.1298
18168TIP3    H275996   6.575   4.172  11.914 -0.5635  1.9836 -0.3544
18169TIP3   OH275997   3.502   1.901   0.829  0.2783  0.1413 -0.2244
18169TIP3    H175998   3.551   1.906   0.747  1.2614  1.2638  0.3964
18169TIP3    H275999   3.504   1.808   0.853  1.0218 -0.0152 -0.8542
18170TIP3   OH276000   6.358   2.125   5.283 -0.6305  0.2452  1.1145
18170TIP3    H176001   6.282   2.068   5.292  0.3139 -1.2088  0.3820
18170TIP3    H276002   6.430   2.066   5.261  0.2713  1.7888 -0.3739
18171TIP3   OH276003   6.646   1.727   0.802 -0.1541 -0.4272 -0.0282
18171TIP3    H176004   6.618   1.810   0.764  2.2568  0.5177  0.0833
18171TIP3    H276005   6.689   1.682   0.730 -0.5832 -1.1753  0.1718
18172TIP3   OH276006   0.740   3.614  14.395 -0.5903 -0.6756 -0.0623
18172TIP3    H176007   0.713   3.705  14.411  1.3909 -0.1391  0.4022
18172TIP3    H276008   0.766   3.581  14.481  0.3826 -1.0921 -0.5062
18173TIP3   OH276009   0.343   4.278  13.460 -0.6446  0.2911 -0.6894
18173TIP3    H176010   0.312   4.241  13.377 -1.0468 -0.6598 -0.1281
18173TIP3    H276011   0.401   4.212  13.496  0.7960  1.3618 -0.9319
18174TIP3   OH276012   4.089   0.668   2.942 -0.4790 -0.4344  0.0040
18174TIP3    H176013   4.003   0.696   2.974  0.4758 -0.1808  2.6118
18174TIP3    H276014   4.126   0.617   3.014  1.7383 -0.1526 -0.8415
18175TIP3   OH276015   2.585   4.988  15.427  0.8642  0.0735  0.4662
18175TIP3    H176016   2.534   4.927  15.480  0.7559 -2.9608 -2.7533
18175TIP3    H276017   2.521   5.046  15.387  0.4385 -0.6486  0.0944
18176TIP3   OH276018   5.338   1.652   2.541  0.1394 -0.0882 -0.3006
18176TIP3    H176019   5.349   1.733   2.592 -0.9769 -0.5149  0.6625
18176TIP3    H276020   5.338   1.681   2.450  0.0707  0.9605  0.0187
18177TIP3   OH276021   3.153   3.148   4.612 -0.2167 -0.0899 -0.0012
18177TIP3    H176022   3.108   3.223   4.650  1.7972  0.6060  1.1981
18177TIP3    H276023   3.175   3.092   4.687 -1.4686 -1.8089 -0.8449
18178TIP3   OH276024   0.429   3.429   1.549 -1.1127  0.8749  0.1968
18178TIP3    H176025   0.448   3.497   1.484 -0.9093  1.2336  0.6292
18178TIP3    H276026   0.366   3.372   1.506  1.3818 -0.7514 -1.5927
18179TIP3   OH276027   6.190   6.297   0.006  0.1171 -0.0880  0.0221
18179TIP3    H176028   6.275   6.290  -0.037  0.5941 -1.7665  1.1609
18179TIP3    H276029   6.127   6.287  -0.065  0.8829 -1.4360 -0.5063
18180TIP3   OH276030   0.965   4.535  16.007  0.1992  0.0230 -0.0081
18180TIP3    H176031   0.966   4.544  16.102 -2.0168 -0.7012  0.1503
18180TIP3    H276032   0.909   4.458  15.991  0.3664  0.2441 -1.8982
18181TIP3   OH276033   0.574   5.019   2.423 -0.2673 -0.4238  0.6246
18181TIP3    H176034   0.588   4.925   2.436  2.8213 -0.3814 -1.3654
18181TIP3    H276035   0.541   5.026   2.333  1.0354  0.4417  0.1851
18182TIP3   OH276036   5.995   1.475  12.737 -0.3197 -0.3137  0.3422
18182TIP3    H176037   5.908   1.505  12.761 -0.1849  1.8509 -1.5406
18182TIP3    H276038   5.980   1.407  12.671 -0.5888 -0.6858  0.7865
18183TIP3   OH276039   6.474   4.724  17.266  0.1285  0.5146  0.3045
18183TIP3    H176040   6.408   4.788  17.292 -0.9289 -0.9458  1.3314
18183TIP3    H276041   6.556   4.758  17.302 -0.6074  0.7344  1.8242
18184TIP3   OH276042   1.137   2.579  16.939  0.5799  0.0027  0.1797
18184TIP3    H176043   1.216   2.622  16.972  1.2148 -0.8483 -0.2087
18184TIP3    H276044   1.165   2.491  16.913 -0.8131 -0.9060  1.5493
18185TIP3   OH276045   5.839   6.218   2.393  0.1189 -0.5626 -0.1184
18185TIP3    H176046   5.888   6.172   2.325 -0.7747 -0.6524 -0.7191
18185TIP3    H276047   5.790   6.149   2.439  2.0627 -0.7682  1.8445
18186TIP3   OH276048   4.733   6.768   1.879  0.0823  0.8688 -0.2601
18186TIP3    H176049   4.768   6.842   1.830 -0.0210  1.2297  0.2108
18186TIP3    H276050   4.668   6.807   1.938 -0.7794  0.2784 -0.7895
18187TIP3   OH276051   2.590   0.337  14.780  0.1279 -0.2354  0.6963
18187TIP3    H176052   2.685   0.327  14.792  0.3371  0.4466 -0.2533
18187TIP3    H276053   2.577   0.330  14.685 -0.7685 -0.2726  0.8136
18188TIP3   OH276054   5.172   4.960  11.771 -0.0463 -0.2085  0.2265
18188TIP3    H176055   5.214   5.045  11.759  1.9224 -1.2244 -0.4536
18188TIP3    H276056   5.083   4.981  11.800  0.4914  2.0549  0.3863
18189TIP3   OH276057   0.992   3.536   3.220 -0.1474 -0.2644  0.4719
18189TIP3    H176058   0.915   3.564   3.170  0.1519 -2.5752 -1.4631
18189TIP3    H276059   1.064   3.587   3.183 -0.0035 -1.6365 -1.2821
18190TIP3   OH276060   5.715   5.576   4.573  0.0257  0.5153  0.1799
18190TIP3    H176061   5.685   5.609   4.489  0.9296  0.7301 -0.0733
18190TIP3    H276062   5.809   5.562   4.561 -0.0361 -0.5778  0.7879
18191TIP3   OH276063   2.193   1.141   0.999 -0.0643  0.2422  0.1454
18191TIP3    H176064   2.101   1.139   0.971 -0.1817 -0.0948  0.5486
18191TIP3    H276065   2.195   1.087   1.078  1.1263 -2.8171 -1.7955
18192TIP3   OH276066   4.639   3.815  16.022 -0.4799  0.1836  0.5760
18192TIP3    H176067   4.715   3.782  15.974 -1.1141  0.9216 -1.0276
18192TIP3    H276068   4.656   3.793  16.114  0.7478 -1.3819  0.0166
18193TIP3   OH276069   0.044   5.106  12.796  0.2023 -0.1982  0.4365
18193TIP3    H176070   0.118   5.105  12.736 -1.1091  1.7000 -1.3317
18193TIP3    H276071   0.080   5.139  12.878  1.4438 -0.0135 -0.1619
18194TIP3   OH276072   4.755   2.676   4.748 -0.4737 -0.2470 -0.2110
18194TIP3    H176073   4.835   2.692   4.798  0.0046 -2.0225 -0.3593
18194TIP3    H276074   4.694   2.743   4.779  0.5432  0.1294  1.0590
18195TIP3   OH276075   4.572   2.196  11.898  0.0800 -0.5790  0.4009
18195TIP3    H176076   4.650   2.154  11.935  0.2632 -0.2413  0.4007
18195TIP3    H276077   4.504   2.129  11.902  0.6251 -1.2079 -0.5030
18196TIP3   OH276078   1.478   4.882  16.397 -0.7783  0.1579 -0.4791
18196TIP3    H176079   1.385   4.888  16.419 -0.1478 -0.5176  2.9737
18196TIP3    H276080   1.516   4.963  16.429 -0.0962  0.2464 -1.4765
18197TIP3   OH276081   2.234   0.336   2.970  0.1626 -0.0911  0.2786
18197TIP3    H176082   2.188   0.340   2.886  0.4677  1.4826  0.1497
18197TIP3    H276083   2.317   0.294   2.949 -0.7041 -1.8868  0.2869
18198TIP3   OH276084   1.476   0.593   1.795 -0.0135 -0.0251 -0.4510
18198TIP3    H176085   1.426   0.513   1.779 -0.2863  0.3239 -1.4177
18198TIP3    H276086   1.566   0.569   1.773  0.5077 -0.9513  2.2472
18199TIP3   OH276087   2.303   0.132  15.720 -0.2677 -0.2035  0.2458
18199TIP3    H176088   2.264   0.067  15.778  0.7837 -0.4821  0.6447
18199TIP3    H276089   2.231   0.158  15.662 -1.5188  0.5381  2.0415
18200TIP3   OH276090   5.460   2.331   5.216 -0.5439 -0.1300  0.1598
18200TIP3    H176091   5.466   2.383   5.296  0.7129  1.1778 -0.7582
18200TIP3    H276092   5.438   2.394   5.147  0.4448 -0.8876 -0.8814
18201TIP3   OH276093   5.378   1.946   2.961 -0.5153 -0.1908  0.2201
18201TIP3    H176094   5.334   1.950   3.046 -2.2106 -0.8564 -0.5769
18201TIP3    H276095   5.389   1.853   2.944 -0.6586 -0.0779 -0.5069
18202TIP3   OH276096   3.495   4.823   4.252  0.4777  0.2767 -0.1191
18202TIP3    H176097   3.580   4.854   4.284  0.3399  0.8415 -0.2828
18202TIP3    H276098   3.498   4.728   4.264  0.8356  0.3687  0.5889
18203TIP3   OH276099   6.540   4.223  15.309 -0.4975 -0.0645 -0.3211
18203TIP3    H176100   6.469   4.160  15.301 -2.0672  1.7146 -1.2691
18203TIP3    H276101   6.561   4.247  15.218 -0.8924  1.7237  0.0238
18204TIP3   OH276102   6.526   1.547  15.314 -0.2565  0.2039 -0.0284
18204TIP3    H176103   6.499   1.584  15.398 -0.7909 -0.9137  0.3171
18204TIP3    H276104   6.461   1.579  15.252 -0.4278  0.2422  0.1697
18205TIP3   OH276105   2.704   5.359   1.178 -0.2099  0.2525 -0.1374
18205TIP3    H176106   2.645   5.422   1.136 -1.0396 -0.3003  0.1693
18205TIP3    H276107   2.687   5.277   1.132 -1.4015 -0.4534  1.4656
18206TIP3   OH276108   3.553   0.963  14.886  0.8667 -0.2164  0.0287
18206TIP3    H176109   3.641   0.929  14.902  0.5859 -0.6479  0.6951
18206TIP3    H276110   3.567   1.056  14.868  1.2362  0.3965  2.9567
18207TIP3   OH276111   1.058   6.253   2.444 -0.5314  0.3438  0.1821
18207TIP3    H176112   1.110   6.250   2.364 -0.7494 -1.0910  0.0679
18207TIP3    H276113   0.969   6.271   2.414 -0.5779  0.0045  0.1090
18208TIP3   OH276114   1.560   3.517  16.781  0.9290 -0.2908  0.1069
18208TIP3    H176115   1.583   3.609  16.795  0.1817 -0.0404 -0.2044
18208TIP3    H276116   1.641   3.469  16.794  1.5595  0.5155 -0.6973
18209TIP3   OH276117   1.227   6.565   2.902  0.6527  0.3423  0.1528
18209TIP3    H176118   1.160   6.610   2.851  0.4258  1.2259  1.1984
18209TIP3    H276119   1.200   6.473   2.901  0.3098  0.4391 -0.7630
18210TIP3   OH276120   0.949   4.235  12.575 -0.0707  0.1557  0.4927
18210TIP3    H176121   1.042   4.254  12.569  1.1498 -4.1533  1.8781
18210TIP3    H276122   0.938   4.193  12.660 -3.4793  1.1285  0.7057
18211TIP3   OH276123   5.706   4.370  13.199 -0.0300 -0.1612 -0.0300
18211TIP3    H176124   5.679   4.403  13.284  1.4638  0.1034  0.3684
18211TIP3    H276125   5.737   4.447  13.151  2.1422 -0.6895  0.3868
18212TIP3   OH276126   0.016   6.761  12.433  0.1063 -0.5216  0.6706
18212TIP3    H176127  -0.066   6.727  12.399  0.2182 -1.0224  0.8950
18212TIP3    H276128   0.042   6.828  12.370 -1.1068  0.5449  1.2582
18213TIP3   OH276129   2.035   3.040  12.690  0.0793 -0.3338 -0.3769
18213TIP3    H176130   2.097   2.992  12.745  0.2584  1.5071  1.1149
18213TIP3    H276131   2.089   3.078  12.620  0.2946 -0.3968 -0.2460
18214TIP3   OH276132   1.472   6.250  10.701 -0.2623  0.2363 -0.5810
18214TIP3    H176133   1.435   6.320  10.648 -0.6244 -0.3567 -1.1236
18214TIP3    H276134   1.397   6.211  10.745 -0.3347 -1.0221 -1.7469
18215TIP3   OH276135   3.734   2.937   1.083 -0.1598 -0.4255 -0.6290
18215TIP3    H176136   3.652   2.963   1.125 -0.0275 -1.9169  0.6409
18215TIP3    H276137   3.738   2.990   1.003 -3.3361 -1.6898 -1.7884
18216TIP3   OH276138   6.373   4.766   1.457  0.7045 -0.8205  0.3597
18216TIP3    H176139   6.291   4.735   1.496  0.5436  0.5531  1.1627
18216TIP3    H276140   6.354   4.855   1.428  1.1147 -1.4312 -2.0426
18217TIP3   OH276141   1.685   0.870  11.591 -0.2529 -0.1013 -0.1761
18217TIP3    H176142   1.659   0.781  11.614 -1.8080  0.3959  0.1384
18217TIP3    H276143   1.752   0.859  11.524 -0.8971 -1.5061 -0.6357
18218TIP3   OH276144   3.002   5.064  10.962  0.5274  0.5821  0.3716
18218TIP3    H176145   2.921   5.116  10.966  0.1247  0.0150 -0.1442
18218TIP3    H276146   3.067   5.117  11.009  0.0435  1.3842  0.1649
18219TIP3   OH276147   6.807   3.507   0.461  0.1025 -0.2615  0.1408
18219TIP3    H176148   6.770   3.463   0.538  0.3560 -0.0332  0.3918
18219TIP3    H276149   6.863   3.440   0.421 -0.8045 -0.7128 -0.4121
18220TIP3   OH276150   5.862   1.175  15.517  0.2261  0.0479 -0.2361
18220TIP3    H176151   5.925   1.109  15.548 -0.5652 -0.0195  1.3719
18220TIP3    H276152   5.814   1.132  15.447  0.0164 -0.9748  0.5051
18221TIP3   OH276153   2.540   6.604  11.852 -0.1836 -0.0037  0.8224
18221TIP3    H176154   2.477   6.554  11.904  0.3437  0.1706  1.6347
18221TIP3    H276155   2.606   6.632  11.914 -0.1180  1.1460  0.2641
18222TIP3   OH276156   0.661   1.078  16.514  0.2690  0.3846  0.1178
18222TIP3    H176157   0.697   1.145  16.456 -0.5191  2.1833  1.5855
18222TIP3    H276158   0.613   1.128  16.580  0.6277 -1.5979  1.9694
18223TIP3   OH276159   4.692   0.206  14.152  0.1324  0.0677  0.5664
18223TIP3    H176160   4.647   0.133  14.195 -0.4172  0.5392  0.8041
18223TIP3    H276161   4.762   0.229  14.213 -0.0239  0.0819  0.7439
18224TIP3   OH276162   4.164   3.235   6.357  0.4516 -0.3482 -0.1963
18224TIP3    H176163   4.158   3.214   6.450  1.3629  1.0542  0.1993
18224TIP3    H276164   4.073   3.246   6.329  0.1702 -0.7960  0.5190
18225TIP3   OH276165   5.694   3.924  12.104  0.6205 -0.2858  0.1788
18225TIP3    H176166   5.720   3.921  12.197  0.3917  2.0998  0.3639
18225TIP3    H276167   5.686   4.017  12.084 -0.5695 -0.7841 -1.9211
18226TIP3   OH276168   4.055   5.364   0.020  0.2429 -0.0930  0.2666
18226TIP3    H176169   4.091   5.420   0.089  1.3027 -1.1816  0.6368
18226TIP3    H276170   3.962   5.385   0.018  0.2523  0.2002  1.8122
18227TIP3   OH276171   3.309   0.806  15.539 -0.2595  0.2668  0.2707
18227TIP3    H176172   3.405   0.808  15.538 -0.2638  0.7531 -0.8638
18227TIP3    H276173   3.284   0.898  15.548 -0.6039  0.3932 -1.6592
18228TIP3   OH276174   0.647   1.980   1.047  0.2724  0.3871 -0.3435
18228TIP3    H176175   0.591   1.906   1.024  1.9274 -1.2609  0.6756
18228TIP3    H276176   0.625   2.048   0.983 -1.6419 -0.7857 -1.0128
18229TIP3   OH276177   5.775   4.308  14.538  0.1507 -0.3831  0.0801
18229TIP3    H176178   5.831   4.235  14.513  0.3011 -0.0902 -0.4584
18229TIP3    H276179   5.749   4.289  14.628  1.3695 -0.3640  0.4481
18230TIP3   OH276180   5.833   1.110   3.418 -0.3940 -0.6043 -0.3707
18230TIP3    H176181   5.861   1.178   3.479 -0.0677  0.2756 -1.4544
18230TIP3    H276182   5.750   1.079   3.453 -1.0882  1.0991 -0.3675
18231TIP3   OH276183   4.448   4.907  13.431  0.6697  0.3936  0.3300
18231TIP3    H176184   4.543   4.893  13.438  0.5045 -1.1344 -0.2162
18231TIP3    H276185   4.418   4.905  13.522  1.0479  0.0109  0.4512
18232TIP3   OH276186   3.255   1.499  14.430 -0.1427  0.0010 -0.5762
18232TIP3    H176187   3.333   1.550  14.412 -1.6405  1.8100 -2.3631
18232TIP3    H276188   3.238   1.451  14.349 -0.4096 -1.1046  0.1028
18233TIP3   OH276189   6.012   4.947   0.564 -0.1099 -0.4346 -0.3611
18233TIP3    H176190   6.040   4.862   0.529  0.4681 -0.1127 -0.6854
18233TIP3    H276191   6.075   4.966   0.633 -0.4802 -0.4541 -0.0152
18234TIP3   OH276192   1.993   3.846  13.088 -0.4355  0.0475  0.3069
18234TIP3    H176193   2.057   3.899  13.040 -1.2449  1.3527  0.6241
18234TIP3    H276194   2.020   3.851  13.179 -0.7964  0.3300  0.4010
18235TIP3   OH276195   0.658   6.770   5.320  0.7773 -0.7111 -0.6603
18235TIP3    H176196   0.624   6.858   5.335  2.2013 -0.2822  0.2385
18235TIP3    H276197   0.749   6.774   5.348  0.5810 -2.7802  0.5010
18236TIP3   OH276198   4.580   2.422  11.716 -0.2602  0.1507 -0.4137
18236TIP3    H176199   4.605   2.459  11.801 -0.9511 -0.0091 -0.1393
18236TIP3    H276200   4.550   2.333  11.736 -0.5019  0.1395 -0.8152
18237TIP3   OH276201   2.992   5.572   5.922  0.6467  0.6918 -0.1255
18237TIP3    H176202   3.079   5.560   5.884  0.7649  2.5798 -0.5702
18237TIP3    H276203   2.938   5.604   5.850  0.8399  4.2058  1.0817
18238TIP3   OH276204   0.500   3.803   3.305  0.3237 -0.4515 -0.0919
18238TIP3    H176205   0.479   3.846   3.222  0.0176 -0.8101 -0.2043
18238TIP3    H276206   0.566   3.738   3.283 -0.1247 -0.8927 -0.1472
18239TIP3   OH276207   4.895   4.570  12.844  0.5148 -0.0467  0.4158
18239TIP3    H176208   4.968   4.530  12.797  0.9986  0.4122  0.7603
18239TIP3    H276209   4.910   4.545  12.935  0.0835 -0.1863  0.4461
18240TIP3   OH276210   5.058   5.041   4.772  0.5204 -0.5286  0.1023
18240TIP3    H176211   5.131   5.056   4.712 -0.3709  0.4112 -0.7837
18240TIP3    H276212   5.067   5.111   4.837 -0.6783  0.8559 -1.1292
18241TIP3   OH276213   6.222   1.340   5.237  0.5371 -0.4595  0.2729
18241TIP3    H176214   6.137   1.349   5.281  0.3785  1.7128 -0.3257
18241TIP3    H276215   6.208   1.382   5.151  1.9963 -0.7873 -0.1427
18242TIP3   OH276216   1.726   6.483   5.876 -0.5199 -0.0274 -0.8061
18242TIP3    H176217   1.760   6.571   5.895  1.0513 -0.6577 -0.5950
18242TIP3    H276218   1.706   6.446   5.962 -2.2678  0.4977 -0.9425
18243TIP3   OH276219   0.332   1.499  15.817 -0.0994  0.8661 -0.2358
18243TIP3    H176220   0.363   1.546  15.740 -0.0244  0.6417 -0.3409
18243TIP3    H276221   0.391   1.424  15.826  0.1615  1.1338  0.2961
18244TIP3   OH276222   1.321   5.397   4.902 -0.2384  0.7525  1.0220
18244TIP3    H176223   1.409   5.424   4.875  0.2295 -2.4220 -1.2095
18244TIP3    H276224   1.336   5.346   4.982  0.3233 -1.2531 -0.2760
18245TIP3   OH276225   2.633   3.242   1.642  0.1242  0.0009 -0.4155
18245TIP3    H176226   2.538   3.243   1.655  0.0405  2.9345 -0.6131
18245TIP3    H276227   2.652   3.325   1.598  3.0478  0.6749  1.7886
18246TIP3   OH276228   1.864   1.366  12.614  0.2784 -0.3964 -0.1387
18246TIP3    H176229   1.921   1.340  12.686  0.6659  0.3098 -0.1764
18246TIP3    H276230   1.896   1.315  12.539  2.1436  1.3533 -0.6233
18247TIP3   OH276231   6.660   6.822   3.050 -0.1585 -0.0352  0.1286
18247TIP3    H176232   6.609   6.801   3.129  0.0258  0.8138  0.4877
18247TIP3    H276233   6.741   6.772   3.060 -0.8693 -1.3448 -0.4134
18248TIP3   OH276234   6.613   3.734   5.368  0.2468 -0.3386  0.3652
18248TIP3    H176235   6.623   3.678   5.291  1.7791  0.8112 -0.3196
18248TIP3    H276236   6.662   3.689   5.437 -0.0556 -0.7321  0.3283
18249TIP3   OH276237   6.131   4.771  11.628  0.4026 -0.4844  0.1672
18249TIP3    H176238   6.188   4.750  11.702  0.2200  0.8090  0.6988
18249TIP3    H276239   6.183   4.829  11.573  0.6215 -1.6171 -0.8778
18250TIP3   OH276240   1.469   3.252   5.681 -0.0991 -0.4048 -0.8179
18250TIP3    H176241   1.400   3.294   5.733  0.4607 -0.8681  0.3371
18250TIP3    H276242   1.502   3.183   5.738  0.5785 -0.8928 -1.7905
18251TIP3   OH276243   0.551   0.336   4.860 -0.4025 -0.9069 -0.1364
18251TIP3    H176244   0.614   0.276   4.900  0.2342 -0.2424 -0.1278
18251TIP3    H276245   0.604   0.395   4.807 -0.8871  0.4324  0.8293
18252TIP3   OH276246   4.631   2.238  16.941 -0.6326 -0.4376 -0.1929
18252TIP3    H176247   4.703   2.297  16.963  1.9279 -3.3466 -0.1771
18252TIP3    H276248   4.600   2.269  16.856  1.2947  0.3389 -0.6685
18253TIP3   OH276249   0.181   3.956  14.089  0.3706  0.1546 -0.4739
18253TIP3    H176250   0.201   4.039  14.046  1.9931  1.0016  1.7026
18253TIP3    H276251   0.219   3.890  14.032 -0.2262  0.9511 -1.8331
18254TIP3   OH276252   5.721   2.323  15.225 -0.1790  0.4022 -0.1022
18254TIP3    H176253   5.802   2.285  15.192 -0.2025  0.4911 -0.2627
18254TIP3    H276254   5.669   2.341  15.147 -1.3094 -1.7590  0.0754
18255TIP3   OH276255   4.237   3.305   1.472 -0.1607  0.1129  0.7460
18255TIP3    H176256   4.273   3.335   1.388 -1.4779  0.3754  0.2536
18255TIP3    H276257   4.287   3.226   1.492  1.5553  1.1415  0.7357
18256TIP3   OH276258   6.011   6.178  13.421  0.5196 -0.3728  0.4422
18256TIP3    H176259   6.060   6.100  13.447 -0.2284 -0.3702  1.9503
18256TIP3    H276260   6.077   6.236  13.382  1.6254 -0.5923  1.9305
18257TIP3   OH276261   1.619   4.232  14.936 -0.2222 -0.3378  0.0058
18257TIP3    H176262   1.617   4.147  14.981  1.1984  0.1729  1.1156
18257TIP3    H276263   1.711   4.257  14.937 -0.7138  1.5858  0.4352
18258TIP3   OH276264   4.399   3.278  13.844 -0.1195 -0.1348  0.8138
18258TIP3    H176265   4.391   3.361  13.891  1.3415  0.4678  0.0624
18258TIP3    H276266   4.492   3.257  13.848 -0.5984 -2.3463  1.9491
18259TIP3   OH276267   4.253   5.188   0.027  0.6564  0.3604 -0.1692
18259TIP3    H176268   4.246   5.131  -0.049  0.9242  0.4104 -0.2297
18259TIP3    H276269   4.183   5.252   0.015  0.7543  0.4201 -0.4153
18260TIP3   OH276270   0.059   1.727   0.163 -0.1806  0.4659  0.9839
18260TIP3    H176271   0.104   1.811   0.147  0.2468  0.0800  0.0577
18260TIP3    H276272   0.016   1.738   0.248  0.7986  1.2270  1.3959
18261TIP3   OH276273   6.056   3.374  15.174 -0.7252  0.1937 -0.0143
18261TIP3    H176274   5.966   3.393  15.146 -1.2683  1.7054  2.4868
18261TIP3    H276275   6.049   3.353  15.267  1.5608  0.8228  0.3698
18262TIP3   OH276276   4.227   1.978  16.923  0.3883 -0.3886 -0.0827
18262TIP3    H176277   4.240   2.005  16.833  2.5438 -1.1874 -0.0561
18262TIP3    H276278   4.314   1.979  16.962 -0.3716 -0.9142  1.7528
18263TIP3   OH276279   2.802   4.817  16.188 -0.2930 -0.3545  0.1179
18263TIP3    H176280   2.716   4.805  16.227 -0.6866  0.5954 -0.3997
18263TIP3    H276281   2.836   4.897  16.229  0.4994 -0.9222  0.5819
18264TIP3   OH276282   0.200   1.402   1.988 -0.4685 -0.7736 -0.2505
18264TIP3    H176283   0.291   1.376   1.976 -0.7465 -2.4876  0.9324
18264TIP3    H276284   0.149   1.324   1.966 -1.6268  0.0024 -0.4363
18265TIP3   OH276285   1.031   6.190  11.435  0.0745 -0.4530  0.1627
18265TIP3    H176286   1.005   6.110  11.388  1.0644 -1.2487  0.9184
18265TIP3    H276287   1.124   6.177  11.454  0.5925  1.4764 -0.8280
18266TIP3   OH276288   5.805   4.376   5.293 -0.1116  0.4151  0.2830
18266TIP3    H176289   5.894   4.363   5.261 -0.3151 -0.5475  0.0581
18266TIP3    H276290   5.800   4.469   5.314  0.3831  0.8611 -1.4323
18267TIP3   OH276291   4.424   3.482  15.509 -0.7226 -0.1477 -0.4140
18267TIP3    H176292   4.492   3.475  15.576  0.1298  0.8743 -1.1349
18267TIP3    H276293   4.468   3.454  15.428 -1.8919 -1.9085 -0.4925
18268TIP3   OH276294   2.920   5.648  15.842  0.0103 -0.5550  0.7663
18268TIP3    H176295   2.840   5.698  15.830 -0.5242 -2.0018 -2.7598
18268TIP3    H276296   2.893   5.571  15.893 -1.4795 -2.1235 -2.1657
18269TIP3   OH276297   1.396   0.448  12.669  0.2977 -0.0551  0.1407
18269TIP3    H176298   1.434   0.535  12.681 -2.2001  1.6326 -2.7527
18269TIP3    H276299   1.311   0.452  12.711 -0.4333 -0.5812 -1.2178
18270TIP3   OH276300   0.350   2.070   2.732 -0.2925  0.0155 -0.0396
18270TIP3    H176301   0.312   2.104   2.650 -0.1727  1.0049  0.3110
18270TIP3    H276302   0.274   2.057   2.789 -0.1699  1.5813  0.5094
18271TIP3   OH276303   1.917   5.903   3.182  0.6374 -0.0104  0.4569
18271TIP3    H176304   1.911   5.996   3.204  0.0658 -0.0560  0.4865
18271TIP3    H276305   2.011   5.884   3.185  0.6852  0.3191  1.4905
18272TIP3   OH276306   1.077   6.213  10.408  0.2876 -0.4392  0.2691
18272TIP3    H176307   1.014   6.279  10.381  1.5564  1.1716  1.0783
18272TIP3    H276308   1.163   6.253  10.392  1.0982 -1.6927  1.2501
18273TIP3   OH276309   5.028   2.411   5.714 -0.3350 -0.3041  0.3779
18273TIP3    H176310   5.122   2.428   5.711 -0.5417  0.8288 -0.1000
18273TIP3    H276311   5.021   2.321   5.747  0.9220 -0.5786 -0.0561
18274TIP3   OH276312   6.754   2.608  13.669 -0.2783  0.6048 -0.1914
18274TIP3    H176313   6.770   2.576  13.580  0.4716  0.9704 -0.1986
18274TIP3    H276314   6.697   2.542  13.709 -0.0052  0.0540 -0.6970
18275TIP3   OH276315   6.657   2.080  16.269  0.3288  0.9909  0.3011
18275TIP3    H176316   6.589   2.031  16.223  0.3960 -0.0280  1.2600
18275TIP3    H276317   6.609   2.146  16.318  0.0234  0.3184  0.9210
18276TIP3   OH276318   6.476   5.943   1.993  0.0574  0.0808  0.6695
18276TIP3    H176319   6.572   5.938   1.990  0.1665  0.3696  2.4058
18276TIP3    H276320   6.458   6.018   2.050 -1.2383  0.9664 -0.8365
18277TIP3   OH276321   1.562   5.343   3.981 -0.6059  0.0988 -0.0690
18277TIP3    H176322   1.487   5.289   4.007 -0.7303 -0.0498 -0.7078
18277TIP3    H276323   1.532   5.433   3.993 -1.2423  0.0636 -1.2092
18278TIP3   OH276324   5.722   4.880   1.674  0.0664  0.4183 -0.2525
18278TIP3    H176325   5.715   4.956   1.732 -0.7918 -0.7423  1.2238
18278TIP3    H276326   5.661   4.898   1.602 -1.5139  0.3347  1.0327
18279TIP3   OH276327   4.189   5.326  15.512 -0.9334  0.3620  0.1737
18279TIP3    H176328   4.162   5.349  15.601 -1.8475  1.9030 -0.4606
18279TIP3    H276329   4.266   5.381  15.496 -0.1748 -0.6299  0.3402
18280TIP3   OH276330   1.679   0.578   6.078 -0.2361  0.0816 -0.3010
18280TIP3    H176331   1.653   0.664   6.044 -0.0950  0.7570  1.2094
18280TIP3    H276332   1.598   0.540   6.111 -0.0178  0.4241  0.6640
18281TIP3   OH276333   5.210   1.175   2.324 -0.5229 -0.1712  0.3505
18281TIP3    H176334   5.225   1.150   2.233 -1.1899  0.4526  0.0571
18281TIP3    H276335   5.115   1.170   2.334 -0.5568  0.9892  0.6479
18282TIP3   OH276336   2.587   0.572   4.122 -0.1853  0.0539  0.1357
18282TIP3    H176337   2.665   0.553   4.071 -0.6429  0.3537 -0.7042
18282TIP3    H276338   2.521   0.511   4.089  0.3882 -2.1186  2.7399
18283TIP3   OH276339   3.741   5.991   3.350 -0.3110  0.2941 -0.0541
18283TIP3    H176340   3.664   6.006   3.406  0.6476 -1.1391  1.7653
18283TIP3    H276341   3.704   5.974   3.264 -2.0762 -0.5609  0.8051
18284TIP3   OH276342   5.001   2.389  15.309 -0.2939 -0.3851  0.3234
18284TIP3    H176343   4.985   2.470  15.358  1.4658 -0.0322  0.4000
18284TIP3    H276344   5.002   2.321  15.376 -0.8654 -0.3396  0.3810
18285TIP3   OH276345   2.475   2.313  14.827 -0.6025 -0.2604  0.0017
18285TIP3    H176346   2.459   2.395  14.874  1.6362 -0.2735  0.8827
18285TIP3    H276347   2.537   2.265  14.881 -0.5715 -1.8142 -1.3229
18286TIP3   OH276348   2.293   6.671   5.560 -0.2220  0.1951  0.0604
18286TIP3    H176349   2.276   6.582   5.589  1.6479  0.0226  0.7886
18286TIP3    H276350   2.337   6.661   5.475 -0.3733  0.4384 -0.0475
18287TIP3   OH276351   3.642   3.536   6.815 -0.6160  0.6477  0.1200
18287TIP3    H176352   3.627   3.497   6.729 -1.3549 -3.1610  1.7564
18287TIP3    H276353   3.736   3.531   6.828 -0.6508 -0.1633  0.0928
18288TIP3   OH276354   5.623   2.029  16.429 -0.4766 -0.0779  0.3036
18288TIP3    H176355   5.600   2.098  16.367 -2.7500 -0.8600  0.1852
18288TIP3    H276356   5.656   2.076  16.506 -2.2430  1.1861  0.3460
18289TIP3   OH276357   4.258   2.422  13.926  0.1010 -0.1351 -0.4802
18289TIP3    H176358   4.311   2.346  13.903  0.9260 -0.0537  0.9916
18289TIP3    H276359   4.321   2.494  13.929 -0.6360  0.5987 -1.6684
18290TIP3   OH276360   0.276   2.400   3.389 -0.5008 -0.5912  0.3799
18290TIP3    H176361   0.192   2.416   3.345  0.2286  1.5128 -0.3800
18290TIP3    H276362   0.263   2.431   3.479  0.3803  3.2929 -0.6340
18291TIP3   OH276363   3.589   4.385  14.431  0.1864  0.2812  0.0031
18291TIP3    H176364   3.648   4.333  14.376 -0.6484  0.4822 -1.1325
18291TIP3    H276365   3.623   4.375  14.520  1.7444  0.1506 -0.5744
18292TIP3   OH276366   0.897   5.375   4.520  0.7357  0.3451 -0.6627
18292TIP3    H176367   0.949   5.378   4.601 -1.8399 -0.8186  1.1881
18292TIP3    H276368   0.931   5.299   4.473  0.8140 -0.3217  0.4346
18293TIP3   OH276369   0.314   4.907  12.399 -0.2802  0.1001 -0.3557
18293TIP3    H176370   0.335   4.841  12.465 -1.7362  0.1948  0.2409
18293TIP3    H276371   0.380   4.975  12.411  0.2119 -0.4643  0.1666
18294TIP3   OH276372   0.588   4.964   5.831  0.0599 -0.5328 -0.3047
18294TIP3    H176373   0.522   4.965   5.901  1.5161  0.4915  1.1380
18294TIP3    H276374   0.631   5.049   5.838  2.0572 -1.4622 -0.6658
18295TIP3   OH276375   2.276   1.127   3.809  0.1063  0.0480 -0.3441
18295TIP3    H176376   2.222   1.050   3.826 -1.1539  1.2769  1.5287
18295TIP3    H276377   2.215   1.192   3.772  0.6615  0.8603  0.1338
18296TIP3   OH276378   0.375   1.304  15.564 -0.4087  0.5826  0.4297
18296TIP3    H176379   0.333   1.340  15.485 -0.8612 -2.7072 -0.9951
18296TIP3    H276380   0.462   1.279  15.535 -1.0888 -2.0600  0.4433
18297TIP3   OH276381   5.451   3.463   3.132 -0.3486 -0.2059 -0.9495
18297TIP3    H176382   5.510   3.525   3.089 -0.8137  0.2430 -0.9551
18297TIP3    H276383   5.500   3.382   3.137  0.6612  0.4360 -0.0344
18298TIP3   OH276384   5.003   4.839   3.625 -0.0221 -0.6642 -0.5615
18298TIP3    H176385   4.944   4.881   3.687 -0.4535  0.0957 -1.4479
18298TIP3    H276386   5.009   4.748   3.654 -0.3964 -0.3790  0.4354
18299TIP3   OH276387   4.103   0.212   2.130 -0.3044  0.4854  0.0135
18299TIP3    H176388   4.035   0.147   2.114  0.7122 -0.4496 -0.6864
18299TIP3    H276389   4.185   0.164   2.119  0.4785  1.7770 -0.0154
18300TIP3   OH276390   3.076   2.084   4.663  0.1205  0.9466 -0.4701
18300TIP3    H176391   3.039   2.149   4.602  1.4697  1.4358 -0.8029
18300TIP3    H276392   3.136   2.032   4.609  0.4346  0.6050  0.1949
18301TIP3   OH276393   1.541   3.916   5.248 -0.1313 -0.4304 -0.6260
18301TIP3    H176394   1.634   3.939   5.240 -0.0191 -0.5415  0.2837
18301TIP3    H276395   1.494   3.998   5.234  0.2327  0.2407  1.7614
18302TIP3   OH276396   5.287   1.887  16.956  0.1643  0.4060  0.2047
18302TIP3    H176397   5.302   1.793  16.966  1.9360  0.4615 -1.3764
18302TIP3    H276398   5.261   1.897  16.865  0.6204  1.5191  0.1845
18303TIP3   OH276399   1.141   0.885  11.400  0.2170  0.2475 -0.4280
18303TIP3    H176400   1.095   0.876  11.316 -0.2241  3.0826 -0.5884
18303TIP3    H276401   1.208   0.951  11.384 -0.4102  1.4784  1.6324
18304TIP3   OH276402   6.675   1.146  13.448  0.0201 -0.1222 -0.2763
18304TIP3    H176403   6.614   1.078  13.477 -2.0541  2.0799  0.9669
18304TIP3    H276404   6.750   1.098  13.413 -0.8317 -3.0212  1.4763
18305TIP3   OH276405   4.998   3.452   5.842  0.0553  0.4390  0.0539
18305TIP3    H176406   4.957   3.501   5.771  0.0911 -0.1510 -0.3806
18305TIP3    H276407   5.092   3.466   5.830  0.0765  0.0867 -0.2050
18306TIP3   OH276408   1.745   5.536   5.656  0.6559  0.6695  0.8151
18306TIP3    H176409   1.663   5.499   5.623  0.0443  2.5057  0.1483
18306TIP3    H276410   1.750   5.508   5.747  0.6467 -1.6467  0.1684
18307TIP3   OH276411   2.799   2.912  15.294 -0.1741  0.4307  0.4103
18307TIP3    H176412   2.768   2.893  15.206 -0.5598  0.2229  0.5881
18307TIP3    H276413   2.894   2.919  15.286 -0.3146  1.9736 -0.3192
18308TIP3   OH276414   4.359   1.349   4.595  0.7718 -0.0398 -0.0691
18308TIP3    H176415   4.336   1.351   4.688 -1.2478  2.0688 -0.5200
18308TIP3    H276416   4.453   1.333   4.594  0.9883  0.6556  2.3838
18309TIP3   OH276417   1.766   3.272   4.191  0.1993 -0.5448 -0.2898
18309TIP3    H176418   1.839   3.265   4.130 -0.1738  0.6905 -0.9245
18309TIP3    H276419   1.745   3.182   4.215  0.8165 -1.0130 -1.4419
18310TIP3   OH276420   0.108   3.452  16.338  0.2467  0.0211  0.6012
18310TIP3    H176421   0.203   3.444  16.334  0.2487  0.3179 -0.1105
18310TIP3    H276422   0.088   3.462  16.432  0.8898 -0.2996  0.7708
18311TIP3   OH276423   5.957   1.813  10.535 -0.0695 -0.4550  0.2212
18311TIP3    H176424   5.949   1.903  10.505  0.3492 -0.8195 -1.0598
18311TIP3    H276425   5.886   1.801  10.598  0.5648  1.0931  1.2957
18312TIP3   OH276426   5.640   1.281  12.946 -0.0835 -0.2372 -0.8900
18312TIP3    H176427   5.682   1.366  12.937 -0.3001  0.1273  1.1023
18312TIP3    H276428   5.713   1.220  12.962 -0.1483  0.2529  1.6654
18313TIP3   OH276429   2.505   4.342  11.009  0.0386  0.5794  0.5116
18313TIP3    H176430   2.483   4.417  10.954  0.6579  0.3480 -0.0616
18313TIP3    H276431   2.568   4.292  10.958 -2.0426 -1.5787 -0.1164
18314TIP3   OH276432   1.059   1.445  15.109 -0.1900 -0.4295 -0.0977
18314TIP3    H176433   1.042   1.488  15.025  1.1804 -1.3866 -0.9069
18314TIP3    H276434   1.153   1.456  15.122 -0.0345 -2.0419  0.3146
18315TIP3   OH276435   3.438   5.713   4.068 -0.6074  0.1511  0.0338
18315TIP3    H176436   3.396   5.796   4.091 -1.0714 -0.8368  3.1679
18315TIP3    H276437   3.516   5.709   4.123 -0.9338 -1.7572  0.4275
18316TIP3   OH276438   3.189   2.886  16.492  0.2277 -0.8762 -0.3315
18316TIP3    H176439   3.271   2.879  16.540  0.0034  2.0706  0.6217
18316TIP3    H276440   3.133   2.819  16.530  1.4805 -1.5249  0.4374
18317TIP3   OH276441   6.067   1.982  11.542  0.1891  0.2893  0.0745
18317TIP3    H176442   6.098   2.012  11.627  2.1935  0.6120 -0.7208
18317TIP3    H276443   6.146   1.958  11.494 -0.9369 -0.6050 -1.4489
18318TIP3   OH276444   4.845   3.794  11.530 -0.1628 -0.0840  0.3235
18318TIP3    H176445   4.796   3.782  11.449  0.4954 -2.0024  0.1863
18318TIP3    H276446   4.905   3.720  11.534  1.3241  1.1214  1.5137
18319TIP3   OH276447   1.665   1.400  16.172  0.1244 -0.2373 -0.4899
18319TIP3    H176448   1.709   1.426  16.091  0.1554 -0.3090 -0.4968
18319TIP3    H276449   1.615   1.321  16.148 -1.4991  0.8881 -0.9368
18320TIP3   OH276450   4.282   6.385  11.796  0.5510 -0.1854 -0.3398
18320TIP3    H176451   4.248   6.442  11.727  1.7047  0.6054 -0.2799
18320TIP3    H276452   4.361   6.348  11.759  0.2349 -1.1466 -0.0744
18321TIP3   OH276453   3.326   0.088   4.655 -0.0257 -0.1981  0.1064
18321TIP3    H176454   3.307   0.174   4.692 -0.6744 -0.1141 -0.3911
18321TIP3    H276455   3.249   0.068   4.601  1.3539  0.2427 -2.1767
18322TIP3   OH276456   5.011   6.556   0.405 -0.4267 -0.5343 -0.2895
18322TIP3    H176457   5.036   6.515   0.322 -2.5683 -0.4058 -1.0438
18322TIP3    H276458   4.958   6.490   0.449  0.5893 -0.5552  0.9718
18323TIP3   OH276459   5.551   4.235  16.143  0.1024  0.2085 -0.0422
18323TIP3    H176460   5.626   4.252  16.199 -0.3764  1.4156  0.2631
18323TIP3    H276461   5.477   4.276  16.189 -0.9972 -2.0239  0.2963
18324TIP3   OH276462   3.336   3.719   6.010 -0.1628 -0.3792  0.1772
18324TIP3    H176463   3.243   3.726   6.034  0.2520  1.8316  1.4758
18324TIP3    H276464   3.368   3.643   6.058 -1.4800 -1.8586 -1.1537
18325TIP3   OH276465   4.756   3.960  11.719  0.1299 -0.5310  0.1355
18325TIP3    H176466   4.741   4.039  11.667 -2.2236 -1.0114 -0.0311
18325TIP3    H276467   4.769   3.891  11.653 -0.1823 -0.6699  0.2151
18326TIP3   OH276468   6.266   4.862  11.993 -0.0992  0.2121  0.2564
18326TIP3    H176469   6.292   4.810  11.917  0.0495  2.4679 -1.3281
18326TIP3    H276470   6.345   4.911  12.017 -0.2323 -0.2289  1.7068
18327TIP3   OH276471   2.411   1.795  15.385 -0.8114 -0.2278  0.2885
18327TIP3    H176472   2.480   1.860  15.397 -1.0466  0.2158 -0.6593
18327TIP3    H276473   2.330   1.842  15.399 -0.9974 -0.2216 -0.7121
18328TIP3   OH276474   0.081   2.398  15.628 -0.0772  0.2250  0.6914
18328TIP3    H176475   0.171   2.376  15.601 -0.2029 -0.8381  1.0764
18328TIP3    H276476   0.029   2.385  15.549 -0.2149 -1.4231  0.9972
18329TIP3   OH276477   5.833   3.991  16.971 -0.5422 -0.3249  1.3080
18329TIP3    H176478   5.781   4.002  17.050 -2.7499 -0.4769 -0.0485
18329TIP3    H276479   5.785   4.039  16.904  1.3572 -0.0685  0.0671
18330TIP3   OH276480   5.079   2.225   3.529 -0.8161 -0.0027  0.0281
18330TIP3    H176481   5.029   2.293   3.575  1.0493  2.8747 -1.8085
18330TIP3    H276482   5.093   2.157   3.594 -0.8472  2.4634  2.8383
18331TIP3   OH276483   1.949   3.301   6.216  0.5072 -0.9161 -0.1045
18331TIP3    H176484   2.002   3.261   6.285  0.4220 -1.0987 -0.1449
18331TIP3    H276485   2.007   3.305   6.140  1.1469  0.7802  0.4172
18332TIP3   OH276486   5.223   1.932   4.101  0.2560  0.1143 -0.2361
18332TIP3    H176487   5.290   1.871   4.071  1.1754  1.2969 -0.6385
18332TIP3    H276488   5.265   2.017   4.099 -1.7458  1.1845 -2.2992
18333TIP3   OH276489   2.446   0.457  13.597 -0.5253 -0.5116 -0.6854
18333TIP3    H176490   2.393   0.474  13.674 -2.7383 -0.9414 -2.0109
18333TIP3    H276491   2.473   0.544  13.566 -0.7245 -0.2673 -0.1690
18334TIP3   OH276492   5.219   1.914   2.233  0.3502  0.1528  0.0125
18334TIP3    H176493   5.253   2.004   2.238  0.6150  0.0734 -0.3061
18334TIP3    H276494   5.130   1.924   2.199 -0.0133  0.3751  1.0066
18335TIP3   OH276495   3.567   1.959  13.511  0.1656  0.1824  0.2011
18335TIP3    H176496   3.659   1.933  13.509 -0.2778 -1.6488  1.0633
18335TIP3    H276497   3.534   1.939  13.423 -0.1821 -2.5618  0.8469
18336TIP3   OH276498   6.405   6.820  13.472  0.1648  0.3111  0.1173
18336TIP3    H176499   6.450   6.904  13.471  0.7460  0.0014 -0.1297
18336TIP3    H276500   6.454   6.767  13.535 -0.1920  0.1486  0.2628
18337TIP3   OH276501   6.291   1.534   2.258 -0.3353 -0.1836 -0.0597
18337TIP3    H176502   6.280   1.611   2.313 -1.1204 -0.2101 -0.1675
18337TIP3    H276503   6.205   1.518   2.221  0.3693  0.4306 -2.1040
18338TIP3   OH276504   6.794   1.294  15.353  0.2986  0.1868  0.3834
18338TIP3    H176505   6.823   1.377  15.314  1.3854 -0.0595  0.6342
18338TIP3    H276506   6.787   1.314  15.447 -1.0016  0.4181  0.2456
18339TIP3   OH276507   5.180   0.341  12.714 -0.0464 -0.0484  0.1551
18339TIP3    H176508   5.177   0.250  12.743  3.3298 -1.1377 -2.3126
18339TIP3    H276509   5.243   0.383  12.773  1.4544 -0.4470 -1.0935
18340TIP3   OH276510   2.774   0.241   5.508  0.0853  0.4450 -0.0921
18340TIP3    H176511   2.726   0.158   5.510 -0.6219  0.8546  0.9477
18340TIP3    H276512   2.866   0.216   5.520 -0.1223 -0.1888  0.2397
18341TIP3   OH276513   4.793   3.517   5.440  0.0421  0.0278 -0.0942
18341TIP3    H176514   4.802   3.593   5.382  2.5429  0.3581  0.6049
18341TIP3    H276515   4.775   3.555   5.526 -3.2599 -0.4484 -0.4530
18342TIP3   OH276516   2.687   6.081   0.472  0.4807  0.1314  1.1547
18342TIP3    H176517   2.639   6.164   0.462 -0.7483 -0.7002 -0.1511
18342TIP3    H276518   2.691   6.068   0.567  0.9851  1.8216  1.4138
18343TIP3   OH276519   1.256   5.295  11.171 -0.2235  0.5045  0.7236
18343TIP3    H176520   1.344   5.330  11.163  0.2338 -0.8800 -1.4565
18343TIP3    H276521   1.255   5.250  11.255  1.0634  0.7832  0.9078
18344TIP3   OH276522   6.694   4.968  14.251 -0.1173 -0.3905 -0.4045
18344TIP3    H176523   6.616   5.023  14.241 -0.3875 -0.6119  0.3710
18344TIP3    H276524   6.733   4.965  14.163  1.0603  2.6605 -0.0982
18345TIP3   OH276525   1.028   0.587  17.098  0.2403  0.4290 -0.0724
18345TIP3    H176526   1.104   0.644  17.105  0.0976  0.8080 -1.4618
18345TIP3    H276527   1.053   0.508  17.146  2.1817 -0.1551 -1.9063
18346TIP3   OH276528   0.145   6.369  17.273  0.0699 -0.3538 -0.2738
18346TIP3    H176529   0.110   6.458  17.278 -1.0612 -0.6957 -1.5519
18346TIP3    H276530   0.240   6.380  17.273  0.1006  0.6294  2.9972
18347TIP3   OH276531   4.262   2.979   1.458 -0.3165  0.3249  0.3472
18347TIP3    H176532   4.246   2.888   1.483 -0.3249 -0.2720 -1.6442
18347TIP3    H276533   4.177   3.010   1.425 -0.3871  1.1613  1.2763
18348TIP3   OH276534   0.591   2.112  13.728  0.0735 -0.1089  0.2062
18348TIP3    H176535   0.612   2.135  13.818 -0.9735  0.8601  0.2253
18348TIP3    H276536   0.676   2.110  13.684  0.5915 -0.5490  1.1932
18349TIP3   OH276537   2.241   0.397  11.411 -0.5111  0.4436  0.0512
18349TIP3    H176538   2.320   0.347  11.389 -0.1575  0.0680  2.0291
18349TIP3    H276539   2.216   0.440  11.329  1.5353  0.2798 -0.6983
18350TIP3   OH276540   0.140   5.104  12.334  0.0175  0.5439 -0.3023
18350TIP3    H176541   0.189   5.026  12.359  1.3997  1.8879  1.5052
18350TIP3    H276542   0.205   5.161  12.293 -0.7394  1.1477 -0.6919
18351TIP3   OH276543   5.273   5.341  15.437  0.1886  0.0048  0.3254
18351TIP3    H176544   5.218   5.410  15.398 -0.2060 -1.2348 -1.4006
18351TIP3    H276545   5.226   5.316  15.516 -0.7527  0.2858 -0.1234
18352TIP3   OH276546   0.355   3.773   0.131  0.4786 -0.5731 -0.3612
18352TIP3    H176547   0.412   3.745   0.059 -0.0043  0.2899 -1.1013
18352TIP3    H276548   0.267   3.774   0.093  0.1320 -0.7030  0.4222
18353TIP3   OH276549   1.197   4.458  13.050 -0.2093 -0.4798  0.1740
18353TIP3    H176550   1.287   4.427  13.038  0.2212  0.6794  0.2099
18353TIP3    H276551   1.143   4.380  13.043  1.0672 -1.9378  3.9758
18354TIP3   OH276552   5.141   4.618   4.110  0.8043  0.5955 -0.5959
18354TIP3    H176553   5.177   4.529   4.116 -1.2388 -0.2335  0.4105
18354TIP3    H276554   5.139   4.649   4.200 -1.9516  0.1316 -0.4066
18355TIP3   OH276555   0.373   1.345  11.309  0.6609  0.2800  0.0049
18355TIP3    H176556   0.429   1.337  11.232  1.5061 -2.4392  0.7951
18355TIP3    H276557   0.284   1.345  11.274  1.0563  0.0937 -1.0167
18356TIP3   OH276558   0.918   0.634   2.342  0.4040 -0.1562  0.0044
18356TIP3    H176559   0.838   0.613   2.294 -0.1363  0.2394  0.7091
18356TIP3    H276560   0.928   0.561   2.404  0.4555 -0.0794  0.0867
18357TIP3   OH276561   1.554   2.050  17.108 -0.1961  0.5645 -0.4490
18357TIP3    H176562   1.598   2.045  17.023 -0.3759 -0.8262 -0.4912
18357TIP3    H276563   1.483   1.986  17.102 -0.9186  1.2559  0.3635
18358TIP3   OH276564   5.087   5.962   0.071  0.1405  0.3053  0.4106
18358TIP3    H176565   5.063   6.038   0.125 -1.0868 -2.1343  3.6452
18358TIP3    H276566   5.178   5.944   0.094  0.2022  0.3569  0.2095
18359TIP3   OH276567   6.751   6.704  16.585  0.2681  0.2779  0.6130
18359TIP3    H176568   6.714   6.629  16.631 -0.3308  0.6813  0.8016
18359TIP3    H276569   6.834   6.672  16.548  0.2274 -0.3437  1.0605
18360TIP3   OH276570   1.163   0.194   2.685  0.3346  0.2120  0.2434
18360TIP3    H176571   1.251   0.211   2.651 -0.0812  1.5327 -0.2433
18360TIP3    H276572   1.144   0.270   2.740 -1.1842  0.8603 -1.0957
18361TIP3   OH276573   0.307   3.528  15.325  0.8960 -0.1474  0.2251
18361TIP3    H176574   0.303   3.476  15.244  1.1506  0.8124 -0.4199
18361TIP3    H276575   0.388   3.579  15.317 -0.7279  2.5129 -0.5461
18362TIP3   OH276576   5.675   2.916   6.523  0.2318 -0.7346  0.1547
18362TIP3    H176577   5.735   2.984   6.492 -1.9488  0.0721 -2.6980
18362TIP3    H276578   5.619   2.960   6.586  0.8969 -0.8208  0.8313
18363TIP3   OH276579   5.262   0.570  11.930  0.2087  0.0408  0.1078
18363TIP3    H176580   5.217   0.568  12.014  0.9399  0.8809  0.5303
18363TIP3    H276581   5.268   0.663  11.908  1.3971 -0.0764 -0.1241
18364TIP3   OH276582   5.571   1.205  16.886 -0.0028 -0.1669 -0.1874
18364TIP3    H176583   5.570   1.148  16.808  0.7370  1.0317 -1.1136
18364TIP3    H276584   5.628   1.278  16.861 -0.4137  0.6563  1.1981
18365TIP3   OH276585   4.437   3.184  13.370 -0.0915  0.1657 -0.2448
18365TIP3    H176586   4.422   3.100  13.326  0.0093  1.0408 -2.0434
18365TIP3    H276587   4.391   3.176  13.454 -0.9063 -1.3366 -0.8005
18366TIP3   OH276588   0.012   3.097   3.017  0.3301 -0.6298  0.0396
18366TIP3    H176589  -0.002   3.011   2.978  2.7763 -0.1187 -2.2911
18366TIP3    H276590   0.075   3.081   3.087 -1.6956 -1.1051  1.8517
18367TIP3   OH276591   4.223   5.771   2.352 -0.3683  0.2790 -0.2165
18367TIP3    H176592   4.244   5.762   2.444 -0.1452  0.2473 -0.2718
18367TIP3    H276593   4.201   5.683   2.323 -1.0687  0.3888 -0.0388
18368TIP3   OH276594   4.324   3.086   4.578 -0.4132  0.0583  0.1834
18368TIP3    H176595   4.315   3.144   4.654 -1.1595  0.0294  0.1182
18368TIP3    H276596   4.311   2.998   4.613 -1.2706  0.0816 -0.0607
18369TIP3   OH276597   5.689   3.414  13.415  0.3061 -0.1872 -0.2308
18369TIP3    H176598   5.700   3.472  13.339  0.2223  0.0028 -0.0976
18369TIP3    H276599   5.779   3.390  13.439  0.4396  1.1047  0.6533
18370TIP3   OH276600   2.845   0.780   5.064 -0.4233  0.1503 -0.2174
18370TIP3    H176601   2.800   0.699   5.039 -0.9297 -0.0339  1.1882
18370TIP3    H276602   2.823   0.792   5.156  1.0231  1.0026  0.0448
18371TIP3   OH276603   3.078   5.340   2.077 -0.6892 -0.4080 -0.4366
18371TIP3    H176604   3.016   5.365   2.008 -1.1813 -0.7282 -0.1213
18371TIP3    H276605   3.101   5.249   2.058  1.4051  0.3481 -1.8076
18372TIP3   OH276606   5.165   0.774   2.721  0.0679  0.4345  0.1354
18372TIP3    H176607   5.207   0.748   2.803  0.8742  0.1849 -0.3438
18372TIP3    H276608   5.218   0.847   2.689 -0.3934  0.6988 -0.0415
18373TIP3   OH276609   2.674   6.720  13.899  0.2636 -0.1088 -0.2466
18373TIP3    H176610   2.647   6.628  13.894 -0.5519  0.1469 -0.6433
18373TIP3    H276611   2.690   6.744  13.808 -0.8077  0.5136 -0.2829
18374TIP3   OH276612   0.502   2.309  12.363  0.0293 -0.2429  0.4611
18374TIP3    H176613   0.507   2.225  12.319 -0.3808  0.0044 -0.0581
18374TIP3    H276614   0.408   2.325  12.376  0.1136  0.0149  0.7870
18375TIP3   OH276615   4.702   4.439   0.720  0.1397 -0.1801 -0.0624
18375TIP3    H176616   4.764   4.502   0.686  0.1458 -0.3572 -0.3888
18375TIP3    H276617   4.738   4.412   0.805 -0.8732  1.7315  1.0302
18376TIP3   OH276618   4.085   0.467   0.982  0.4802 -0.0028  0.3078
18376TIP3    H176619   3.996   0.439   1.004  1.1746 -2.2076  0.5539
18376TIP3    H276620   4.073   0.544   0.927 -1.5407  0.3369  1.1426
18377TIP3   OH276621   2.129   4.429   4.826 -0.2330 -0.2136  0.9501
18377TIP3    H176622   2.184   4.497   4.786 -0.6369 -1.1287 -1.3688
18377TIP3    H276623   2.042   4.446   4.791 -0.2738 -2.0663  0.0410
18378TIP3   OH276624   4.476   2.685   5.547  0.6957  0.6480  0.3263
18378TIP3    H176625   4.411   2.642   5.603  0.6236  2.0656  1.3653
18378TIP3    H276626   4.559   2.671   5.592  1.0809 -0.6561 -0.7059
18379TIP3   OH276627   0.290   3.532  13.585  0.4116  0.4040  0.5572
18379TIP3    H176628   0.376   3.524  13.542  1.0133 -1.2144  1.9104
18379TIP3    H276629   0.273   3.444  13.619 -2.4594  0.3307 -0.8250
18380TIP3   OH276630   6.740   2.500   2.394  0.1137 -0.5021  0.5434
18380TIP3    H176631   6.662   2.477   2.343 -1.4015  2.5322  1.2144
18380TIP3    H276632   6.721   2.468   2.483 -0.6176  0.5238  0.7860
18381TIP3   OH276633   2.700   5.643  13.792 -0.7550 -0.0495 -0.3967
18381TIP3    H176634   2.647   5.613  13.866 -1.1016 -0.1672 -0.6838
18381TIP3    H276635   2.635   5.672  13.727 -0.4425  0.7097 -0.3820
18382TIP3   OH276636   2.212   2.227  13.829 -0.1825  0.0823 -0.6062
18382TIP3    H176637   2.152   2.172  13.778 -0.7974 -2.0470  2.1784
18382TIP3    H276638   2.299   2.192  13.811 -0.2164  0.3680 -1.3534
18383TIP3   OH276639   6.212   6.314  13.270 -0.9111 -0.0966 -0.3437
18383TIP3    H176640   6.195   6.261  13.192 -1.1028 -0.7615  0.1498
18383TIP3    H276641   6.300   6.288  13.298  0.4815  2.3163 -2.0697
18384TIP3   OH276642   5.586   1.198   1.421 -0.5325  0.3006  0.3359
18384TIP3    H176643   5.525   1.236   1.357 -0.4805 -0.2128 -0.0195
18384TIP3    H276644   5.667   1.185   1.372 -1.1175 -2.1254 -0.1301
18385TIP3   OH276645   5.202   1.050  17.180 -0.2763  0.1457 -0.3169
18385TIP3    H176646   5.152   1.084  17.105 -0.8312  0.7803  0.3221
18385TIP3    H276647   5.245   1.127  17.217  1.3850 -0.4351 -0.9891
18386TIP3   OH276648   1.082   3.584   1.473 -0.1192  0.0516  0.3496
18386TIP3    H176649   1.146   3.650   1.449  0.2469 -0.2602  0.4673
18386TIP3    H276650   1.029   3.625   1.542  1.1330 -0.3376  1.5905
18387TIP3   OH276651   4.774   2.323  16.568  0.3706 -0.1008 -0.0821
18387TIP3    H176652   4.823   2.329  16.650 -1.7161  2.9499  1.1379
18387TIP3    H276653   4.698   2.269  16.590 -0.7026  1.5265  0.3785
18388TIP3   OH276654   3.740   0.295   0.486  0.5122 -0.2429 -0.3982
18388TIP3    H176655   3.728   0.208   0.524 -0.5029  0.3141  0.6148
18388TIP3    H276656   3.768   0.279   0.396 -0.3926 -1.6108 -0.4522
18389TIP3   OH276657   6.264   1.743  10.424  0.1442 -0.2047 -0.1701
18389TIP3    H176658   6.242   1.803  10.496 -0.6209 -0.3508 -0.2840
18389TIP3    H276659   6.353   1.714  10.446  0.1570  0.2202  0.3974
18390TIP3   OH276660   1.472   3.563   0.899 -0.2220 -0.0503 -0.1049
18390TIP3    H176661   1.547   3.615   0.928  0.6714 -0.6055 -1.3405
18390TIP3    H276662   1.427   3.538   0.980  0.6435  0.6986  0.6277
18391TIP3   OH276663   5.313   0.021   1.040  0.2867 -0.1451  0.2883
18391TIP3    H176664   5.248   0.019   0.971  1.0363 -0.7570 -0.4216
18391TIP3    H276665   5.320   0.113   1.065 -0.7705 -0.0605  0.3207
18392TIP3   OH276666   4.671   0.041   5.129  0.6752 -0.0779 -0.2057
18392TIP3    H176667   4.694   0.062   5.219 -0.7056  0.4951  0.0366
18392TIP3    H276668   4.733   0.090   5.075  0.0335  1.4371  0.4102
18393TIP3   OH276669   3.358   1.930   4.960  0.4680  0.3371 -0.0285
18393TIP3    H176670   3.395   1.946   4.873  0.2464  2.5163  0.2208
18393TIP3    H276671   3.266   1.954   4.952  0.1906 -0.4753  0.5634
18394TIP3   OH276672   6.564   6.466  11.643 -0.0997  0.5626  0.2449
18394TIP3    H176673   6.546   6.375  11.664 -0.0246  0.8834  1.8705
18394TIP3    H276674   6.656   6.469  11.619  0.4235  0.4708  2.0963
18395TIP3   OH276675   2.107   5.834  12.026  0.0209  0.1049  0.2581
18395TIP3    H176676   2.032   5.793  12.068 -0.3394 -2.0391 -2.2237
18395TIP3    H276677   2.070   5.899  11.967  0.3617  1.3182  1.3446
18396TIP3   OH276678   3.747   5.570  17.080 -0.6733  0.2120  0.4343
18396TIP3    H176679   3.762   5.538  17.169  1.4535  1.4355  0.6019
18396TIP3    H276680   3.775   5.499  17.023 -3.9407 -1.3741  0.6347
18397TIP3   OH276681   0.946   3.726  15.746  0.0088 -0.0131 -0.1486
18397TIP3    H176682   0.947   3.818  15.775  0.3123  0.2087 -0.8529
18397TIP3    H276683   0.961   3.676  15.826  0.9613  0.6012  0.0739
18398TIP3   OH276684   2.382   0.446   2.446 -0.4832  0.1944 -0.2852
18398TIP3    H176685   2.407   0.402   2.365  0.3228 -0.2779  0.2041
18398TIP3    H276686   2.439   0.408   2.512 -1.4790  0.2181  0.6011
18399TIP3   OH276687   5.104   1.604   2.390 -0.6200  0.0353  0.6496
18399TIP3    H176688   5.188   1.573   2.356 -1.1097 -0.3581 -0.2452
18399TIP3    H276689   5.124   1.686   2.434 -0.1859  1.4631 -2.0253
18400TIP3   OH276690   5.747   1.136   1.214  0.1923 -0.6136 -0.1011
18400TIP3    H176691   5.737   1.144   1.120  2.0851 -1.4983 -0.4146
18400TIP3    H276692   5.841   1.144   1.230 -0.0079 -1.1746  1.6187
18401TIP3   OH276693   1.310   4.856  13.338  0.4206 -0.1134 -0.1123
18401TIP3    H176694   1.323   4.765  13.309 -0.4106  0.3052 -1.9223
18401TIP3    H276695   1.326   4.853  13.432  1.8456 -1.8475 -0.3565
18402TIP3   OH276696   1.105   2.193   3.256 -0.2060 -0.0283  0.0495
18402TIP3    H176697   1.154   2.196   3.338 -1.5188 -1.7892  0.9723
18402TIP3    H276698   1.155   2.134   3.200  1.1206  1.7878 -0.8074
18403TIP3   OH276699   6.798   2.878  14.023 -0.4083  0.8219  0.2160
18403TIP3    H176700   6.872   2.824  13.992 -0.1552  0.8629  0.7289
18403TIP3    H276701   6.721   2.822  14.011 -0.2910  0.7699 -0.3065
18404TIP3   OH276702   4.312   3.242  12.942 -0.3107  0.3024  0.3042
18404TIP3    H176703   4.255   3.231  12.866  0.0926  0.2438  0.0136
18404TIP3    H276704   4.299   3.161  12.992 -2.0444  1.1259  1.2921
18405TIP3   OH276705   6.149   6.131   4.646 -0.6850  0.6335  0.2604
18405TIP3    H176706   6.202   6.156   4.721 -2.9232  0.8222  1.8677
18405TIP3    H276707   6.091   6.206   4.632 -0.8753  0.2488 -1.1466
18406TIP3   OH276708   1.897   6.014  13.792 -0.2406  0.2009 -0.3048
18406TIP3    H176709   1.860   6.091  13.835 -1.4935 -1.2992  1.4202
18406TIP3    H276710   1.853   5.939  13.833  3.2449 -1.6457  0.4601
18407TIP3   OH276711   1.332   5.012   1.808  0.1629 -0.0559  0.4119
18407TIP3    H176712   1.404   4.955   1.833  0.7329 -0.1318 -1.2961
18407TIP3    H276713   1.302   4.978   1.724  0.3098  1.9376 -0.5121
18408TIP3   OH276714   5.360   5.556   3.593 -0.1049  0.2126 -0.1168
18408TIP3    H176715   5.386   5.644   3.620  0.4999  0.7908 -2.3891
18408TIP3    H276716   5.298   5.570   3.521  1.2879 -1.1740 -1.6628
18409TIP3   OH276717   3.359   2.088  16.045 -0.2987 -0.0744 -0.3723
18409TIP3    H176718   3.417   2.071  16.119 -0.5451 -0.8132 -0.3462
18409TIP3    H276719   3.357   2.184  16.039  0.9992 -0.0259 -0.4456
18410TIP3   OH276720   2.737   5.957   1.398  0.3171 -0.0144  0.1983
18410TIP3    H176721   2.765   5.939   1.488  0.1717 -0.4401  0.1622
18410TIP3    H276722   2.813   5.934   1.344  0.1271 -0.5468  0.1511
18411TIP3   OH276723   5.142   0.702   1.118 -0.3618  0.1827  0.4851
18411TIP3    H176724   5.173   0.746   1.197 -0.3568  1.2941 -0.1169
18411TIP3    H276725   5.106   0.772   1.063  0.1403 -0.4820 -0.7449
18412TIP3   OH276726   1.007   4.178   4.914 -0.1296 -0.2906 -0.4153
18412TIP3    H176727   1.063   4.136   4.848 -1.3517 -1.7127 -0.6113
18412TIP3    H276728   1.039   4.144   4.997  0.2502  0.0624 -0.4192
18413TIP3   OH276729   1.865   1.682  17.060  0.2766 -0.2759  0.1359
18413TIP3    H176730   1.893   1.762  17.017  0.6233  0.9098  2.4008
18413TIP3    H276731   1.945   1.629  17.066  0.3645 -0.1704 -0.0972
18414TIP3   OH276732   6.419   6.245   3.583  0.9094  0.1296  0.2833
18414TIP3    H176733   6.357   6.176   3.558  0.6013  0.6304 -0.3912
18414TIP3    H276734   6.505   6.211   3.559  1.0599 -1.1053  2.4150
18415TIP3   OH276735   3.164   5.803   3.781 -0.1535 -0.6532  0.4347
18415TIP3    H176736   3.142   5.713   3.756  0.7781 -0.9312  0.5799
18415TIP3    H276737   3.244   5.822   3.732 -0.3599  0.1139  0.3813
18416TIP3   OH276738   0.342   0.951   3.121  0.0911  0.1548 -0.6466
18416TIP3    H176739   0.420   0.995   3.087 -0.3888  0.7116 -1.0518
18416TIP3    H276740   0.277   1.021   3.131  0.7845  0.4136  3.3754
18417TIP3   OH276741   0.175   5.234  11.681 -0.4470  0.5260 -0.2569
18417TIP3    H176742   0.109   5.210  11.616 -1.5072  1.3702  0.4746
18417TIP3    H276743   0.219   5.310  11.643  1.0989 -0.8204 -1.3600
18418TIP3   OH276744   4.468   5.907   4.529 -0.7847 -0.1052 -0.3311
18418TIP3    H176745   4.447   5.819   4.499 -2.3909  0.6965 -1.7662
18418TIP3    H276746   4.528   5.941   4.462 -2.3726  0.8079 -1.3607
18419TIP3   OH276747   6.570   3.359  13.375  0.0308  0.0587 -0.2172
18419TIP3    H176748   6.537   3.387  13.460  0.2526  1.6313 -0.6194
18419TIP3    H276749   6.651   3.408  13.363 -0.2062  0.1747 -1.5042
18420TIP3   OH276750   5.788   6.183   2.883 -0.5585 -0.2196 -0.5731
18420TIP3    H176751   5.834   6.210   2.803 -0.4226 -0.5292 -0.6030
18420TIP3    H276752   5.700   6.217   2.872 -1.1075 -1.8800 -1.7506
18421TIP3   OH276753   2.411   4.340  16.419 -0.5276 -0.2963  0.0729
18421TIP3    H176754   2.484   4.279  16.411 -0.9698 -0.9470  0.8627
18421TIP3    H276755   2.390   4.341  16.513 -0.1887  1.4910  0.1762
18422TIP3   OH276756   3.481   0.112  15.739  0.3372  0.4406  0.6493
18422TIP3    H176757   3.481   0.187  15.799  0.4174 -0.8606  2.3540
18422TIP3    H276758   3.410   0.057  15.770  0.4621 -0.3403 -0.4005
18423TIP3   OH276759   2.844   5.549  15.560  0.1177  0.1578 -0.2517
18423TIP3    H176760   2.769   5.595  15.597  1.3918  0.7426  1.8159
18423TIP3    H276761   2.857   5.588  15.474 -0.4238  1.8667  0.4034
18424TIP3   OH276762   0.112   0.321  11.846  0.4665  0.7079  0.2599
18424TIP3    H176763   0.048   0.393  11.840 -1.2305 -0.6009  1.5589
18424TIP3    H276764   0.171   0.348  11.916 -0.1932  0.8440  0.7785
18425TIP3   OH276765   1.529   6.324  15.722  0.4299  0.1087 -0.3687
18425TIP3    H176766   1.503   6.354  15.635  0.1551  0.2339 -0.2444
18425TIP3    H276767   1.519   6.401  15.778  1.9055  0.4018 -0.4728
18426TIP3   OH276768   1.780   3.731  11.797  0.1810  0.2845  0.8181
18426TIP3    H176769   1.774   3.788  11.720  0.5897 -1.3546 -0.4819
18426TIP3    H276770   1.874   3.721  11.812  0.1457 -1.0017  0.2717
18427TIP3   OH276771   0.731   0.570  14.368  0.1530 -0.2418  0.2318
18427TIP3    H176772   0.709   0.613  14.285 -1.5657  0.8789  1.2109
18427TIP3    H276773   0.780   0.637  14.417 -0.5030 -0.2132  0.8556
18428TIP3   OH276774   6.514   0.987  11.867  0.2996 -0.7101  0.1847
18428TIP3    H176775   6.481   1.076  11.881 -0.6433 -1.0113 -0.0375
18428TIP3    H276776   6.558   0.991  11.783  0.3778 -0.4190  0.2381
18429TIP3   OH276777   3.028   6.112   0.466  0.0788  0.5434 -0.7263
18429TIP3    H176778   2.981   6.192   0.446 -0.2522  0.5433 -0.0027
18429TIP3    H276779   2.998   6.088   0.554  0.7912  0.0806 -0.5959
18430TIP3   OH276780   5.981   4.287  10.312  0.8102  0.2203 -0.1036
18430TIP3    H176781   5.979   4.365  10.367 -0.5184  0.1433 -0.0072
18430TIP3    H276782   5.990   4.214  10.373 -0.0051  0.1752 -0.0360
18431TIP3   OH276783   4.411   6.382  11.192 -1.2524  0.1976 -0.5996
18431TIP3    H176784   4.444   6.387  11.282  1.1561  0.1240 -1.4148
18431TIP3    H276785   4.334   6.439  11.192 -1.4339  0.0379  1.5342
18432TIP3   OH276786   5.366   5.487   3.155 -0.8975 -0.6800 -0.0851
18432TIP3    H176787   5.449   5.532   3.141 -1.7246  0.3729 -1.8743
18432TIP3    H276788   5.391   5.396   3.171  0.5786 -0.4772 -1.0492
18433TIP3   OH276789   0.352   2.302  15.536  0.1495  0.8152  0.6348
18433TIP3    H176790   0.409   2.247  15.483  0.1393  0.9454  0.4895
18433TIP3    H276791   0.394   2.388  15.537 -0.0500  0.9158  0.5139
18434TIP3   OH276792   5.573   5.148  14.678 -0.2694 -0.3830 -0.2087
18434TIP3    H176793   5.566   5.155  14.773  2.5490  0.3216  0.0487
18434TIP3    H276794   5.561   5.237  14.645  0.1915 -0.3633 -0.3431
18435TIP3   OH276795   2.292   5.744   0.112  0.4891 -0.1990 -0.5924
18435TIP3    H176796   2.348   5.729   0.035  0.5641 -2.8639 -0.0831
18435TIP3    H276797   2.353   5.748   0.186  0.2190  0.0244 -0.3776
18436TIP3   OH276798   3.261   3.298   5.421  0.1923 -0.3982  0.0625
18436TIP3    H176799   3.269   3.330   5.511  1.6418  0.8647 -0.4910
18436TIP3    H276800   3.291   3.370   5.367 -3.4815  0.0713 -1.6815
18437TIP3   OH276801   4.803   0.443   2.809  0.0172 -0.6450  0.1375
18437TIP3    H176802   4.822   0.536   2.815  0.1941 -0.7338  1.2133
18437TIP3    H276803   4.887   0.403   2.785  0.7632 -0.8074  2.6829
18438TIP3   OH276804   4.389   1.422   1.977  0.8540  0.2841 -0.5059
18438TIP3    H176805   4.383   1.415   2.073  1.5763 -3.0077 -0.5605
18438TIP3    H276806   4.451   1.493   1.961  1.6044  0.1476  1.5143
18439TIP3   OH276807   6.011   0.821   4.457 -0.5753  0.2458 -0.4769
18439TIP3    H176808   5.934   0.789   4.503 -1.6091  2.4483 -0.5321
18439TIP3    H276809   6.085   0.794   4.512 -1.6901  1.9716  2.0661
18440TIP3   OH276810   0.406   1.439   5.820  0.0053 -0.4951 -0.1081
18440TIP3    H176811   0.444   1.518   5.859  2.6401 -0.2479 -2.8515
18440TIP3    H276812   0.462   1.368   5.853 -0.6253 -0.8737  0.1556
18441TIP3   OH276813   1.197   3.144   0.929  0.1730  0.0103 -0.4219
18441TIP3    H176814   1.282   3.106   0.904 -0.7430 -0.6775 -2.7971
18441TIP3    H276815   1.135   3.107   0.865 -1.9491  0.4202  1.2875
18442TIP3   OH276816   5.269   3.422   0.947  0.2770  0.3680 -0.1384
18442TIP3    H176817   5.206   3.362   0.907  1.0787 -0.2903 -0.4524
18442TIP3    H276818   5.256   3.412   1.041  0.0107  0.1168 -0.2009
18443TIP3   OH276819   4.658   1.316   3.178  0.9059  0.2662 -0.1218
18443TIP3    H176820   4.679   1.229   3.145 -1.4125  0.3631 -2.1621
18443TIP3    H276821   4.588   1.301   3.242 -1.4596  0.6519 -2.4180
18444TIP3   OH276822   6.111   2.084  15.368  0.3529  0.0853  0.3568
18444TIP3    H176823   6.154   2.150  15.424 -1.9397 -0.4460  2.9745
18444TIP3    H276824   6.135   2.000  15.408  1.4836 -0.6034 -1.6445
18445TIP3   OH276825   0.201   4.397  10.862 -0.1499 -0.1524  0.0055
18445TIP3    H176826   0.296   4.382  10.864 -0.2093 -0.5205  0.2319
18445TIP3    H276827   0.172   4.352  10.783  0.1457  1.7499 -1.2410
18446TIP3   OH276828   0.751   6.246   4.259 -0.1504  0.3802 -0.0833
18446TIP3    H176829   0.825   6.193   4.231  0.1601  1.0321 -0.5253
18446TIP3    H276830   0.772   6.271   4.349 -0.4114 -0.4357  0.2069
18447TIP3   OH276831   4.961   5.549   5.779 -0.3703 -0.5201  0.0298
18447TIP3    H176832   4.866   5.547   5.770 -0.2724  0.7031 -1.6868
18447TIP3    H276833   4.976   5.546   5.874 -2.1658  0.4308  0.3875
18448TIP3   OH276834   3.569   1.408   1.116  1.0040 -0.1875 -0.2001
18448TIP3    H176835   3.559   1.436   1.207  0.7972  0.2970 -0.3678
18448TIP3    H276836   3.663   1.394   1.106  1.0862  0.2474 -0.0522
18449TIP3   OH276837   5.212   1.515  11.343  0.1105 -0.7394 -0.1064
18449TIP3    H176838   5.155   1.482  11.273 -2.9461  0.1530  1.7728
18449TIP3    H276839   5.170   1.486  11.424  1.7075  0.9843  1.4352
18450TIP3   OH276840   2.521   2.564  11.411 -0.3973  0.1814  0.2196
18450TIP3    H176841   2.566   2.482  11.432  1.2793  0.6867 -1.1271
18450TIP3    H276842   2.557   2.628  11.472  1.2352  0.7066 -1.2096
18451TIP3   OH276843   3.760   5.033   2.529  0.2829 -0.1286 -0.0373
18451TIP3    H176844   3.742   5.083   2.450 -0.5699  0.3066  0.4157
18451TIP3    H276845   3.852   5.051   2.549  0.5121 -0.2739 -0.9384
18452TIP3   OH276846   3.744   1.881  15.882 -0.4026 -0.4412  0.3306
18452TIP3    H176847   3.682   1.936  15.834  0.7679 -0.0421 -0.7866
18452TIP3    H276848   3.730   1.903  15.974 -0.7881  0.8462 -0.0119
18453TIP3   OH276849   4.477   0.603   6.039 -0.1768  0.0531 -0.0607
18453TIP3    H176850   4.543   0.585   5.973 -2.1187 -1.3848 -1.7277
18453TIP3    H276851   4.515   0.570   6.121  1.8042  0.8343 -0.6110
18454TIP3   OH276852   6.151   6.413  13.505  0.0568 -0.1618  0.0627
18454TIP3    H176853   6.216   6.472  13.541 -0.3907  0.3697  0.0120
18454TIP3    H276854   6.176   6.401  13.414 -1.3854  2.1599 -0.7072
18455TIP3   OH276855   5.640   6.289   0.823 -0.5457 -0.0139  0.3466
18455TIP3    H176856   5.639   6.385   0.830 -0.8670 -0.0205  0.4048
18455TIP3    H276857   5.586   6.259   0.896 -0.0591 -0.2586  0.6073
18456TIP3   OH276858   5.004   2.779   6.400 -0.9094 -0.3612 -0.1368
18456TIP3    H176859   5.004   2.696   6.351 -2.2285 -1.1403  1.0793
18456TIP3    H276860   4.923   2.775   6.451 -0.3732  1.1503  0.8640
18457TIP3   OH276861   1.118   3.599   0.862  0.4605  0.0096 -0.2611
18457TIP3    H176862   1.152   3.553   0.785 -1.9539  0.0132 -1.4196
18457TIP3    H276863   1.081   3.530   0.917  1.3313  0.1068  0.4668
18458TIP3   OH276864   0.012   4.199  10.750  0.7857 -0.4474 -0.5062
18458TIP3    H176865   0.024   4.126  10.810 -1.0569 -0.7606 -0.4630
18458TIP3    H276866   0.056   4.172  10.670  3.4458  0.0493  0.6705
18459TIP3   OH276867   3.010   4.852   2.366  0.0264 -0.0418 -0.0285
18459TIP3    H176868   3.023   4.827   2.458  1.1334 -1.0108 -0.4209
18459TIP3    H276869   2.988   4.945   2.370 -0.7545 -0.2465  1.2665
18460TIP3   OH276870   1.266   1.112   4.662 -0.1546  0.2392  0.2178
18460TIP3    H176871   1.188   1.072   4.625  1.7406 -2.2696 -1.3854
18460TIP3    H276872   1.298   1.170   4.592  0.3694 -0.1268  0.1494
18461TIP3   OH276873   5.427   1.622  12.108 -0.0555 -0.3102  0.0358
18461TIP3    H176874   5.470   1.697  12.149 -0.7078  1.9028 -2.9634
18461TIP3    H276875   5.355   1.600  12.167 -0.0415  1.6682  0.8681
18462TIP3   OH276876   6.226   4.955   5.174 -0.1334 -0.7137  0.1468
18462TIP3    H176877   6.226   5.022   5.243  0.7755 -1.1871  0.6396
18462TIP3    H276878   6.147   4.904   5.189 -1.4943  0.9763 -0.9963
18463TIP3   OH276879   3.240   3.662  15.063 -0.3036 -0.2253  0.6705
18463TIP3    H176880   3.222   3.754  15.048  0.1920 -0.1355  0.6197
18463TIP3    H276881   3.208   3.618  14.984 -0.1873 -0.0583  0.5311
18464TIP3   OH276882   6.790   2.198   5.632 -0.4482 -0.3608  0.3906
18464TIP3    H176883   6.727   2.189   5.560  0.3096 -2.7830 -0.0554
18464TIP3    H276884   6.871   2.160   5.598  1.2781  2.4243  1.0348
18465TIP3   OH276885   0.911   0.354   6.000  0.5256 -0.8452 -0.0518
18465TIP3    H176886   0.933   0.407   6.077  0.4691 -0.6750 -0.1519
18465TIP3    H276887   0.973   0.381   5.933  0.7141 -1.1490 -0.0017
18466TIP3   OH276888   1.007   3.291   0.398 -0.3049  0.5795 -0.0657
18466TIP3    H176889   1.028   3.316   0.487 -1.5581 -1.5985  0.9425
18466TIP3    H276890   1.090   3.263   0.360  0.0967  0.6466  0.7473
18467TIP3   OH276891   6.504   1.072  15.759  0.0553 -0.1559 -0.7342
18467TIP3    H176892   6.540   1.088  15.846 -0.5317 -0.3862 -0.4445
18467TIP3    H276893   6.492   1.159  15.721  0.3845 -0.0591 -0.6239
18468TIP3   OH276894   0.221   5.273  15.569  0.4688 -0.2011  0.0199
18468TIP3    H176895   0.171   5.202  15.529  1.4706 -1.5249  1.0318
18468TIP3    H276896   0.174   5.294  15.650  0.3598  0.0554 -0.1092
18469TIP3   OH276897   0.223   3.927  11.650 -0.1920  0.0341 -0.1965
18469TIP3    H176898   0.165   3.865  11.692 -1.2790 -0.3455 -2.1373
18469TIP3    H276899   0.267   3.877  11.581 -0.3891  1.1595 -1.1827
18470TIP3   OH276900   5.160   6.241   2.700  0.2679 -0.1187 -0.5056
18470TIP3    H176901   5.120   6.229   2.614  0.6291 -1.7369 -0.4826
18470TIP3    H276902   5.200   6.156   2.720 -0.2769  0.0371  1.5091
18471TIP3   OH276903   0.358   5.054  14.081  0.4253  0.3196  0.4998
18471TIP3    H176904   0.394   5.143  14.079  2.2044 -0.3683 -0.4795
18471TIP3    H276905   0.338   5.034  13.989 -0.3132 -0.1787  0.7601
18472TIP3   OH276906   6.789   5.384  10.891 -0.1306  0.1731 -0.0173
18472TIP3    H176907   6.853   5.344  10.832 -0.1837  1.4212 -0.9550
18472TIP3    H276908   6.835   5.460  10.927 -0.2129 -0.3910  1.3156
18473TIP3   OH276909   0.722   5.460   3.674 -0.0630  0.0155  0.0542
18473TIP3    H176910   0.813   5.433   3.671  0.0816  0.5563 -0.8499
18473TIP3    H276911   0.673   5.378   3.684  0.6048 -0.0980  3.3541
18474TIP3   OH276912   6.219   6.646   5.237 -0.1736  0.4064 -0.0875
18474TIP3    H176913   6.293   6.600   5.277  0.1191  0.0137 -1.0553
18474TIP3    H276914   6.209   6.726   5.289 -0.2909 -0.4464  1.2262
18475TIP3   OH276915   3.795   5.387  16.238  0.2054  0.0776  0.2181
18475TIP3    H176916   3.758   5.462  16.284  1.6599 -0.0195  1.6449
18475TIP3    H276917   3.720   5.330  16.219 -0.7573  1.3311  0.1467
18476TIP3   OH276918   0.455   4.853   4.931  1.0165  0.4368 -0.2246
18476TIP3    H176919   0.447   4.808   5.015 -0.7932 -2.5115 -1.8138
18476TIP3    H276920   0.548   4.847   4.909  0.9162 -2.5132 -0.2296
18477TIP3   OH276921   0.891   3.667  10.292 -0.0919  0.6688  0.1434
18477TIP3    H176922   0.850   3.739  10.244  0.7711  1.6445  0.8355
18477TIP3    H276923   0.818   3.619  10.330 -0.8255 -0.1982 -2.1738
18478TIP3   OH276924   4.882   6.343  11.245  0.7396 -0.2556 -0.0623
18478TIP3    H176925   4.930   6.378  11.319  0.5754  1.3756 -0.6986
18478TIP3    H276926   4.949   6.324  11.179  0.5470  3.1001 -1.3916
18479TIP3   OH276927   4.947   0.802   6.756  0.2856 -0.0263 -0.4349
18479TIP3    H176928   4.876   0.866   6.754  1.5614  1.4815  0.1859
18479TIP3    H276929   5.020   0.845   6.713  2.1544  0.2521  2.7325
18480TIP3   OH276930   4.421   2.688  16.227 -0.2184 -0.3471  0.2217
18480TIP3    H176931   4.404   2.675  16.134  1.6693  0.8062 -0.3423
18480TIP3    H276932   4.511   2.719  16.231 -0.4299  0.1782  2.3960
18481TIP3   OH276933   3.533   5.172  15.583  0.1510 -0.2196  0.5876
18481TIP3    H176934   3.444   5.174  15.620  0.6307 -0.8902  1.8394
18481TIP3    H276935   3.581   5.113  15.641  1.2063 -0.5336 -0.5735
18482TIP3   OH276936   4.597   2.718   0.142  0.2117  0.2320  0.2673
18482TIP3    H176937   4.519   2.698   0.194 -0.7343  0.7390 -0.9156
18482TIP3    H276938   4.580   2.805   0.106  1.9192  0.9383  1.0451
18483TIP3   OH276939   4.379   2.118  15.421 -0.4772 -0.1257  0.3072
18483TIP3    H176940   4.419   2.137  15.337  0.0151 -0.1284  0.5409
18483TIP3    H276941   4.405   2.190  15.478 -1.0976  0.0612  0.3678
18484TIP3   OH276942   4.368   6.493  12.395 -0.3769 -0.3698  0.1381
18484TIP3    H176943   4.356   6.438  12.472 -1.8404 -1.8322 -1.0703
18484TIP3    H276944   4.432   6.446  12.341 -2.8232 -1.8907 -1.6522
18485TIP3   OH276945   4.153   0.584  15.138 -0.4303 -0.3838 -0.4271
18485TIP3    H176946   4.142   0.528  15.062  0.5810  0.3766 -1.1642
18485TIP3    H276947   4.241   0.622  15.128  0.4009 -1.4713  1.9261
18486TIP3   OH276948   1.297   5.314   6.639 -0.5283 -0.6344 -0.4133
18486TIP3    H176949   1.309   5.226   6.604 -0.8384 -0.7498 -0.2373
18486TIP3    H276950   1.221   5.306   6.698 -0.1370 -0.4030  0.1314
18487TIP3   OH276951   3.435   2.602   2.662 -0.4628 -0.0885  0.1339
18487TIP3    H176952   3.512   2.646   2.625 -1.1029  0.8770 -0.0774
18487TIP3    H276953   3.471   2.545   2.730  0.5757 -0.7255 -0.9134
18488TIP3   OH276954   1.880   0.294   1.585  0.0066 -0.3706  0.3523
18488TIP3    H176955   1.956   0.351   1.596 -0.7817  0.9189 -0.5865
18488TIP3    H276956   1.860   0.264   1.674  0.6195  0.6072  0.8378
18489TIP3   OH276957   5.891   0.684  11.272 -0.8295 -0.2511 -0.6735
18489TIP3    H176958   5.857   0.677  11.183 -2.5474  1.2380 -0.2005
18489TIP3    H276959   5.867   0.601  11.313  1.8624 -1.8735 -2.0964
18490TIP3   OH276960   4.897   6.085   0.864  0.0827  0.5504  0.3894
18490TIP3    H176961   4.819   6.034   0.885  0.3434  0.5788  1.4504
18490TIP3    H276962   4.923   6.125   0.947  1.7643 -0.1922  0.2528
18491TIP3   OH276963   0.722   0.785  14.078 -0.5953  0.8599 -0.3903
18491TIP3    H176964   0.688   0.707  14.034  0.0055  0.7403 -0.6667
18491TIP3    H276965   0.815   0.787  14.052  0.4371 -0.5639  2.7410
18492TIP3   OH276966   0.546   4.366   0.943  0.4983  0.1375  0.4378
18492TIP3    H176967   0.488   4.427   0.987 -0.3630  1.4050 -2.2599
18492TIP3    H276968   0.580   4.415   0.867  0.2523 -2.4655 -1.5060
18493TIP3   OH276969   4.985   2.499   2.969  0.8369  0.1109  0.1177
18493TIP3    H176970   4.953   2.510   3.059 -0.3982 -1.0061 -0.1456
18493TIP3    H276971   4.906   2.502   2.915  1.4934  0.1064 -0.8576
18494TIP3   OH276972   0.482   4.070  13.562 -0.3761 -0.0907  0.1571
18494TIP3    H176973   0.560   4.114  13.594 -0.0288  0.6805 -1.5925
18494TIP3    H276974   0.490   3.980  13.592  1.3492 -0.0910 -0.2140
18495TIP3   OH276975   2.607   0.801   0.735 -0.0902  0.0609 -0.6233
18495TIP3    H176976   2.537   0.759   0.685 -1.6340  2.3789 -0.5843
18495TIP3    H276977   2.682   0.743   0.725 -2.2078 -3.0510  0.0897
18496TIP3   OH276978   0.971   6.300  12.236  0.4002 -0.4230  0.0454
18496TIP3    H176979   0.908   6.244  12.282 -0.0993  1.3881  1.6777
18496TIP3    H276980   0.960   6.278  12.144 -1.0174 -1.7448  0.4977
18497TIP3   OH276981   2.439   3.089  14.548  0.6109  0.1148 -0.5399
18497TIP3    H176982   2.354   3.048  14.565  0.7726 -0.5845 -1.3330
18497TIP3    H276983   2.441   3.103  14.453  1.0251  0.9389 -0.4207
18498TIP3   OH276984   2.220   3.539  12.752 -0.0070  0.6720 -0.7129
18498TIP3    H176985   2.296   3.498  12.711 -0.9749  0.1595 -2.0804
18498TIP3    H276986   2.161   3.466  12.771 -0.2514  1.0805  0.1525
18499TIP3   OH276987   5.088   6.184   3.000 -0.3865  0.3783  0.0067
18499TIP3    H176988   5.177   6.154   3.015 -1.3982 -2.3127  1.2888
18499TIP3    H276989   5.043   6.108   2.962 -1.9670  1.9350 -1.4465
18500TIP3   OH276990   4.487   5.136   0.206 -0.2309 -0.4650  0.1007
18500TIP3    H176991   4.510   5.222   0.242  0.0915 -0.0112 -1.1552
18500TIP3    H276992   4.416   5.155   0.144  2.0363 -0.5664 -2.7083
18501TIP3   OH276993   5.986   6.238  15.785  0.1633  0.9542  0.2781
18501TIP3    H176994   5.905   6.194  15.760 -0.8817  2.1214  1.4273
18501TIP3    H276995   6.040   6.236  15.706 -1.0638  0.3287 -0.5801
18502TIP3   OH276996   3.346   5.028   0.321 -0.5564 -0.0708 -0.4308
18502TIP3    H176997   3.321   4.978   0.243 -0.7256  1.3373 -1.3199
18502TIP3    H276998   3.409   4.972   0.366 -1.0697 -1.2640 -1.1358
18503TIP3   OH276999   1.036   3.981   3.441 -0.1000  0.0061  0.0903
18503TIP3    H177000   0.978   3.971   3.516  0.0628 -0.8452  0.1110
18503TIP3    H277001   1.034   4.075   3.421 -2.8934 -0.2032 -1.0330
18504TIP3   OH277002   2.406   4.792  15.210  0.1111  0.3024  0.1996
18504TIP3    H177003   2.487   4.749  15.238  0.5301  0.8078 -0.2081
18504TIP3    H277004   2.435   4.857  15.146 -0.8397 -1.0426 -1.6877
18505TIP3   OH277005   2.755   2.852   5.814 -0.1369 -0.3593  0.2183
18505TIP3    H177006   2.820   2.873   5.881  0.3133 -0.3077 -0.2305
18505TIP3    H277007   2.716   2.769   5.844  0.7904 -0.8775  0.0180
18506TIP3   OH277008   2.318   4.717   0.932 -0.0489 -0.0135 -0.4529
18506TIP3    H177009   2.370   4.778   0.879 -0.2851  1.0998  0.5483
18506TIP3    H277010   2.374   4.696   1.007 -0.2825 -0.3980 -0.3813
18507TIP3   OH277011   1.226   5.392  12.858  0.1939 -0.0102  0.1922
18507TIP3    H177012   1.309   5.362  12.895  1.2108  0.7052 -1.4116
18507TIP3    H277013   1.228   5.487  12.869  0.3486  0.1815 -1.2888
18508TIP3   OH277014   1.655   2.772   5.153  0.5845 -0.4243  0.2369
18508TIP3    H177015   1.593   2.779   5.227 -0.1023 -0.0130 -0.3641
18508TIP3    H277016   1.739   2.798   5.190  0.4132 -1.0224  1.0810
18509TIP3   OH277017   3.460   0.250   2.605 -0.3526  0.3349 -1.0173
18509TIP3    H177018   3.382   0.265   2.659  1.6021  0.8646  1.9370
18509TIP3    H277019   3.484   0.336   2.573 -0.0299  0.4716 -0.4301
18510TIP3   OH277020   1.199   3.742  10.758  0.5432 -0.2590  0.3976
18510TIP3    H177021   1.269   3.699  10.709  0.6824 -0.4360  0.7439
18510TIP3    H277022   1.119   3.700  10.728  0.6003 -0.1626  0.1101
18511TIP3   OH277023   4.271   4.181   6.172 -0.2256 -0.3995 -0.3992
18511TIP3    H177024   4.178   4.185   6.192 -0.5848  0.1879 -1.9936
18511TIP3    H277025   4.308   4.122   6.237 -1.8901 -1.4942 -0.4070
18512TIP3   OH277026   6.554   1.229   0.614  0.6500 -0.0353  0.2506
18512TIP3    H177027   6.591   1.281   0.684 -0.0369  0.9856 -0.1272
18512TIP3    H277028   6.541   1.291   0.542 -1.8147 -0.3014  0.3753
18513TIP3   OH277029   5.712   1.009   3.919  0.2828  0.5932 -0.2767
18513TIP3    H177030   5.654   0.933   3.914  2.2221 -1.1059  1.0300
18513TIP3    H277031   5.658   1.078   3.956 -2.0256  0.4423 -3.0656
18514TIP3   OH277032   1.570   5.938  14.567 -0.4501 -0.6219  0.2925
18514TIP3    H177033   1.556   5.996  14.642 -1.8801 -0.4620 -0.0605
18514TIP3    H277034   1.505   5.868  14.580 -1.8736  0.2693 -1.6080
18515TIP3   OH277035   0.859   4.020   0.052  0.3160 -0.5382 -0.1039
18515TIP3    H177036   0.824   3.931   0.051 -0.5177 -0.3106 -3.3982
18515TIP3    H277037   0.944   4.013   0.008 -0.4986  0.4497 -1.9575
18516TIP3   OH277038   2.976   6.139   1.167 -0.1234 -0.5834 -0.2035
18516TIP3    H177039   2.984   6.086   1.247 -0.1277  1.9095  1.5678
18516TIP3    H277040   3.065   6.147   1.135 -0.0415 -1.1283 -0.1201
18517TIP3   OH277041   2.143   3.981   0.339 -0.6956 -0.4434 -0.0520
18517TIP3    H177042   2.060   3.969   0.293 -0.1578  0.6940 -1.3541
18517TIP3    H277043   2.117   4.000   0.430 -1.8246 -0.6738 -0.3098
18518TIP3   OH277044   1.718   4.617   5.252  0.0835  0.4295 -0.0895
18518TIP3    H177045   1.783   4.659   5.196  0.9573  0.2154  0.7452
18518TIP3    H277046   1.769   4.572   5.319 -0.9069 -0.2586  0.2271
18519TIP3   OH277047   2.673   2.966  15.516  0.4642  0.2646 -0.0717
18519TIP3    H177048   2.655   3.060  15.510 -1.0698 -0.0745 -2.4932
18519TIP3    H277049   2.724   2.948  15.437 -0.2787 -1.0909 -0.2663
18520TIP3   OH277050   3.332   1.557   2.391 -0.2583  0.5340  0.0459
18520TIP3    H177051   3.401   1.528   2.451 -0.0852  2.4323  0.8304
18520TIP3    H277052   3.378   1.579   2.310 -0.0439  1.1109  0.3251
18521TIP3   OH277053   4.587   4.987  16.777  0.3834 -0.0103 -0.5239
18521TIP3    H177054   4.551   4.976  16.689  2.8197 -0.6516 -1.5113
18521TIP3    H277055   4.649   4.915  16.788  1.1962  0.8688  1.1645
18522TIP3   OH277056   2.114   4.368   0.595  0.0808  0.4248 -0.1775
18522TIP3    H177057   2.119   4.288   0.647  1.7953  1.2375  1.0258
18522TIP3    H277058   2.041   4.354   0.535  0.6259 -2.2197 -0.3397
18523TIP3   OH277059   2.775   5.824  17.108 -0.5983  0.2159 -0.2050
18523TIP3    H177060   2.776   5.808  17.013 -0.0400 -1.5443  0.0566
18523TIP3    H277061   2.781   5.737  17.147  4.0632  1.0072  1.4360
18524TIP3   OH277062   2.442   3.799  11.682  0.2784 -0.0738 -0.8497
18524TIP3    H177063   2.395   3.876  11.715 -0.6437 -0.4488 -1.2389
18524TIP3    H277064   2.401   3.725  11.727  0.3612 -0.4238 -1.3441
18525TIP3   OH277065   5.026   4.673   3.047 -0.1267 -0.4791  0.0534
18525TIP3    H177066   5.018   4.735   2.974  0.0803  0.8068  1.0817
18525TIP3    H277067   4.986   4.592   3.015 -0.0841  0.0740 -1.4557
18526TIP3   OH277068   0.754   2.055  11.579 -0.9265 -0.4328 -0.2222
18526TIP3    H177069   0.796   2.053  11.493 -1.4988 -3.9305 -0.5472
18526TIP3    H277070   0.695   2.130  11.574  0.7162  0.8690 -1.9763
18527TIP3   OH277071   3.699   2.172   1.823  0.0792  0.3816 -0.0017
18527TIP3    H177072   3.707   2.251   1.771  0.4488  0.0628 -0.4443
18527TIP3    H277073   3.679   2.103   1.760  2.2827 -0.3330 -0.0149
18528TIP3   OH277074   6.163   3.981   1.654 -0.0782  0.0462 -0.4193
18528TIP3    H177075   6.152   4.074   1.670 -0.4798 -0.1127  0.2605
18528TIP3    H277076   6.093   3.939   1.704 -0.6814 -0.5454 -1.7029
18529TIP3   OH277077   0.328   3.670   0.669 -0.5308 -0.1163  0.4979
18529TIP3    H177078   0.327   3.680   0.573 -1.3638 -1.9123  0.2777
18529TIP3    H277079   0.412   3.709   0.695  1.0314 -1.9737 -1.3081
18530TIP3   OH277080   4.057   1.042  12.685  0.2308 -0.1050  0.5664
18530TIP3    H177081   4.096   1.077  12.605  0.5861 -2.0633 -0.1742
18530TIP3    H277082   3.963   1.049  12.670  0.2981  0.3135  0.3298
18531TIP3   OH277083   3.650   5.208  11.769 -0.1376 -0.0506 -0.2349
18531TIP3    H177084   3.666   5.295  11.806 -1.3273 -0.2191  0.7557
18531TIP3    H277085   3.610   5.226  11.683 -1.4696  0.4198  0.4595
18532TIP3   OH277086   0.751   4.946  16.181 -0.5794 -0.1563  0.1651
18532TIP3    H177087   0.769   4.900  16.098 -0.6206 -1.7071  0.9685
18532TIP3    H277088   0.802   5.026  16.176  0.6203 -0.9387 -0.7338
18533TIP3   OH277089   5.222   0.162  10.678 -0.4758  0.4454  0.7104
18533TIP3    H177090   5.284   0.116  10.735 -0.5465 -0.5297  0.0186
18533TIP3    H277091   5.214   0.249  10.717  1.0376  0.4690  1.0256
18534TIP3   OH277092   0.582   6.030   3.834 -0.0389  0.3487 -0.0352
18534TIP3    H177093   0.572   6.112   3.883  0.0062 -0.0273  0.6068
18534TIP3    H277094   0.531   6.044   3.754  0.7392  1.3584 -0.3763
18535TIP3   OH277095   1.587   1.602   3.974  0.4718 -0.5377 -0.2352
18535TIP3    H177096   1.649   1.676   3.975 -0.0083 -0.0412 -2.0169
18535TIP3    H277097   1.537   1.615   3.893 -0.9305 -1.7736  0.3960
18536TIP3   OH277098   5.962   2.120   0.150 -0.2189  0.2980  0.0121
18536TIP3    H177099   5.912   2.189   0.106 -1.2639  0.3242  1.2036
18536TIP3    H277100   5.987   2.158   0.234  0.4275 -0.2992  0.1010
18537TIP3   OH277101   3.773   4.125  14.330 -0.2602 -0.4217  0.1220
18537TIP3    H177102   3.854   4.162  14.367 -0.6491 -0.5520  1.1219
18537TIP3    H277103   3.745   4.060  14.394 -0.6441 -1.0671 -0.6874
18538TIP3   OH277104   6.008   0.770  15.440 -0.4340 -0.1010 -0.5115
18538TIP3    H177105   6.042   0.829  15.373 -0.4967  0.0354 -0.4254
18538TIP3    H277106   6.079   0.709  15.458  0.5296  1.3853  1.1048
18539TIP3   OH277107   2.393   6.640   3.160  0.1599  0.1728  0.4701
18539TIP3    H177108   2.447   6.591   3.097  2.1682  1.1012  1.3553
18539TIP3    H277109   2.349   6.707   3.107 -0.6168 -0.9740 -0.3650
18540TIP3   OH277110   1.438   0.149   6.235 -0.3327  0.0794  0.1244
18540TIP3    H177111   1.398   0.070   6.199 -1.4103  0.7237 -0.1598
18540TIP3    H277112   1.435   0.137   6.330 -0.0161 -0.4459  0.0648
18541TIP3   OH277113   5.728   6.510   2.433  0.4746  0.9885  0.1874
18541TIP3    H177114   5.780   6.530   2.510 -1.6594 -0.1245  2.0463
18541TIP3    H277115   5.747   6.418   2.415  1.2719  1.3511 -0.9143
18542TIP3   OH277116   1.178   3.451  11.537 -0.0636  0.1577  0.0862
18542TIP3    H177117   1.141   3.507  11.468 -0.3906 -1.5992 -1.2643
18542TIP3    H277118   1.151   3.492  11.619 -3.2431  0.1887 -0.8164
18543TIP3   OH277119   4.802   6.585   0.908 -0.6404 -0.0651  0.1039
18543TIP3    H177120   4.801   6.614   0.999 -3.2944 -2.9129  1.1666
18543TIP3    H277121   4.714   6.551   0.892 -0.0938 -0.2244 -3.3702
18544TIP3   OH277122   1.248   5.066  11.394  0.0097 -0.8813  0.5323
18544TIP3    H177123   1.267   4.996  11.332  0.1401 -1.5105  1.2645
18544TIP3    H277124   1.314   5.133  11.376 -1.9281  0.4840 -2.2359
18545TIP3   OH277125   1.503   2.527  16.140  0.3447 -0.6361  0.4744
18545TIP3    H177126   1.419   2.569  16.122 -0.2693 -1.9724  0.0407
18545TIP3    H277127   1.549   2.527  16.055  1.0756  0.6484  0.8434
18546TIP3   OH277128   5.382   3.646  13.733  0.5680  0.1904 -0.6212
18546TIP3    H177129   5.363   3.727  13.781 -0.2426  0.1176 -0.8008
18546TIP3    H277130   5.477   3.641  13.730  0.6412 -0.0108  1.3221
18547TIP3   OH277131   6.766   0.420  13.343  0.5064  0.2774 -0.1316
18547TIP3    H177132   6.780   0.467  13.261  4.5235  0.2154  0.3222
18547TIP3    H277133   6.775   0.328  13.320  2.4934  0.2859  0.3566
18548TIP3   OH277134   1.090   6.541  15.708  0.6223  0.0503 -0.2127
18548TIP3    H177135   1.172   6.574  15.746  1.0437 -1.6239  0.4115
18548TIP3    H277136   1.041   6.508  15.782 -1.6384  2.8931 -0.2592
18549TIP3   OH277137   3.703   3.575   2.612 -0.1987 -0.5176 -0.3304
18549TIP3    H177138   3.706   3.571   2.516  1.1193  1.1177 -0.4007
18549TIP3    H277139   3.698   3.669   2.632  3.4353 -0.5112  1.2320
18550TIP3   OH277140   0.856   4.895  14.992  0.1243 -0.0182  0.0323
18550TIP3    H177141   0.831   4.808  14.962  0.0657  0.3257 -0.9581
18550TIP3    H277142   0.773   4.943  15.001  0.2304  0.3126 -0.6690
18551TIP3   OH277143   1.449   2.792   5.387 -0.0386 -0.2778  0.6360
18551TIP3    H177144   1.362   2.754   5.373 -0.1727 -0.2923  1.4254
18551TIP3    H277145   1.507   2.717   5.400 -0.4221 -0.2719  2.8636
18552TIP3   OH277146   3.573   0.187  13.574  0.6073 -0.0106 -0.2577
18552TIP3    H177147   3.599   0.118  13.512  0.8313  0.0647 -0.2468
18552TIP3    H277148   3.654   0.231  13.597  0.4315  0.4374 -0.4755
18553TIP3   OH277149   4.457   5.491  13.563  0.8354  0.5093  0.1737
18553TIP3    H177150   4.427   5.487  13.473  1.1123 -1.9688  0.1163
18553TIP3    H277151   4.529   5.554  13.563  0.8527  0.5050 -1.3455
18554TIP3   OH277152   4.874   0.906  13.495 -0.4078  0.5478 -0.4583
18554TIP3    H177153   4.839   0.817  13.500  1.1928 -0.5242 -4.1598
18554TIP3    H277154   4.897   0.928  13.585  0.5844 -3.4796  0.4972
18555TIP3   OH277155   0.031   5.724  10.660 -0.8477  0.6006  0.0912
18555TIP3    H177156   0.084   5.650  10.631 -0.5528  0.9472 -0.2644
18555TIP3    H277157  -0.011   5.756  10.581 -0.0171  1.5702  0.0234
18556TIP3   OH277158   2.060   6.301   4.680 -0.0705 -0.5859  0.3898
18556TIP3    H177159   2.067   6.241   4.605  0.3098  0.7306 -0.6603
18556TIP3    H277160   2.108   6.256   4.750  1.7258 -0.7759 -0.8764
18557TIP3   OH277161   5.078   6.687  13.183  0.2868  0.3022 -0.0077
18557TIP3    H177162   5.127   6.648  13.255 -0.4941  0.5257  0.6682
18557TIP3    H277163   4.990   6.701  13.219  0.0101  0.8460 -0.8611
18558TIP3   OH277164   4.263   5.774  15.273 -0.5231 -0.2015  0.0104
18558TIP3    H177165   4.278   5.680  15.274 -4.5253 -1.0396  0.4293
18558TIP3    H277166   4.198   5.789  15.342 -1.9250  2.4097 -1.6795
18559TIP3   OH277167   4.363   3.712  10.299 -0.0051  0.2874  0.2386
18559TIP3    H177168   4.316   3.637  10.262  1.1287 -1.2682  1.7765
18559TIP3    H277169   4.333   3.717  10.390  0.3479  1.3379  0.3068
18560TIP3   OH277170   4.846   6.048   3.390  0.0425 -0.2515 -0.1192
18560TIP3    H177171   4.901   6.097   3.329 -0.7798 -0.4468 -1.0275
18560TIP3    H277172   4.879   6.073   3.477 -1.5145  3.3659 -0.4236
18561TIP3   OH277173   1.566   0.393   1.589 -0.4979  0.2306 -0.2299
18561TIP3    H177174   1.537   0.302   1.591 -0.8144  0.3323  0.0217
18561TIP3    H277175   1.540   0.425   1.503 -1.5786  0.4504  0.1537
18562TIP3   OH277176   0.458   4.928   0.598  0.3503 -0.0546 -0.2182
18562TIP3    H177177   0.457   5.014   0.639  1.7817  0.6200 -1.4836
18562TIP3    H277178   0.371   4.918   0.560 -0.5644 -0.1347  1.7455
18563TIP3   OH277179   5.909   2.338  17.265 -0.0851  0.4490  0.0250
18563TIP3    H177180   5.885   2.280  17.193  3.5794 -0.4172 -0.7028
18563TIP3    H277181   5.957   2.409  17.223  1.2862  0.4413  1.4803
18564TIP3   OH277182   1.298   5.099  15.188 -0.0566  0.7023  0.0685
18564TIP3    H177183   1.278   5.156  15.113  0.2383 -0.1057 -0.6467
18564TIP3    H277184   1.221   5.042  15.195  0.3591  0.0890 -0.2869
18565TIP3   OH277185   5.023   1.623  14.409  0.4753  0.0321 -0.5769
18565TIP3    H177186   4.991   1.607  14.498 -1.1137  0.0958 -1.1197
18565TIP3    H277187   5.059   1.711  14.412  0.6973 -0.0690  0.0604
18566TIP3   OH277188   3.255   1.241  12.820 -0.0173 -0.1835  0.0370
18566TIP3    H177189   3.190   1.303  12.787  1.6956 -0.0371 -3.5206
18566TIP3    H277190   3.266   1.178  12.748  2.7104 -1.0511  1.1007
18567TIP3   OH277191   3.174   5.265  11.747  0.3438 -0.7265  0.5654
18567TIP3    H177192   3.144   5.176  11.730  0.2690 -0.7637  0.8771
18567TIP3    H277193   3.104   5.304  11.799 -0.0026 -0.2133 -0.2823
18568TIP3   OH277194   3.180   4.590  12.683 -0.5412 -0.6784 -0.3773
18568TIP3    H177195   3.214   4.511  12.641 -0.9735 -0.2265 -1.6278
18568TIP3    H277196   3.120   4.628  12.618 -2.2216 -0.6113  1.1243
18569TIP3   OH277197   3.190   3.770  17.031 -0.2665  0.0308 -0.0408
18569TIP3    H177198   3.183   3.677  17.051 -1.9536  0.0109 -0.5800
18569TIP3    H277199   3.250   3.805  17.098  0.9098 -1.5212 -0.2251
18570TIP3   OH277200   5.357   4.482  14.340  0.3095 -0.0460 -0.0951
18570TIP3    H177201   5.273   4.480  14.386  0.2867  1.9655  0.0367
18570TIP3    H277202   5.388   4.572  14.350  1.8838 -0.4152 -1.2336
18571TIP3   OH277203   6.078   1.765   3.405  0.7090  0.5794  0.5174
18571TIP3    H177204   6.078   1.744   3.312 -1.6435  1.8168  0.1734
18571TIP3    H277205   5.997   1.726   3.438  1.4761  0.2158  2.0640
18572TIP3   OH277206   5.910   2.045  16.766  0.3503 -0.2096  0.7378
18572TIP3    H177207   5.885   2.095  16.688 -1.6881 -2.1227  0.0520
18572TIP3    H277208   6.004   2.061  16.775  0.2296  1.8440 -0.7664
18573TIP3   OH277209   2.985   5.881  12.972 -0.1027  0.1159 -0.2284
18573TIP3    H177210   3.018   5.947  13.034 -2.8909  1.2863  0.1563
18573TIP3    H277211   3.062   5.831  12.947  1.4636  0.8366  2.7258
18574TIP3   OH277212   0.822   1.041  12.093 -0.1169 -0.0233 -0.6726
18574TIP3    H177213   0.830   0.977  12.163 -1.3001  0.5398 -0.0003
18574TIP3    H277214   0.796   0.990  12.016  0.1307 -0.4923 -0.4479
18575TIP3   OH277215   4.644   0.077   1.577 -0.5524 -0.0767 -0.3864
18575TIP3    H177216   4.721   0.042   1.532  1.2709 -1.2139  3.1912
18575TIP3    H277217   4.600  -0.001   1.613 -1.6658  0.7728  0.1610
18576TIP3   OH277218   2.382   6.424   5.084  0.2772 -0.0623 -0.0766
18576TIP3    H177219   2.399   6.404   5.176  1.0589 -1.2121 -0.4346
18576TIP3    H277220   2.329   6.351   5.053 -0.9513  0.8863 -0.2818
18577TIP3   OH277221   5.860   4.713   4.324 -0.2774  0.5418  0.2430
18577TIP3    H177222   5.916   4.669   4.261 -1.0889  1.2151 -0.9757
18577TIP3    H277223   5.791   4.753   4.272 -1.7713 -0.0496  1.6787
18578TIP3   OH277224   1.804   4.675   0.185 -0.3485 -0.3464  0.0689
18578TIP3    H177225   1.764   4.609   0.129 -0.7981 -0.5033  0.5707
18578TIP3    H277226   1.737   4.743   0.196 -0.0421 -0.0092 -0.0915
18579TIP3   OH277227   2.105   6.384  10.937 -0.1761  0.0721  0.1417
18579TIP3    H177228   2.082   6.464  10.890 -0.9386 -0.5510 -0.5817
18579TIP3    H277229   2.081   6.313  10.877  1.1467 -0.6946  0.4832
18580TIP3   OH277230   4.942   1.796  12.950  0.4541  0.0874  0.1357
18580TIP3    H177231   4.993   1.715  12.942 -0.4959 -0.5278  0.1030
18580TIP3    H277232   4.998   1.864  12.915  0.5792 -0.8429 -1.5590
18581TIP3   OH277233   3.586   2.643   0.031  0.0697 -0.2328  0.0482
18581TIP3    H177234   3.664   2.638   0.087 -0.4043 -0.8010  0.6782
18581TIP3    H277235   3.513   2.636   0.092 -0.4634 -2.5491 -0.7317
18582TIP3   OH277236   3.099   0.218   6.413 -0.2937  0.5727 -0.0871
18582TIP3    H177237   3.036   0.254   6.350  0.2088  0.2380 -0.7945
18582TIP3    H277238   3.045   0.175   6.479 -0.8487  1.3462 -0.0183
18583TIP3   OH277239   5.769   6.490  17.141  0.1310  0.3417  0.3065
18583TIP3    H177240   5.860   6.502  17.115 -0.2212  0.5439 -0.9178
18583TIP3    H277241   5.723   6.566  17.105 -0.5216  0.2670  0.9466
18584TIP3   OH277242   6.117   2.341   4.552  0.3357 -0.0787  0.4353
18584TIP3    H177243   6.121   2.423   4.503  0.0259 -0.2630  0.1020
18584TIP3    H277244   6.183   2.286   4.512 -2.1751 -1.4907 -2.1007
18585TIP3   OH277245   4.327   0.914  14.094 -0.7794  0.1573  0.2499
18585TIP3    H177246   4.358   0.877  14.177  0.1645  0.5544  0.0953
18585TIP3    H277247   4.404   0.958  14.058 -1.1358 -0.1519 -0.9226
18586TIP3   OH277248   6.427   3.829  16.278 -0.1938  0.6955 -0.2205
18586TIP3    H177249   6.426   3.916  16.316  3.8955 -0.3675  3.0751
18586TIP3    H277250   6.356   3.782  16.322 -0.3874  1.5208  0.3613
18587TIP3   OH277251   2.201   2.931   4.801  0.0974  0.5881  0.1816
18587TIP3    H177252   2.262   2.996   4.835  1.1847  1.1483 -2.5456
18587TIP3    H277253   2.255   2.854   4.784  0.2066  1.1418 -2.4057
18588TIP3   OH277254   2.707   2.091   1.912 -0.3708  0.3075  0.7681
18588TIP3    H177255   2.644   2.154   1.945 -0.5376  0.9081 -0.6486
18588TIP3    H277256   2.775   2.144   1.870  0.0875 -0.4054  0.5840
18589TIP3   OH277257   1.138   1.134  14.566 -0.0283 -0.1754  0.6622
18589TIP3    H177258   1.156   1.040  14.560 -1.2661 -0.4836  1.4983
18589TIP3    H277259   1.095   1.145  14.651 -0.5790  1.0384  0.2443
18590TIP3   OH277260   0.704   4.452  11.881 -0.0811  0.3623 -0.0705
18590TIP3    H177261   0.651   4.514  11.831 -1.5393 -1.0340 -0.3264
18590TIP3    H277262   0.696   4.369  11.833  1.0122 -0.2822  0.8042
18591TIP3   OH277263   1.293   4.905   6.192  0.6007  0.2695 -0.0845
18591TIP3    H177264   1.251   4.979   6.147  1.2647  0.8806  0.2762
18591TIP3    H277265   1.221   4.848   6.218  0.0375  1.0614  0.1087
18592TIP3   OH277266   1.353   2.026  16.302 -0.4132 -0.0792  0.0089
18592TIP3    H177267   1.389   1.937  16.304  1.4864  0.6383  0.6296
18592TIP3    H277268   1.428   2.082  16.324 -1.9904  1.5495  1.5521
18593TIP3   OH277269   6.026   5.520  13.484  0.2869 -0.3397  0.7308
18593TIP3    H177270   6.040   5.538  13.577  3.0912 -1.1082  0.5684
18593TIP3    H277271   6.063   5.596  13.439 -0.4480 -0.2688  0.2441
18594TIP3   OH277272   2.658   4.363  14.697  0.4325  0.6179  0.3805
18594TIP3    H177273   2.677   4.456  14.704  0.6978  0.5110  1.1295
18594TIP3    H277274   2.562   4.358  14.700  0.4351  0.8274  0.9276
18595TIP3   OH277275   1.049   3.856  13.387  0.0806 -0.3520  0.1384
18595TIP3    H177276   1.144   3.853  13.384  0.0496 -1.2059 -0.2812
18595TIP3    H277277   1.029   3.933  13.440  1.0107 -0.5395  0.7828
18596TIP3   OH277278   5.632   6.181   5.018  0.3011  0.5062 -0.5092
18596TIP3    H177279   5.660   6.208   4.931  2.5333 -1.5449 -0.5290
18596TIP3    H277280   5.542   6.213   5.026 -0.5353 -0.5169 -4.1629
18597TIP3   OH277281   2.516   2.272   5.514 -0.4149 -0.2269  0.1630
18597TIP3    H177282   2.511   2.199   5.575 -0.9324 -0.0742  0.3117
18597TIP3    H277283   2.600   2.261   5.469 -0.7211 -1.2078 -0.1884
18598TIP3   OH277284   2.717   6.723  10.727 -0.1709  0.6916  0.0100
18598TIP3    H177285   2.782   6.757  10.665  1.1105 -0.4159  0.6897
18598TIP3    H277286   2.633   6.738  10.684  0.6953 -1.6521 -2.8606
18599TIP3   OH277287   3.088   1.354  12.654 -0.0335 -0.4270  0.1389
18599TIP3    H177288   3.101   1.385  12.564 -0.1850 -0.7032  0.0182
18599TIP3    H277289   3.119   1.263  12.652  0.4402 -0.2772  0.4953
18600TIP3   OH277290   1.421   2.792  14.339 -0.6522 -0.2364 -0.0562
18600TIP3    H177291   1.418   2.786  14.243  1.5538 -2.9925 -0.0806
18600TIP3    H277292   1.439   2.885  14.357 -0.8031  0.2776 -2.2882
18601TIP3   OH277293   1.505   0.853   0.760  1.0143 -0.7862 -0.3099
18601TIP3    H177294   1.441   0.886   0.697  0.8241 -0.3952  0.0856
18601TIP3    H277295   1.453   0.820   0.833  1.1998 -1.9977 -0.6971
18602TIP3   OH277296   2.988   6.195  15.520  0.3242  0.1434 -0.5537
18602TIP3    H177297   2.947   6.111  15.503 -0.2835  0.4768 -0.7779
18602TIP3    H277298   3.071   6.174  15.563  0.0023 -0.5478 -0.2669
18603TIP3   OH277299   0.046   1.213  14.745  0.0826 -0.2652  0.1938
18603TIP3    H177300   0.041   1.308  14.755 -1.5469 -0.0630 -1.8035
18603TIP3    H277301   0.112   1.186  14.808  1.8089  2.3900 -0.3030
18604TIP3   OH277302   0.986   5.734  16.922 -0.0679  0.1645 -0.0184
18604TIP3    H177303   1.020   5.673  16.987 -0.7405 -0.8269 -0.5701
18604TIP3    H277304   0.952   5.678  16.851  0.8502  1.2182 -1.3396
18605TIP3   OH277305   6.806   1.906  15.832  0.1005 -0.1207 -0.2648
18605TIP3    H177306   6.892   1.876  15.801  0.4234 -1.8211  2.0468
18605TIP3    H277307   6.811   2.002  15.826  2.3609 -0.1525  0.2476
18606TIP3   OH277308   2.613   5.805  15.427  0.1232  0.4001  0.5910
18606TIP3    H177309   2.626   5.895  15.456 -2.5872  1.3235 -0.7838
18606TIP3    H277310   2.677   5.793  15.356  1.4941  0.6897  1.7366
18607TIP3   OH277311   0.142   0.297  15.860  0.1710 -0.4723  0.0829
18607TIP3    H177312   0.065   0.353  15.850  0.3238 -0.4016 -0.7311
18607TIP3    H277313   0.199   0.346  15.920  0.7853  0.7915 -1.4637
18608TIP3   OH277314   4.213   5.419   4.843 -0.3960  0.4657  0.6128
18608TIP3    H177315   4.278   5.365   4.887 -1.4817 -0.1784  1.4598
18608TIP3    H277316   4.135   5.414   4.898 -1.0976  1.4233 -0.2460
18609TIP3   OH277317   0.623   1.668   4.689 -0.5796 -0.4141  0.0587
18609TIP3    H177318   0.683   1.716   4.746  1.5498 -0.7919 -1.7190
18609TIP3    H277319   0.678   1.640   4.616 -3.1005 -0.2583 -1.9991
18610TIP3   OH277320   2.272   1.993   3.458  0.4088 -0.0788 -0.2799
18610TIP3    H177321   2.298   1.948   3.378 -0.3978  0.6037 -0.9540
18610TIP3    H277322   2.196   2.046   3.432  1.1723  1.4918  0.5015
18611TIP3   OH277323   4.849   1.972   0.110 -0.6051 -0.3555  0.0984
18611TIP3    H177324   4.860   2.055   0.156 -0.5795 -0.6718  0.6727
18611TIP3    H277325   4.796   1.994   0.034 -1.6808 -0.0289  0.9111
18612TIP3   OH277326   0.382   5.537  16.021 -0.7694  0.4210 -0.3814
18612TIP3    H177327   0.468   5.514  15.987 -1.1778 -0.6048 -0.7646
18612TIP3    H277328   0.363   5.623  15.983 -1.3925 -0.8451 -3.1954
18613TIP3   OH277329   5.509   5.853   5.558  0.2638 -0.3357  0.1328
18613TIP3    H177330   5.601   5.847   5.583  0.2462 -1.4774 -0.0314
18613TIP3    H277331   5.481   5.939   5.589  1.1376 -0.3593  1.0225
18614TIP3   OH277332   2.082   4.404  14.230  0.6682 -0.5928  0.6747
18614TIP3    H177333   2.146   4.339  14.201  0.0121 -0.1339 -2.0214
18614TIP3    H277334   2.128   4.488  14.224  0.5533 -0.4922  1.1272
18615TIP3   OH277335   4.156   3.233  12.730 -0.0677 -0.7071 -0.1492
18615TIP3    H177336   4.097   3.308  12.741 -0.8317 -1.2794 -0.2861
18615TIP3    H277337   4.223   3.265  12.669 -0.8788 -0.3979 -0.9102
18616TIP3   OH277338   3.908   0.900   2.550  0.0831 -0.2711  0.9924
18616TIP3    H177339   3.879   0.981   2.593 -0.7044 -0.5712  1.0459
18616TIP3    H277340   3.843   0.884   2.483  0.2596 -0.8433  0.9547
18617TIP3   OH277341   3.583   1.370   3.491  0.6098 -0.5676 -0.2355
18617TIP3    H177342   3.523   1.295   3.488 -0.0253 -0.1050  0.6338
18617TIP3    H277343   3.535   1.440   3.447  0.4661 -0.1613  0.5663
18618TIP3   OH277344   0.389   6.034  12.147 -0.6003 -0.1644  0.1804
18618TIP3    H177345   0.377   6.112  12.201 -1.2883 -0.7228  0.8461
18618TIP3    H277346   0.391   5.961  12.209  1.2418 -0.5903 -0.3288
18619TIP3   OH277347   2.111   1.172  15.120 -0.2765  0.0139  0.2448
18619TIP3    H177348   2.138   1.262  15.138 -1.7285  0.7229 -0.8395
18619TIP3    H277349   2.065   1.144  15.199 -2.7993  1.5201 -0.5469
18620TIP3   OH277350   2.126   5.854  11.542  0.3360 -0.1365  0.1716
18620TIP3    H177351   2.109   5.899  11.625 -2.7608 -1.9624  0.6583
18620TIP3    H277352   2.064   5.892  11.480  1.0437 -0.3913 -0.7264
18621TIP3   OH277353   3.163   4.402  13.434 -0.1620 -0.0631  0.2479
18621TIP3    H177354   3.214   4.429  13.511 -1.1164  2.6367  0.0380
18621TIP3    H277355   3.092   4.349  13.471  0.8120 -0.9589  0.9063
18622TIP3   OH277356   5.455   1.086   3.119 -0.4003  0.4221 -0.2464
18622TIP3    H177357   5.396   1.162   3.119  0.2915  0.9674 -0.6046
18622TIP3    H277358   5.462   1.062   3.211 -0.1640  1.1575 -0.0655
18623TIP3   OH277359   6.077   3.775  13.822 -0.3004 -0.1792  0.0104
18623TIP3    H177360   6.077   3.685  13.852  1.1395  0.1684  1.1829
18623TIP3    H277361   6.000   3.814  13.862 -1.3126 -1.0308 -1.0541
18624TIP3   OH277362   1.638   6.167   0.025  0.1931  0.8668 -0.3115
18624TIP3    H177363   1.545   6.189   0.032 -0.3976 -1.4407 -0.2423
18624TIP3    H277364   1.663   6.198  -0.062 -0.9185  0.6055 -0.7434
18625TIP3   OH277365   6.738   2.195   2.731 -0.4366  0.1295 -0.4994
18625TIP3    H177366   6.828   2.225   2.718 -0.0254 -0.9839 -0.3173
18625TIP3    H277367   6.734   2.111   2.686 -1.2230 -0.1030 -0.0129
18626TIP3   OH277368   6.754   3.914  12.509 -0.4293  0.2509  0.2889
18626TIP3    H177369   6.681   3.853  12.522 -1.7339  1.5746 -0.5836
18626TIP3    H277370   6.786   3.894  12.421 -0.5929  0.5553  0.1610
18627TIP3   OH277371   4.986   0.687  12.157  0.3599  0.1358 -0.4510
18627TIP3    H177372   4.977   0.738  12.076 -1.2261  1.0284  0.2369
18627TIP3    H277373   5.069   0.715  12.194  1.5814 -0.9875 -2.2150
18628TIP3   OH277374   5.165   3.994   4.154  0.3479  0.2998 -0.4745
18628TIP3    H177375   5.238   3.932   4.152 -1.4748 -1.9920 -0.1232
18628TIP3    H277376   5.200   4.071   4.198  2.5473 -0.7137 -0.3166
18629TIP3   OH277377   0.955   5.626   2.305 -0.4616  0.2590 -0.0796
18629TIP3    H177378   0.906   5.656   2.382 -0.4996  0.4033 -0.1601
18629TIP3    H277379   1.032   5.582   2.342 -1.1829 -0.9100  0.0796
18630TIP3   OH277380   2.107   2.369   1.619  0.1878  0.6637  0.6091
18630TIP3    H177381   2.125   2.281   1.587 -0.9590 -0.0001  1.6951
18630TIP3    H277382   2.144   2.427   1.553  0.0003 -0.6305 -0.6670
18631TIP3   OH277383   4.218   4.176  11.140  0.2262  0.2502 -0.2753
18631TIP3    H177384   4.145   4.135  11.186 -0.0828  0.1727 -0.8161
18631TIP3    H277385   4.268   4.221  11.208 -1.0198  1.3652 -0.0627
18632TIP3   OH277386   1.650   6.147  11.074 -0.2483 -0.4726  0.4049
18632TIP3    H177387   1.637   6.083  11.004  0.5514  0.1399 -0.3280
18632TIP3    H277388   1.648   6.232  11.029 -0.1977 -0.0424  1.1986
18633TIP3   OH277389   0.900   1.349  14.110 -0.2268 -0.7930  0.0151
18633TIP3    H177390   0.835   1.419  14.099 -0.2754 -1.1407 -2.4250
18633TIP3    H277391   0.903   1.334  14.204 -1.1566  1.5980  0.4851
18634TIP3   OH277392   4.398   3.469  13.074  0.4001  0.6124  0.4325
18634TIP3    H177393   4.383   3.452  13.167 -2.5320  0.8650  0.1044
18634TIP3    H277394   4.373   3.388  13.030  0.1549  1.0218 -0.2078
18635TIP3   OH277395   5.909   5.444  16.791  0.1908 -0.1380  0.4570
18635TIP3    H177396   5.873   5.416  16.706 -1.0223 -0.6524  1.1137
18635TIP3    H277397   5.983   5.385  16.806  0.1459 -0.3303 -0.0461
18636TIP3   OH277398   2.145   5.219  14.577  0.3206 -0.0600  0.2523
18636TIP3    H177399   2.050   5.210  14.578 -0.0144  2.7768  0.0561
18636TIP3    H277400   2.169   5.230  14.668  0.2205  1.1112  0.1446
18637TIP3   OH277401   2.367   2.587   3.985  0.1266 -0.1141  0.2312
18637TIP3    H177402   2.423   2.663   4.001  0.5990 -0.5798  0.8634
18637TIP3    H277403   2.424   2.512   4.002 -0.6479 -0.6049  0.7521
18638TIP3   OH277404   5.399   0.452   1.284  0.0139  0.4878 -0.4118
18638TIP3    H177405   5.422   0.483   1.371  2.4273 -0.7861 -0.5196
18638TIP3    H277406   5.345   0.374   1.299  0.8594 -0.0314 -0.0320
18639TIP3   OH277407   4.942   4.980   3.963 -0.1469 -0.0479 -0.1321
18639TIP3    H177408   4.982   5.025   3.889 -0.1178 -0.8250 -0.6072
18639TIP3    H277409   4.876   4.923   3.923  0.6325 -1.3154  0.3193
18640TIP3   OH277410   5.725   2.604   5.969 -0.3366 -0.0935  0.8339
18640TIP3    H177411   5.787   2.654   6.022 -1.8077  0.1986  2.3375
18640TIP3    H277412   5.657   2.576   6.030 -1.7733 -0.2853 -0.7795
18641TIP3   OH277413   3.973   3.363  13.094 -0.2404 -0.3189 -0.6433
18641TIP3    H177414   4.053   3.326  13.133  0.6026  0.0459 -1.9753
18641TIP3    H277415   3.908   3.294  13.103 -0.4024  0.0696  2.2786
18642TIP3   OH277416   1.923   1.274  10.530  0.6940 -0.2895  0.5946
18642TIP3    H177417   1.855   1.207  10.532  0.3967  0.0087  0.5067
18642TIP3    H277418   1.893   1.341  10.591  2.1246 -1.3067  2.5394
18643TIP3   OH277419   5.075   6.719  14.265  0.6054  0.5223  0.0684
18643TIP3    H177420   5.031   6.639  14.235  1.0091 -0.4742  1.9223
18643TIP3    H277421   5.054   6.723  14.359 -0.8466  3.5798 -0.2496
18644TIP3   OH277422   3.118   3.700   3.519 -0.7043 -0.2641  0.0722
18644TIP3    H177423   3.212   3.699   3.533 -0.4642 -0.6109 -1.4712
18644TIP3    H277424   3.081   3.682   3.606  0.6517 -0.6546  0.5893
18645TIP3   OH277425   6.010   3.323   4.158  0.5413  0.2862  0.5170
18645TIP3    H177426   6.051   3.330   4.071  2.6971 -0.8680  1.3568
18645TIP3    H277427   5.917   3.315   4.140  0.6069  2.7436 -1.5590
18646TIP3   OH277428   5.058   1.168   4.181 -0.0559 -0.0472  0.2619
18646TIP3    H177429   5.025   1.106   4.117 -1.4682  0.1671  0.7341
18646TIP3    H277430   4.982   1.222   4.203 -0.0952 -1.1750  3.3449
18647TIP3   OH277431   6.061   2.792   5.635 -0.2338 -0.4003 -0.3124
18647TIP3    H177432   6.054   2.732   5.709  0.2092 -0.2226 -0.1243
18647TIP3    H277433   5.998   2.759   5.571 -0.0044 -1.0533 -0.2003
18648TIP3   OH277434   1.521   0.533   3.251  0.0547 -0.2229  0.2920
18648TIP3    H177435   1.499   0.466   3.186  0.8355  0.6215 -0.8855
18648TIP3    H277436   1.445   0.592   3.251  0.8489  0.8934 -1.3937
18649TIP3   OH277437   6.268   5.773  11.240 -0.2377  0.2121  0.6985
18649TIP3    H177438   6.363   5.759  11.240 -0.2575  0.0296  1.6223
18649TIP3    H277439   6.232   5.691  11.273 -0.8486 -0.4276 -1.4316
18650TIP3   OH277440   2.197   5.760  13.596  0.1662  0.0746  0.1735
18650TIP3    H177441   2.215   5.707  13.518 -0.1289 -0.0035  0.1577
18650TIP3    H277442   2.279   5.806  13.613 -0.3871  1.8282 -1.5225
18651TIP3   OH277443   0.055   3.152  11.563  0.0754  0.0763  0.0531
18651TIP3    H177444   0.149   3.146  11.542 -0.1013  1.2301 -1.1850
18651TIP3    H277445   0.023   3.223  11.508 -1.6467 -0.6192  0.1106
18652TIP3   OH277446   4.063   3.799  14.229 -1.0160 -0.3977  0.0630
18652TIP3    H177447   4.100   3.775  14.314 -2.3854  0.9877  1.1200
18652TIP3    H277448   4.095   3.888  14.213 -0.5722 -0.7386 -1.0094
18653TIP3   OH277449   4.105   6.505   2.433 -0.0723 -0.0361 -0.3669
18653TIP3    H177450   4.060   6.448   2.370 -0.8331 -0.6588  0.7093
18653TIP3    H277451   4.194   6.471   2.436  0.6265  1.3618 -2.7115
18654TIP3   OH277452   2.110   2.732   5.724  0.5473 -0.6385  0.3735
18654TIP3    H177453   2.182   2.780   5.764 -0.1452 -0.5211  1.5212
18654TIP3    H277454   2.035   2.748   5.781 -0.2626 -1.2080 -0.4898
18655TIP3   OH277455   3.670   2.935   4.079  0.5925  0.8592  0.4079
18655TIP3    H177456   3.645   3.016   4.123 -1.3079  0.0371  0.9030
18655TIP3    H277457   3.652   2.866   4.142  1.2342 -0.0514 -0.3752
18656TIP3   OH277458   1.003   1.812   2.257  0.2360 -0.2415 -0.0597
18656TIP3    H177459   1.021   1.737   2.199  0.2030  0.6258 -1.2328
18656TIP3    H277460   0.947   1.869   2.205 -0.6176  0.1149  1.2141
18657TIP3   OH277461   0.960   3.754   5.372  0.5210 -0.0256  0.0606
18657TIP3    H177462   0.984   3.678   5.425 -0.9788  0.6813  1.8684
18657TIP3    H277463   0.864   3.752   5.371  0.5004  1.1377 -0.9209
18658TIP3   OH277464   3.492   2.631   5.650 -0.1786  0.6392 -0.3663
18658TIP3    H177465   3.549   2.703   5.673 -1.4739  1.7571 -0.5356
18658TIP3    H277466   3.405   2.670   5.642 -0.8918 -0.9025 -0.6304
18659TIP3   OH277467   2.336   3.593  11.847  0.6677  0.4125 -0.1831
18659TIP3    H177468   2.292   3.564  11.927  0.5000  0.4327 -0.2686
18659TIP3    H277469   2.406   3.529  11.834 -1.0601 -1.3030 -1.5961
18660TIP3   OH277470   1.544   0.303   0.825  0.6244  0.1660  0.3098
18660TIP3    H177471   1.619   0.250   0.851 -0.2281 -1.8555 -1.1002
18660TIP3    H277472   1.573   0.348   0.745  0.9259  0.8823  0.8089
18661TIP3   OH277473   0.077   0.857   2.442  0.0938 -0.4378 -0.6830
18661TIP3    H177474   0.137   0.784   2.456  1.1089  0.4924  0.0095
18661TIP3    H277475   0.051   0.884   2.530 -0.0409  0.2044 -0.9109
18662TIP3   OH277476   6.753   4.097  16.836 -0.1296 -0.0905 -0.1538
18662TIP3    H177477   6.693   4.155  16.788 -0.1918  2.3000  2.4917
18662TIP3    H277478   6.709   4.083  16.920  2.6660  1.3805  1.7263
18663TIP3   OH277479   5.715   2.072   3.796 -0.2238 -0.4387 -0.1089
18663TIP3    H177480   5.738   2.145   3.738 -0.2683  1.1132  1.7295
18663TIP3    H277481   5.799   2.044   3.833 -0.4807  0.7522  1.4846
18664TIP3   OH277482   5.938   5.466  16.516  0.2523 -0.0643 -0.5620
18664TIP3    H177483   6.028   5.495  16.529 -0.0594  0.4166  0.6518
18664TIP3    H277484   5.941   5.413  16.436  1.3807  0.9051 -1.1947
18665TIP3   OH277485   5.115   2.525  12.143  0.4320  0.1287  0.0632
18665TIP3    H177486   5.162   2.442  12.153  1.1386  0.4603 -0.4113
18665TIP3    H277487   5.090   2.528  12.051 -0.2945  0.0806  0.2547
18666TIP3   OH277488   3.647   6.612  15.918  0.2337  0.0912 -0.2751
18666TIP3    H177489   3.717   6.572  15.970 -0.7838 -1.1322  0.2072
18666TIP3    H277490   3.622   6.544  15.855 -0.7789  0.3547 -0.1735
18667TIP3   OH277491   5.677   6.414  12.184  0.2504  0.5416 -0.5260
18667TIP3    H177492   5.719   6.328  12.191  0.4271  0.4446 -2.2458
18667TIP3    H277493   5.730   6.462  12.121 -1.1460  1.0812 -1.3471
18668TIP3   OH277494   1.938   3.539   2.254 -0.0046  0.3483  0.7097
18668TIP3    H177495   2.003   3.580   2.311  0.2641  1.5022 -0.3866
18668TIP3    H277496   1.981   3.533   2.169 -0.8966 -0.0319  0.2762
18669TIP3   OH277497   4.222   3.890  11.753 -0.0606 -0.0352 -0.1505
18669TIP3    H177498   4.294   3.839  11.789 -0.8535  0.5367  2.4469
18669TIP3    H277499   4.260   3.976  11.735 -0.0294  0.2325  1.1072
18670TIP3   OH277500   5.373   4.613   3.833 -0.4350  0.7318 -0.4082
18670TIP3    H177501   5.350   4.624   3.925  0.0090  1.7653 -0.4010
18670TIP3    H277502   5.370   4.702   3.797 -0.7041  0.3259 -1.4178
18671TIP3   OH277503   5.662   5.054   5.186 -0.5504  0.3475  0.4154
18671TIP3    H177504   5.652   5.149   5.184  2.1075  0.7020 -0.4881
18671TIP3    H277505   5.604   5.022   5.116  1.4449  1.7587 -2.0586
18672TIP3   OH277506   2.880   3.623   4.514 -0.3636 -0.0879  0.1655
18672TIP3    H177507   2.901   3.631   4.607 -0.2230  0.5186  0.0901
18672TIP3    H277508   2.952   3.668   4.469 -0.5131 -0.2309 -0.2281
18673TIP3   OH277509   1.302   4.275   4.876 -0.0462 -1.0935  0.0056
18673TIP3    H177510   1.249   4.196   4.864 -0.1279 -1.0061 -0.2097
18673TIP3    H277511   1.392   4.243   4.875 -0.0150 -1.0066 -1.5700
18674TIP3   OH277512   4.221   1.043   3.494 -0.2905  0.2401  0.3982
18674TIP3    H177513   4.239   0.949   3.488 -0.5826  0.1993  0.1319
18674TIP3    H277514   4.306   1.082   3.518 -0.4349 -0.2001  1.6704
18675TIP3   OH277515   4.191   4.831  11.683  0.3323  0.1323 -0.2237
18675TIP3    H177516   4.097   4.816  11.679 -0.1051  1.7153  1.9983
18675TIP3    H277517   4.199   4.923  11.710  2.5405  0.2826 -1.2057
18676TIP3   OH277518   2.147   6.583   4.783 -0.1130 -0.2154  0.0505
18676TIP3    H177519   2.088   6.510   4.764  0.8760 -0.8605 -0.6526
18676TIP3    H277520   2.234   6.543   4.789  0.3301  0.7830  0.5377
18677TIP3   OH277521   2.875   6.274   2.751  0.1292 -0.0056  0.7982
18677TIP3    H177522   2.931   6.330   2.804  0.1287  0.6060  0.1716
18677TIP3    H277523   2.935   6.232   2.689 -0.0162  0.1611  0.5415
18678TIP3   OH277524   5.388   6.266   5.474  0.2593 -0.5103  0.2372
18678TIP3    H177525   5.454   6.316   5.425 -1.8658  2.9107  0.5574
18678TIP3    H277526   5.337   6.332   5.521 -1.3469 -3.2279  2.6772
18679TIP3   OH277527   6.418   1.731  12.970 -0.0492 -0.0005  0.1544
18679TIP3    H177528   6.403   1.745  12.877 -0.6045  1.6728  0.4548
18679TIP3    H277529   6.355   1.664  12.995 -1.4907  1.1534 -0.2513
18680TIP3   OH277530   4.119   3.420   2.517 -0.7251 -0.4984 -0.5882
18680TIP3    H177531   4.200   3.425   2.465 -0.0682 -1.6740  0.2746
18680TIP3    H277532   4.092   3.511   2.526  0.0071 -0.1451 -1.6493
18681TIP3   OH277533   3.877   5.960   5.409  0.0239  0.3873 -0.0319
18681TIP3    H177534   3.840   5.901   5.343 -1.4458 -0.1639  1.2166
18681TIP3    H277535   3.952   6.000   5.366  1.0102 -2.2598 -1.0130
18682TIP3   OH277536   0.068   5.499   0.632  0.5944  0.4988  0.2065
18682TIP3    H177537   0.161   5.491   0.651  0.6677  2.5984  1.0279
18682TIP3    H277538   0.033   5.552   0.704 -1.3479 -0.6573  0.1773
18683TIP3   OH277539   5.131   4.638  14.615 -1.5414 -0.7155  0.6751
18683TIP3    H177540   5.064   4.705  14.600  0.0186  1.3356  2.2805
18683TIP3    H277541   5.113   4.604  14.702 -0.6193 -0.2578  1.0582
18684TIP3   OH277542   0.840   6.166  14.541 -0.0885  0.1670  0.3018
18684TIP3    H177543   0.855   6.158  14.447 -0.8577  1.2292  0.0724
18684TIP3    H277544   0.749   6.196  14.549  0.2706  1.0580  1.3286
18685TIP3   OH277545   1.295   1.713  14.706  0.3565 -0.2082 -0.2186
18685TIP3    H177546   1.329   1.740  14.791 -0.0342  1.9158 -0.6963
18685TIP3    H277547   1.368   1.725  14.645 -0.2817  1.3621 -0.7076
18686TIP3   OH277548   6.641   0.662   0.706 -0.3892 -0.5375  0.2744
18686TIP3    H177549   6.664   0.592   0.767  1.5156  0.1969  0.4560
18686TIP3    H277550   6.668   0.742   0.749  0.2697  0.0680 -1.2006
18687TIP3   OH277551   0.760   5.748   4.126 -0.3589  0.3520 -0.7421
18687TIP3    H177552   0.839   5.801   4.120 -0.9512  1.2929 -0.3537
18687TIP3    H277553   0.752   5.706   4.041 -0.2911  1.4810 -1.3129
18688TIP3   OH277554   0.658   0.335  16.478 -0.4812  0.4189  0.1684
18688TIP3    H177555   0.639   0.323  16.571  2.2094  2.0454  1.0234
18688TIP3    H277556   0.572   0.349  16.438 -1.9132 -2.1826  2.0074
18689TIP3   OH277557   4.048   6.068  11.615 -0.0799 -0.0084  0.4237
18689TIP3    H177558   4.133   6.030  11.636  1.3727  2.0208 -1.2961
18689TIP3    H277559   4.023   6.116  11.694  0.0545 -1.1193  1.1558
18690TIP3   OH277560   2.995   0.187  11.404 -0.3166 -0.0010 -0.1718
18690TIP3    H177561   3.089   0.169  11.398 -0.4804 -0.6967 -0.7831
18690TIP3    H277562   2.971   0.218  11.317 -0.7803 -0.4572 -0.2076
18691TIP3   OH277563   3.341   2.802  11.886 -0.1490  0.8102 -0.6436
18691TIP3    H177564   3.279   2.803  11.814 -1.0069  0.3453  0.0768
18691TIP3    H277565   3.303   2.743  11.951 -0.7806  3.3038  1.3888
18692TIP3   OH277566   5.839   2.497  12.122 -0.2747  0.2491 -0.3676
18692TIP3    H177567   5.842   2.472  12.029  1.2921 -1.7730  0.1616
18692TIP3    H277568   5.805   2.421  12.167 -2.7324  1.8211  0.6240
18693TIP3   OH277569   0.084   6.412   2.682  0.1873  0.2726 -0.5076
18693TIP3    H177570   0.128   6.445   2.760  0.2910  1.0468 -0.8905
18693TIP3    H277571   0.153   6.404   2.616  0.3353 -1.5131 -0.2077
18694TIP3   OH277572   6.678   2.037   1.022  0.6050 -0.0608  0.3858
18694TIP3    H177573   6.680   1.968   1.088 -1.7854  1.2930  1.9995
18694TIP3    H277574   6.692   2.118   1.071 -0.4444  0.9265 -0.8775
18695TIP3   OH277575   6.455   0.591   1.813  0.2997  0.5525  0.3003
18695TIP3    H177576   6.384   0.642   1.852  1.0285  2.3437 -0.6002
18695TIP3    H277577   6.518   0.580   1.884  0.6395  1.9255  0.2429
18696TIP3   OH277578   5.826   5.696  14.242 -0.2061  0.6787  0.8445
18696TIP3    H177579   5.773   5.625  14.279  1.4406  0.1980  2.3636
18696TIP3    H277580   5.764   5.746  14.189 -2.1748  0.1170  2.4981
18697TIP3   OH277581   3.790   1.377   0.687 -0.3500  0.3331  0.1098
18697TIP3    H177582   3.701   1.376   0.650 -0.4402 -0.5057  0.3215
18697TIP3    H277583   3.800   1.465   0.722 -0.9533  0.5643 -0.2720
18698TIP3   OH277584   3.657   5.405  16.536 -0.6919  0.0106  0.2620
18698TIP3    H177585   3.734   5.367  16.579 -0.6574  0.2443  0.4086
18698TIP3    H277586   3.599   5.428  16.609 -2.2267 -2.9054  0.0930
18699TIP3   OH277587   0.044   6.607   4.251  0.0819 -0.2410 -0.9175
18699TIP3    H177588  -0.038   6.560   4.265 -0.5391  1.2100  0.5666
18699TIP3    H277589   0.099   6.584   4.325  0.0765  0.6833 -0.6057
18700TIP3   OH277590   3.849   1.727   1.607 -0.3581 -0.0002  0.8729
18700TIP3    H177591   3.840   1.717   1.513 -1.0220  2.5271  0.5988
18700TIP3    H277592   3.916   1.795   1.618 -0.5975  0.0605  2.1966
18701TIP3   OH277593   4.614   5.055   1.437 -0.0817  0.4047  0.7758
18701TIP3    H177594   4.650   5.140   1.414  1.6521 -0.1605  1.2849
18701TIP3    H277595   4.605   5.009   1.353  0.6729  0.4662  0.6531
18702TIP3   OH277596   3.014   2.475  13.530 -0.6623 -0.2938 -0.6445
18702TIP3    H177597   2.920   2.484  13.544 -0.3124  1.7620  0.8378
18702TIP3    H277598   3.042   2.408  13.592 -0.9580  0.0461 -0.1413
18703TIP3   OH277599   4.698   2.427  13.327 -0.3917  0.7707 -0.2478
18703TIP3    H177600   4.737   2.511  13.352 -1.5939  1.1454  0.4759
18703TIP3    H277601   4.770   2.376  13.290  0.9943  1.0891  1.8526
18704TIP3   OH277602   5.637   4.873  11.553  0.3178  0.3150 -0.4130
18704TIP3    H177603   5.612   4.782  11.572  0.4070  0.5887  1.1809
18704TIP3    H277604   5.562   4.908  11.504 -1.2054  0.2527  1.7021
18705TIP3   OH277605   3.218   1.065   1.591  0.0961  0.3614  0.2511
18705TIP3    H177606   3.150   1.038   1.529 -0.2980  0.6353  0.5645
18705TIP3    H277607   3.261   1.140   1.549  0.0958  0.2929  0.1283
18706TIP3   OH277608   4.505   5.760   6.137  0.1389  0.0191 -0.1424
18706TIP3    H177609   4.573   5.693   6.137 -0.9412 -1.1191  0.8163
18706TIP3    H277610   4.501   5.791   6.227 -0.6216  0.0565 -0.1841
18707TIP3   OH277611   3.073   5.038  17.245  0.0155  0.5012 -0.4070
18707TIP3    H177612   3.108   5.108  17.191 -1.0821  0.9140 -0.6104
18707TIP3    H277613   3.071   5.074  17.334 -0.3270  0.6433 -0.4723
18708TIP3   OH277614   4.577   2.713  16.510 -0.0579  0.1311 -0.4767
18708TIP3    H177615   4.651   2.654  16.494  0.9946  1.8303 -2.3915
18708TIP3    H277616   4.499   2.659  16.493  0.6769 -1.5944  1.2446
18709TIP3   OH277617   3.437   3.083  11.758  0.2448  0.0676  0.1977
18709TIP3    H177618   3.341   3.084  11.763  0.2430  1.6395  0.2523
18709TIP3    H277619   3.460   2.993  11.779 -1.1973 -0.1833  0.8783
18710TIP3   OH277620   6.206   5.254  15.900 -0.5444  0.1432  0.3563
18710TIP3    H177621   6.139   5.196  15.862 -0.9981  1.4364 -0.9294
18710TIP3    H277622   6.206   5.233  15.993 -1.7607 -0.8707  0.1582
18711TIP3   OH277623   0.739   5.423  12.494 -0.9184  0.2604  0.5526
18711TIP3    H177624   0.663   5.403  12.549 -2.1185 -0.6588 -1.3350
18711TIP3    H277625   0.808   5.365  12.527 -2.0256 -1.2961  0.2491
18712TIP3   OH277626   4.791   4.502  16.814  0.3107  0.1509  0.3079
18712TIP3    H177627   4.755   4.456  16.738  1.5428 -0.0419 -0.1828
18712TIP3    H277628   4.836   4.435  16.865  0.4232  0.4621  0.6290
18713TIP3   OH277629   6.254   6.543  15.386  0.2964  0.2978  0.9336
18713TIP3    H177630   6.246   6.505  15.299  2.3566  1.2290  0.2682
18713TIP3    H277631   6.333   6.503  15.422 -0.8614 -0.5519  2.6821
18714TIP3   OH277632   2.161   2.540  13.343  0.2560 -0.1465 -0.2777
18714TIP3    H177633   2.093   2.474  13.337  0.4921 -0.3522 -0.7074
18714TIP3    H277634   2.215   2.527  13.266  1.0682 -0.2956  0.3018
18715TIP3   OH277635   3.741   0.030   0.468 -0.6645  0.0575  0.2017
18715TIP3    H177636   3.657  -0.007   0.441 -0.7690  0.4739 -0.0574
18715TIP3    H277637   3.805  -0.017   0.414 -0.4344 -2.1986  2.2779
18716TIP3   OH277638   2.470   4.705   3.832  0.0079  0.4396  0.1790
18716TIP3    H177639   2.465   4.792   3.871 -0.3395  1.3434 -1.7591
18716TIP3    H277640   2.415   4.650   3.888 -1.0375  1.8193  0.5476
18717TIP3   OH277641   5.185   3.836   4.816 -0.0403  0.5201 -0.3488
18717TIP3    H177642   5.177   3.742   4.830 -1.0917  0.5112 -0.8901
18717TIP3    H277643   5.101   3.862   4.779 -0.4703  1.9947  1.4761
18718TIP3   OH277644   3.987   4.318  16.841 -0.1544 -0.2284 -0.4653
18718TIP3    H177645   3.986   4.325  16.745 -3.0563 -2.4100 -0.7633
18718TIP3    H277646   3.994   4.224  16.858 -2.8743 -0.2468  1.2513
18719TIP3   OH277647   4.001   6.242  11.810 -0.6631  0.3625 -0.6523
18719TIP3    H177648   3.992   6.337  11.818  3.6199  0.8654  0.8154
18719TIP3    H277649   4.080   6.221  11.861 -2.3106 -4.2547  0.4694
18720TIP3   OH277650   2.833   5.043   2.712  0.3024  0.3069  0.6560
18720TIP3    H177651   2.830   4.967   2.770 -0.3128 -1.7459 -1.8554
18720TIP3    H277652   2.746   5.046   2.671  0.2356  2.5457  0.8310
18721TIP3   OH277653   5.733   3.485  12.769  0.5073  0.1784  0.7075
18721TIP3    H177654   5.695   3.487  12.681 -0.1101 -0.8732  0.9324
18721TIP3    H277655   5.785   3.565  12.775 -0.2958  0.7888 -0.2334
18722TIP3   OH277656   3.578   4.028   2.916  0.4541 -0.3154 -0.8661
18722TIP3    H177657   3.524   4.100   2.884  0.9482  0.0326 -0.9126
18722TIP3    H277658   3.643   4.069   2.973  1.4403 -0.5799 -1.7714
18723TIP3   OH277659   4.819   1.530   4.102 -0.2542  0.4047 -0.2620
18723TIP3    H177660   4.778   1.473   4.036  0.7596 -1.4067  0.5774
18723TIP3    H277661   4.804   1.484   4.185  1.8497  0.5983  0.2831
18724TIP3   OH277662   3.869   2.430   0.993  0.4883  0.2902 -0.3869
18724TIP3    H177663   3.914   2.421   0.909  0.0693 -0.1506 -0.5707
18724TIP3    H277664   3.833   2.519   0.992 -1.7440 -0.5427 -1.8114
18725TIP3   OH277665   1.939   1.442   1.660 -0.1398 -0.1736 -0.0626
18725TIP3    H177666   1.887   1.368   1.628  1.9476 -2.1000  0.7051
18725TIP3    H277667   1.876   1.512   1.672 -2.4556 -2.1775  0.3214
18726TIP3   OH277668   4.692   4.151   5.597 -0.2234 -0.0422  0.3342
18726TIP3    H177669   4.640   4.228   5.619 -0.1695  0.3483 -0.8646
18726TIP3    H277670   4.781   4.185   5.585 -0.4354 -0.0638 -1.4673
18727TIP3   OH277671   0.822   6.187   5.405  0.0877  0.2141  0.3708
18727TIP3    H177672   0.850   6.278   5.413 -1.7147  0.7643  0.8865
18727TIP3    H277673   0.893   6.144   5.358  0.4268  2.1576 -1.0041
18728TIP3   OH277674   2.093   0.689   3.446  0.5278  0.3155  0.4065
18728TIP3    H177675   2.053   0.660   3.528  0.5153  2.4090  1.2276
18728TIP3    H277676   2.186   0.694   3.466  0.4463  1.5621  0.5936
18729TIP3   OH277677   0.621   6.785   3.507  0.2083 -0.0244  0.1675
18729TIP3    H177678   0.554   6.744   3.453  1.2025 -2.2510  0.5066
18729TIP3    H277679   0.693   6.803   3.446  1.0288 -1.8356  0.5301
18730TIP3   OH277680   4.779   4.148  15.490 -0.5346  0.2797  0.6460
18730TIP3    H177681   4.734   4.089  15.551 -0.9930  0.0466  0.0902
18730TIP3    H277682   4.711   4.174  15.427 -0.1720  0.8649  0.4862
18731TIP3   OH277683   5.278   3.109  12.245 -0.0707 -0.5205  0.0278
18731TIP3    H177684   5.340   3.148  12.306 -0.1697 -1.2732  0.6260
18731TIP3    H277685   5.204   3.170  12.244  0.5323  0.2057 -0.4280
18732TIP3   OH277686   5.866   4.787   2.121  0.3325  0.2160  0.2480
18732TIP3    H177687   5.953   4.752   2.138  0.8165  0.5407 -1.3594
18732TIP3    H277688   5.882   4.877   2.091 -0.7712  1.3658  2.7612
18733TIP3   OH277689   6.764   6.644   0.367  0.0063 -0.2453  0.4521
18733TIP3    H177690   6.733   6.570   0.419 -0.3534 -0.2056  0.3004
18733TIP3    H277691   6.725   6.721   0.410  2.2908  0.1135  2.0627
18734TIP3   OH277692   1.734   3.460   2.099  0.0337 -0.1588 -0.6192
18734TIP3    H177693   1.754   3.519   2.027  1.3342 -0.5700 -0.6250
18734TIP3    H277694   1.801   3.479   2.165  0.4383 -1.5598 -0.5944
18735TIP3   OH277695   3.698   3.092  11.363  0.1207  0.4492  0.5005
18735TIP3    H177696   3.740   3.045  11.291 -1.9318 -0.8470  0.0478
18735TIP3    H277697   3.639   3.154  11.320 -0.0679  0.6747  1.0786
18736TIP3   OH277698   3.134   2.179  15.249 -0.4373 -0.0509  0.3571
18736TIP3    H177699   3.122   2.092  15.287  0.8524 -0.4574 -0.1292
18736TIP3    H277700   3.149   2.162  15.156  1.0198  0.5906  0.4594
18737TIP3   OH277701   6.394   2.623   3.188 -0.3510  0.0872  0.1643
18737TIP3    H177702   6.360   2.563   3.121 -1.7159 -0.0419  0.9496
18737TIP3    H277703   6.352   2.706   3.168 -0.4331  0.1513  0.5969
18738TIP3   OH277704   3.776   0.328  12.573 -0.1795  0.0699  0.8873
18738TIP3    H177705   3.852   0.305  12.627  1.4366 -0.2557 -1.3700
18738TIP3    H277706   3.702   0.285  12.615  1.3935 -2.2019  1.5122
18739TIP3   OH277707   4.920   1.522   5.054  0.0269 -0.0083  0.1072
18739TIP3    H177708   4.899   1.607   5.016  2.3631 -0.0203 -1.3484
18739TIP3    H277709   4.861   1.460   5.010  0.2493  0.4740 -0.8785
18740TIP3   OH277710   1.159   5.168   6.013  0.3100  0.6065  0.3705
18740TIP3    H177711   1.245   5.202   6.038  0.5589  0.6447 -0.5257
18740TIP3    H277712   1.105   5.245   6.001  0.5746  0.6491 -0.5802
18741TIP3   OH277713   6.308   6.549   1.550  0.1731 -0.0144 -0.2342
18741TIP3    H177714   6.261   6.467   1.561  3.5947 -2.0742  0.5722
18741TIP3    H277715   6.332   6.575   1.639  1.2795  0.4583 -0.6493
18742TIP3   OH277716   5.623   2.148   4.823 -0.6883  0.2181  0.1815
18742TIP3    H177717   5.709   2.175   4.854  0.0984 -1.5643 -0.3128
18742TIP3    H277718   5.586   2.226   4.781  1.2527  0.6736 -0.7711
18743TIP3   OH277719   2.538   0.261  15.697 -0.6054  0.3021 -0.2964
18743TIP3    H177720   2.468   0.195  15.692 -0.3216 -0.0714  0.4362
18743TIP3    H277721   2.580   0.244  15.781 -1.0562  1.9694  0.3053
18744TIP3   OH277722   6.033   2.138   3.595  0.1340 -0.0428  0.0715
18744TIP3    H177723   6.016   2.049   3.624  2.0468 -0.1885  0.8899
18744TIP3    H277724   5.958   2.189   3.629  0.2021 -0.9427  1.6496
18745TIP3   OH277725   4.771   5.390  12.245  0.0406 -0.3030  0.0970
18745TIP3    H177726   4.757   5.298  12.223 -1.3104 -0.4911  1.5652
18745TIP3    H277727   4.699   5.436  12.201  1.8345  0.3698 -2.3017
18746TIP3   OH277728   5.252   1.384   1.937 -0.2247 -0.3306 -0.0436
18746TIP3    H177729   5.158   1.362   1.939 -0.5657  1.0569  0.9572
18746TIP3    H277730   5.268   1.428   2.021  0.9663  0.8349 -0.8387
18747TIP3   OH277731   4.672   4.971  17.262  0.2390 -0.1637  0.1804
18747TIP3    H177732   4.717   4.946  17.181 -1.8378  0.5636 -1.3049
18747TIP3    H277733   4.718   5.049  17.292  1.4902 -0.8626  0.1313
18748TIP3   OH277734   3.553   1.516  15.663  0.0400  1.2506 -0.5858
18748TIP3    H177735   3.560   1.424  15.692  1.2981  0.6580 -2.5395
18748TIP3    H277736   3.641   1.551  15.677 -0.2291  1.9232 -0.5821
18749TIP3   OH277737   6.046   6.127  17.110 -0.1663  0.8809  0.3881
18749TIP3    H177738   6.002   6.126  17.025  2.0377  1.4272 -0.8254
18749TIP3    H277739   5.975   6.112  17.173 -1.6519 -1.2330 -1.5932
18750TIP3   OH277740   5.056   4.324  15.349 -0.5246  0.6358  0.2433
18750TIP3    H177741   5.150   4.335  15.366 -0.4643  1.4157 -0.5515
18750TIP3    H277742   5.029   4.256  15.412  0.2899  1.3430  1.4134
18751TIP3   OH277743   5.606   2.525   4.138 -0.4124 -0.0534 -0.0553
18751TIP3    H177744   5.606   2.438   4.179  1.6632 -0.2622 -0.3740
18751TIP3    H277745   5.588   2.508   4.046  0.4664 -0.2231 -0.2051
18752TIP3   OH277746   3.822   0.348  13.581  0.6983 -0.2184  0.0171
18752TIP3    H177747   3.891   0.406  13.549 -0.5554 -0.5435 -3.8144
18752TIP3    H277748   3.785   0.394  13.656  2.5931  1.7841 -0.1677
18753TIP3   OH277749   5.598   2.633   0.825 -0.1714  0.0661 -0.5103
18753TIP3    H177750   5.563   2.722   0.832  2.5427  1.2955 -1.0416
18753TIP3    H277751   5.562   2.587   0.901  0.2158  2.3855  1.2062
18754TIP3   OH277752   6.460   4.183   4.251 -0.3074 -0.2329  0.2533
18754TIP3    H177753   6.505   4.116   4.302  0.7582 -0.8914 -1.4800
18754TIP3    H277754   6.485   4.166   4.160  1.5711  3.6259 -0.1502
18755TIP3   OH277755   0.387   4.079   0.194  0.3419 -0.1896  0.0948
18755TIP3    H177756   0.417   4.098   0.283  1.8606 -2.4869  0.1433
18755TIP3    H277757   0.367   3.986   0.195 -0.7470 -0.0179 -1.6941
18756TIP3   OH277758   6.452   5.572   4.351 -0.2834 -0.3441 -0.2183
18756TIP3    H177759   6.511   5.647   4.351 -0.5841 -0.1013 -0.6977
18756TIP3    H277760   6.421   5.564   4.441  0.1353 -0.2010 -0.0623
18757TIP3   OH277761   2.887   0.596  16.383 -0.0935 -0.4282  0.1642
18757TIP3    H177762   2.927   0.515  16.415 -0.6043 -1.3071 -1.3085
18757TIP3    H277763   2.799   0.570  16.355 -0.8474  0.9783  1.1026
18758TIP3   OH277764   5.568   5.909  15.432  0.4873 -0.6507 -0.4549
18758TIP3    H177765   5.634   5.977  15.441  0.0735 -0.1436 -1.1619
18758TIP3    H277766   5.617   5.833  15.400  0.9662 -0.7232  0.4356
18759TIP3   OH277767   5.401   3.541   2.825 -0.2644  0.0032  0.0602
18759TIP3    H177768   5.384   3.516   2.734 -0.6406 -0.4884  0.2612
18759TIP3    H277769   5.496   3.545   2.831 -0.1892  2.9432 -1.1349
18760TIP3   OH277770   6.279   1.029   5.820 -0.4436  0.6146  0.2304
18760TIP3    H177771   6.279   1.087   5.744 -0.7151  1.0080  0.5290
18760TIP3    H277772   6.360   0.979   5.812 -0.0895  1.2031  0.0965
18761TIP3   OH277773   2.518   0.840   3.864 -0.0468  0.2815 -0.2381
18761TIP3    H177774   2.514   0.921   3.812 -0.7715  0.0264 -0.5808
18761TIP3    H277775   2.504   0.869   3.954 -2.0164  0.3693 -0.5252
18762TIP3   OH277776   0.395   4.114   0.915  0.2209 -0.6188  0.2318
18762TIP3    H177777   0.417   4.030   0.955 -0.1883 -1.2701 -0.8590
18762TIP3    H277778   0.431   4.179   0.974  1.7067 -1.5773  0.4392
18763TIP3   OH277779   3.506   5.447  14.052  0.3397  0.1145  0.0960
18763TIP3    H177780   3.599   5.435  14.033  1.0972  1.5790  2.5470
18763TIP3    H277781   3.494   5.542  14.055 -1.4805 -0.0230 -1.0528
18764TIP3   OH277782   3.113   4.703  14.851  0.1376 -0.1860 -0.0941
18764TIP3    H177783   3.060   4.769  14.897  1.5546  1.0857 -0.2168
18764TIP3    H277784   3.168   4.754  14.791  0.6462 -1.5676 -0.8471
18765TIP3   OH277785   1.053   3.853   1.950  0.4027 -0.1152  0.0572
18765TIP3    H177786   1.080   3.778   2.003  0.5931  0.0800  0.2383
18765TIP3    H277787   1.091   3.836   1.864 -0.9000 -1.0257 -0.3667
18766TIP3   OH277788   4.233   3.159   0.856 -0.0879 -0.9402  0.2427
18766TIP3    H177789   4.294   3.122   0.920  1.4926  0.8112 -0.1443
18766TIP3    H277790   4.191   3.231   0.902  0.5864 -0.0794 -0.4449
18767TIP3   OH277791   2.071   5.303   0.228  0.1037  0.3087 -0.3649
18767TIP3    H177792   2.115   5.269   0.305 -0.7180 -0.4139 -0.2037
18767TIP3    H277793   2.140   5.348   0.179  0.5903  0.9445  0.8760
18768TIP3   OH277794   1.711   6.222  11.633  0.0878 -0.0930  0.1973
18768TIP3    H177795   1.773   6.187  11.697 -0.1540 -1.1407 -0.1311
18768TIP3    H277796   1.625   6.201  11.669 -0.0693  0.4768  0.1625
18769TIP3   OH277797   5.615   6.758   2.328 -0.4708  0.5726 -0.3729
18769TIP3    H177798   5.660   6.697   2.387  1.9048  0.0518 -2.5314
18769TIP3    H277799   5.618   6.842   2.374  2.5787  0.4899 -0.2082
18770TIP3   OH277800   6.131   2.773  12.983 -0.3003  0.2318  0.0491
18770TIP3    H177801   6.071   2.846  12.997 -1.5973 -0.8836  0.5682
18770TIP3    H277802   6.208   2.795  13.035  0.3144  2.2761 -1.6088
18771TIP3   OH277803   2.738   6.459  16.831  0.5982 -0.0732  0.3547
18771TIP3    H177804   2.748   6.364  16.827  1.4605  0.0519 -0.7815
18771TIP3    H277805   2.762   6.482  16.921 -1.3258 -1.0899  1.1889
18772TIP3   OH277806   4.390   0.191  15.885  0.4363 -0.2206 -0.1776
18772TIP3    H177807   4.304   0.150  15.900  0.5761 -0.4786 -0.0664
18772TIP3    H277808   4.453   0.120  15.899  0.6915  0.0639  0.1385
18773TIP3   OH277809   4.989   5.643   1.585  0.0594  0.7240  0.2437
18773TIP3    H177810   4.963   5.671   1.672  0.9995 -0.0230  0.7794
18773TIP3    H277811   4.935   5.566   1.567 -0.3585  1.0629  0.0256
18774TIP3   OH277812   6.379   4.014   4.867  0.5545 -0.3026  0.5017
18774TIP3    H177813   6.328   3.941   4.902 -0.0869 -0.5042 -0.7878
18774TIP3    H277814   6.438   4.038   4.938 -0.2413 -1.1083  1.4693
18775TIP3   OH277815   3.331   4.570  12.299  0.2687  0.2283  0.6695
18775TIP3    H177816   3.307   4.661  12.314  0.6978  0.2343  1.3658
18775TIP3    H277817   3.334   4.531  12.386  0.5377 -0.3334  0.4159
18776TIP3   OH277818   1.214   1.865  12.444 -0.5596  0.5105 -0.1479
18776TIP3    H177819   1.230   1.812  12.366  0.8527  0.1077  0.3735
18776TIP3    H277820   1.171   1.944  12.412 -2.9087 -0.9893 -0.9292
18777TIP3   OH277821   4.312   4.356   2.836  0.1085  0.4651 -0.2424
18777TIP3    H177822   4.219   4.375   2.826 -0.2324 -0.8614  0.2485
18777TIP3    H277823   4.355   4.414   2.772 -0.9803  1.5647 -0.0212
18778TIP3   OH277824   2.912   2.033   4.343  0.1511 -0.1366  0.1157
18778TIP3    H177825   2.896   1.946   4.382 -0.4352 -0.8606 -1.6375
18778TIP3    H277826   2.952   2.014   4.258  2.2842  1.4219  0.6798
18779TIP3   OH277827   6.189   1.894   6.162 -0.0273  0.0146 -0.8464
18779TIP3    H177828   6.197   1.812   6.113 -0.8837  1.0682 -2.8484
18779TIP3    H277829   6.276   1.908   6.200  0.3657 -1.3681 -1.1872
18780TIP3   OH277830   0.156   1.330   0.669 -0.4407 -0.7213 -0.5233
18780TIP3    H177831   0.160   1.349   0.575  2.0352 -1.3987 -0.6367
18780TIP3    H277832   0.219   1.259   0.681  1.0859  0.9137  1.9544
18781TIP3   OH277833   3.019   4.997   3.397  0.5416  0.3775  0.5274
18781TIP3    H177834   3.043   5.000   3.305  1.2142 -1.7254  0.5768
18781TIP3    H277835   3.081   5.055   3.441 -0.6923  2.5584 -0.4536
18782TIP3   OH277836   0.425   3.952  11.864  0.5650 -0.1802 -0.3594
18782TIP3    H177837   0.476   3.880  11.828  1.0821  0.3841 -0.7758
18782TIP3    H277838   0.354   3.965  11.801  0.6764 -0.0965 -0.4679
18783TIP3   OH277839   0.247   6.181  12.609  0.0068 -0.1880 -0.1687
18783TIP3    H177840   0.209   6.152  12.691 -0.0753  1.5275  0.4358
18783TIP3    H277841   0.329   6.132  12.602  0.5997  0.4806  1.5477
18784TIP3   OH277842   6.078   0.999  16.538 -0.3245  0.0348  0.4149
18784TIP3    H177843   6.069   0.953  16.622 -0.0298 -0.6009  0.1028
18784TIP3    H277844   6.064   0.931  16.472 -2.1176  0.8365 -0.0722
18785TIP3   OH277845   3.496   6.353  12.732  0.1866 -0.2925 -0.4821
18785TIP3    H177846   3.569   6.411  12.753  0.9188 -1.2882 -0.1850
18785TIP3    H277847   3.532   6.265  12.741 -1.0767 -0.8107 -0.2352
18786TIP3   OH277848   0.650   2.370   2.532 -0.1632 -0.0409 -0.2705
18786TIP3    H177849   0.564   2.412   2.534 -0.3322 -0.3283 -0.9204
18786TIP3    H277850   0.710   2.439   2.504 -0.4282 -0.1927 -1.2614
18787TIP3   OH277851   3.611   1.413   1.985 -0.5107 -0.2242 -0.4087
18787TIP3    H177852   3.666   1.445   1.913 -0.4510 -1.1487 -0.7930
18787TIP3    H277853   3.666   1.347   2.029 -1.3820 -1.3423 -0.9501
18788TIP3   OH277854   1.708   2.378  14.710 -0.4864  0.4808 -0.4789
18788TIP3    H177855   1.614   2.391  14.714 -0.4733  0.4489  0.0171
18788TIP3    H277856   1.737   2.430  14.634 -1.0288 -0.3462 -1.2691
18789TIP3   OH277857   2.965   4.235   3.209 -0.0892  0.4656 -0.3817
18789TIP3    H177858   2.877   4.217   3.244  0.0738  1.6127  0.6777
18789TIP3    H277859   2.955   4.313   3.155 -0.0110 -0.3562 -1.6391
18790TIP3   OH277860   3.741   5.922   4.005 -0.3914  0.2952 -0.4561
18790TIP3    H177861   3.837   5.917   4.009 -0.4789 -1.5462  0.4539
18790TIP3    H277862   3.718   5.881   3.922 -0.4275 -0.3441 -0.1365
18791TIP3   OH277863   4.775   2.518  16.874  0.4769  0.5061  0.4671
18791TIP3    H177864   4.811   2.551  16.956 -1.6228  0.1737  1.5909
18791TIP3    H277865   4.736   2.594  16.831  0.5073  0.4626  0.3603
18792TIP3   OH277866   6.703   0.445   1.553  0.0948  1.1731  0.2799
18792TIP3    H177867   6.620   0.491   1.535 -1.0691 -0.7144  0.5642
18792TIP3    H277868   6.733   0.415   1.467 -1.8285 -1.8088  0.4934
18793TIP3   OH277869   1.309   1.021   0.018 -0.5598 -0.0259  0.0770
18793TIP3    H177870   1.321   1.075  -0.061  1.9091  0.1204  0.4657
18793TIP3    H277871   1.390   1.035   0.068 -1.2345 -1.6573  1.7040
18794TIP3   OH277872   0.644   2.356   0.685  0.0480 -0.6425  0.4832
18794TIP3    H177873   0.699   2.423   0.644 -0.5773  0.9178  2.0435
18794TIP3    H277874   0.560   2.361   0.638 -0.9607  1.7400  2.3074
18795TIP3   OH277875   3.232   5.067   5.837 -0.5832  0.0304  0.4913
18795TIP3    H177876   3.153   5.030   5.876 -2.0936  3.2094  0.8207
18795TIP3    H277877   3.239   5.024   5.752 -1.9844 -1.1802  0.9418
18796TIP3   OH277878   4.642   1.421   3.883 -0.0836  0.3184 -0.1761
18796TIP3    H177879   4.676   1.462   3.803  0.9886 -3.1943 -1.6905
18796TIP3    H277880   4.596   1.343   3.853  0.0853 -0.9799  2.6122
18797TIP3   OH277881   0.489   3.129  12.821  0.0871  0.4074 -0.3385
18797TIP3    H177882   0.568   3.140  12.767 -0.2429  1.2932 -0.6705
18797TIP3    H277883   0.417   3.151  12.761 -0.4123 -0.3450 -0.0250
18798TIP3   OH277884   4.065   1.272  13.775  0.1884 -1.1368 -0.3718
18798TIP3    H177885   4.066   1.183  13.741  1.1432 -1.4036  0.3458
18798TIP3    H277886   4.035   1.264  13.865 -0.1370 -0.6793 -0.4338
18799TIP3   OH277887   1.651   4.896   0.216 -0.1260 -0.2820 -0.1293
18799TIP3    H177888   1.634   4.893   0.310 -1.9641 -0.7732 -0.4368
18799TIP3    H277889   1.702   4.976   0.203  0.0838 -0.1681  1.2608
18800TIP3   OH277890   3.213   6.436   1.829 -0.3348 -0.1436 -0.1128
18800TIP3    H177891   3.165   6.357   1.804 -0.5330 -0.0980  0.1193
18800TIP3    H277892   3.281   6.405   1.888 -1.4602  0.0583  1.3245
18801TIP3   OH277893   5.422   5.191   2.654  0.0447 -0.3886  0.3468
18801TIP3    H177894   5.381   5.278   2.654 -0.2918 -0.5383 -0.0722
18801TIP3    H277895   5.366   5.138   2.711 -0.3792 -0.6017 -0.2524
18802TIP3   OH277896   4.756   0.385  11.779  0.0429 -0.2351 -0.3665
18802TIP3    H177897   4.808   0.325  11.726 -2.4596 -1.7124 -1.3580
18802TIP3    H277898   4.697   0.428  11.717  0.6945  2.1608  0.5541
18803TIP3   OH277899   2.444   2.476   1.060  0.2206  0.3434  0.0625
18803TIP3    H177900   2.393   2.557   1.067  0.8348  0.8365 -0.8919
18803TIP3    H277901   2.477   2.477   0.970 -3.3077 -3.0973 -1.5662
18804TIP3   OH277902   2.538   4.756  14.859 -0.2401  0.4800 -0.3369
18804TIP3    H177903   2.525   4.817  14.932 -1.7317 -1.0250  0.7402
18804TIP3    H277904   2.456   4.760  14.810 -0.3659 -0.6412 -0.2444
18805TIP3   OH277905   2.483   4.237  15.475  0.0424  0.8680  0.2688
18805TIP3    H177906   2.485   4.221  15.569 -0.5124  1.3181  0.3583
18805TIP3    H277907   2.566   4.201  15.443  0.6328  1.5213  1.0483
18806TIP3   OH277908   2.972   2.466   1.155 -0.1151  0.2762 -0.3877
18806TIP3    H177909   2.926   2.397   1.108 -0.0313 -0.3054  0.3596
18806TIP3    H277910   2.903   2.514   1.201  0.0025 -0.7988  0.9981
18807TIP3   OH277911   6.478   1.757   4.070 -0.1054  0.4349  0.1499
18807TIP3    H177912   6.487   1.762   3.975  1.5656  0.2495  0.2739
18807TIP3    H277913   6.389   1.723   4.084 -0.6379  1.1638 -1.3075
18808TIP3   OH277914   3.686   5.179   0.136  0.2961  0.1002  0.5108
18808TIP3    H177915   3.724   5.102   0.177 -0.5432  0.2836  1.6742
18808TIP3    H277916   3.647   5.146   0.055  0.8449 -0.4937  0.4786
18809TIP3   OH277917   3.034   6.729  12.254  0.0874  0.3326  0.4344
18809TIP3    H177918   3.023   6.642  12.216  0.2233  0.4457  0.1383
18809TIP3    H277919   2.946   6.754  12.283 -0.6138  1.4328 -2.3514
18810TIP3   OH277920   3.047   3.927   2.721  0.1217  0.1831  0.1427
18810TIP3    H177921   3.124   3.925   2.778 -0.5147 -0.0935  1.0035
18810TIP3    H277922   3.082   3.911   2.633  1.1681  1.0315  0.3868
18811TIP3   OH277923   4.958   4.482  14.851  0.6551 -0.1083  0.1201
18811TIP3    H177924   4.921   4.492  14.938  1.8412 -3.5828  1.2212
18811TIP3    H277925   4.882   4.466  14.794 -0.0014  0.0378  0.9439
18812TIP3   OH277926   6.506   3.554   4.786  0.0890 -0.2445 -0.0787
18812TIP3    H177927   6.431   3.523   4.736 -1.8528  0.7328  2.0595
18812TIP3    H277928   6.533   3.635   4.741 -0.4014 -0.3640 -0.6030
18813TIP3   OH277929   5.032   0.771  16.202  0.2663  0.1799 -0.0961
18813TIP3    H177930   5.102   0.728  16.153 -0.7073 -1.5478 -0.0357
18813TIP3    H277931   4.971   0.802  16.135 -0.1532 -0.5541 -0.0593
18814TIP3   OH277932   1.073   4.499  11.388  0.4610  0.2612 -0.5163
18814TIP3    H177933   1.135   4.457  11.447 -0.4961 -2.1923 -1.1292
18814TIP3    H277934   1.029   4.565  11.442 -0.5889 -2.0691  1.6648
18815TIP3   OH277935   2.350   0.091  15.418  0.3224 -0.2572  0.0981
18815TIP3    H177936   2.305   0.151  15.358  1.8883  0.9736  0.0982
18815TIP3    H277937   2.382   0.148  15.489 -1.1986 -1.6282  1.9705
18816TIP3   OH277938   6.746   5.739   4.594  0.0847 -0.2258  0.6657
18816TIP3    H177939   6.701   5.744   4.510  2.2822  0.0235 -0.5926
18816TIP3    H277940   6.828   5.787   4.580  0.2768  0.3261  3.1473
18817TIP3   OH277941   3.812   6.054  13.279  0.0510 -0.0186  0.3345
18817TIP3    H177942   3.872   6.110  13.329 -0.6775  0.2777  0.9084
18817TIP3    H277943   3.865   5.979  13.252  0.3575 -0.4605  2.0287
18818TIP3   OH277944   4.950   6.052  13.208 -0.1124  0.1697  0.0139
18818TIP3    H177945   4.881   6.101  13.252 -0.8878 -1.2987  0.5209
18818TIP3    H277946   4.986   5.994  13.276 -0.4100 -1.1755 -0.9294
18819TIP3   OH277947   4.427   6.249  14.418  0.2484  0.3050 -0.4033
18819TIP3    H177948   4.362   6.258  14.488  0.0378  0.3203 -0.5996
18819TIP3    H277949   4.511   6.266  14.461  0.0492  1.1934 -0.3323
18820TIP3   OH277950   1.260   3.395   0.345 -0.2206  0.2083 -0.7297
18820TIP3    H177951   1.214   3.434   0.271 -0.2380  0.5425 -0.5416
18820TIP3    H277952   1.321   3.332   0.305 -0.7915 -0.1896 -0.9817
18821TIP3   OH277953   1.669   0.793  12.129 -0.3443 -0.1433 -0.1380
18821TIP3    H177954   1.729   0.857  12.092 -0.3324  0.2455  0.5262
18821TIP3    H277955   1.675   0.717  12.071  1.5224 -0.4863  0.4518
18822TIP3   OH277956   1.210   4.143   0.769  0.5055  0.1283 -0.2784
18822TIP3    H177957   1.212   4.062   0.820 -3.2991  0.8845  1.4125
18822TIP3    H277958   1.145   4.127   0.701 -2.3869  2.3936  1.7023
18823TIP3   OH277959   6.512   3.448   2.633 -0.1808 -0.1775 -0.1571
18823TIP3    H177960   6.509   3.502   2.554  1.3545  0.6487  0.3049
18823TIP3    H277961   6.587   3.389   2.619 -0.2811 -0.4483  0.4056
18824TIP3   OH277962   4.341   0.547  11.706 -0.3375 -0.2448  0.5444
18824TIP3    H177963   4.294   0.561  11.788  0.3416 -0.6568  1.0093
18824TIP3    H277964   4.281   0.494  11.653 -1.2870  1.0100  0.2860
18825TIP3   OH277965   0.814   2.434   1.897  0.1797 -0.4827 -0.0208
18825TIP3    H177966   0.870   2.462   1.968  1.1745 -1.6167 -0.3171
18825TIP3    H277967   0.734   2.404   1.939  0.5523 -0.6407  0.5805
18826TIP3   OH277968   4.117   6.676   3.627 -0.1849  0.1574 -0.4679
18826TIP3    H177969   4.022   6.670   3.625 -0.2273  0.0461  0.7938
18826TIP3    H277970   4.145   6.647   3.540 -1.2317 -1.4166 -0.3170
18827TIP3   OH277971   2.210   5.293   5.534  0.5736 -0.4182 -0.1419
18827TIP3    H177972   2.215   5.274   5.628 -0.0775 -1.8080 -0.3526
18827TIP3    H277973   2.254   5.218   5.493 -0.3207 -0.5030 -0.9834
18828TIP3   OH277974   5.766   0.870   1.094  0.3519 -0.6787 -0.5995
18828TIP3    H177975   5.728   0.934   1.034 -0.0085  0.2219  0.5510
18828TIP3    H277976   5.713   0.878   1.173  0.9259 -1.7219 -0.0971
18829TIP3   OH277977   3.490   1.576   5.834  0.3786 -0.4704  0.0457
18829TIP3    H177978   3.503   1.670   5.848 -0.6818  0.1482 -2.6512
18829TIP3    H277979   3.578   1.541   5.821  0.8263  0.0015  1.5559
18830TIP3   OH277980   2.583   0.807  11.978 -0.4191 -0.4045 -0.1049
18830TIP3    H177981   2.600   0.856  12.058 -1.2493 -1.4685  0.7679
18830TIP3    H277982   2.633   0.726  11.989  2.0582  0.7571 -2.1445
18831TIP3   OH277983   4.024   6.331   0.285 -0.1008 -0.0983 -0.5977
18831TIP3    H177984   4.051   6.289   0.203  0.7701  0.3195 -0.5365
18831TIP3    H277985   4.106   6.344   0.333 -0.7456 -2.0405  1.1731
18832TIP3   OH277986   4.832   0.346   1.679 -0.0442  0.5329  0.3012
18832TIP3    H177987   4.839   0.284   1.752  1.5649 -0.5542 -0.6972
18832TIP3    H277988   4.778   0.300   1.614  1.0485  0.1799 -0.3902
18833TIP3   OH277989   1.759   5.363   5.864  0.1699 -1.0977 -0.1667
18833TIP3    H177990   1.839   5.341   5.913 -0.8219  0.0488  2.1047
18833TIP3    H277991   1.707   5.283   5.867 -0.4280 -0.6836  1.8919
18834TIP3   OH277992   4.753   4.117   6.362 -0.4832  0.2507  0.1123
18834TIP3    H177993   4.827   4.069   6.323 -0.4416  0.8974 -0.6453
18834TIP3    H277994   4.758   4.096   6.455  0.4373 -0.0168  0.0213
18835TIP3   OH277995   2.315   2.114  12.003  0.1582  0.1975 -0.0822
18835TIP3    H177996   2.296   2.113  12.097  1.3485  0.9883  0.1943
18835TIP3    H277997   2.411   2.113  11.998  0.1681 -2.5314 -1.3614
18836TIP3   OH277998   0.738   1.924   3.847  0.3194 -0.0688  0.3377
18836TIP3    H177999   0.687   1.991   3.803  3.1486  1.1649 -1.3420
18836TIP3    H278000   0.761   1.962   3.932  0.8460  0.5841 -0.0919
18837TIP3   OH278001   1.396   3.678  10.575 -0.3857 -0.5516  0.1713
18837TIP3    H178002   1.424   3.590  10.550 -0.6124  0.0341 -2.5196
18837TIP3    H278003   1.476   3.732  10.566 -0.5720 -0.2492  0.3169
18838TIP3   OH278004   0.318   2.574   1.369 -0.0763 -0.2939 -0.4473
18838TIP3    H178005   0.273   2.567   1.284 -2.6697  0.4512  0.7645
18838TIP3    H278006   0.352   2.663   1.371  0.8261 -0.6027 -1.0319
18839TIP3   OH278007   5.994   3.908  16.362 -0.2397 -0.1426  0.1550
18839TIP3    H178008   5.930   3.952  16.418 -1.2602  0.3240 -1.3178
18839TIP3    H278009   6.049   3.979  16.329  0.3859 -0.4203  0.5775
18840TIP3   OH278010   3.568   6.599  14.238  0.6837  0.1708 -0.2372
18840TIP3    H178011   3.486   6.553  14.225 -0.0185  1.1841  0.4364
18840TIP3    H278012   3.610   6.554  14.311  0.4454  0.0196 -0.1941
18841TIP3   OH278013   3.564   4.253  15.991 -0.2498 -0.3477 -0.2540
18841TIP3    H178014   3.601   4.175  15.951 -3.7117 -1.8929 -0.8133
18841TIP3    H278015   3.627   4.279  16.058  1.3902 -3.1692 -0.5867
18842TIP3   OH278016   4.372   4.802   2.655 -0.5292  0.2720 -0.1770
18842TIP3    H178017   4.352   4.855   2.578 -1.2766  2.5562  1.4632
18842TIP3    H278018   4.370   4.864   2.728 -0.2734 -1.8484  1.7595
18843TIP3   OH278019   6.162   2.171   2.845  0.2438  0.4259 -0.2888
18843TIP3    H178020   6.159   2.184   2.750  1.2054 -0.1945 -0.4148
18843TIP3    H278021   6.223   2.099   2.858 -0.8047 -0.3147  0.7377
18844TIP3   OH278022   2.172   3.834   3.363 -0.0243  0.4660 -0.0162
18844TIP3    H178023   2.177   3.896   3.290  1.0642  1.3266  0.7759
18844TIP3    H278024   2.078   3.815   3.371 -0.3371  1.6781 -0.5477
18845TIP3   OH278025   5.488   0.548   2.672  0.1341 -0.1038  0.3764
18845TIP3    H178026   5.527   0.635   2.671 -0.3621  0.1661  1.7251
18845TIP3    H278027   5.559   0.489   2.648  1.3881  0.3796  2.5819
18846TIP3   OH278028   2.745   5.296   2.641 -0.7243  0.0172 -0.4140
18846TIP3    H178029   2.672   5.260   2.591 -0.0343 -1.1837 -0.6059
18846TIP3    H278030   2.797   5.219   2.666  1.1123  0.9204 -1.3044
18847TIP3   OH278031   6.573   3.159   2.400  0.0576 -0.1330  0.0414
18847TIP3    H178032   6.664   3.185   2.382  0.2376 -1.6562 -1.4397
18847TIP3    H278033   6.569   3.152   2.495  1.6043 -0.3646  0.1176
18848TIP3   OH278034   6.370   2.423   4.903 -0.7822 -0.0441 -0.1106
18848TIP3    H178035   6.374   2.440   4.997 -0.5563 -1.7250  0.2159
18848TIP3    H278036   6.454   2.453   4.869 -0.6680  0.1127  0.3022
18849TIP3   OH278037   5.560   6.802   5.792  0.0001 -0.4638 -0.2953
18849TIP3    H178038   5.478   6.849   5.779  1.1963  1.4749 -1.2996
18849TIP3    H278039   5.577   6.758   5.708  0.3015 -0.3336 -0.3039
18850TIP3   OH278040   3.889   1.565   5.726  0.1614 -0.5620 -0.2807
18850TIP3    H178041   3.938   1.617   5.790  1.3235 -0.4025 -1.2606
18850TIP3    H278042   3.887   1.477   5.762  0.5181 -0.4000  0.1372
18851TIP3   OH278043   5.328   1.060  13.800 -0.0683  0.2810  0.5177
18851TIP3    H178044   5.253   1.112  13.769 -1.0551 -0.5379  1.4687
18851TIP3    H278045   5.401   1.088  13.744 -1.2755  0.4240 -1.0647
18852TIP3   OH278046   0.680   4.632   4.704 -0.5836 -0.4356 -0.6370
18852TIP3    H178047   0.696   4.543   4.736 -0.6966  0.1807  1.2482
18852TIP3    H278048   0.715   4.689   4.773  1.7596  1.0477 -2.8634
18853TIP3   OH278049   5.401   0.293  16.437  0.3440 -0.1360 -0.3094
18853TIP3    H178050   5.327   0.242  16.404  0.7449 -0.9643  0.0377
18853TIP3    H278051   5.472   0.229  16.446  0.1603 -0.0987  2.4801
18854TIP3   OH278052   0.276   1.331   5.535 -0.6607  0.1164  0.1977
18854TIP3    H178053   0.181   1.322   5.522 -0.7242  1.0196  0.0197
18854TIP3    H278054   0.284   1.388   5.612 -0.2681  1.6933 -0.9752
18855TIP3   OH278055   2.442   1.895  17.084 -0.2268 -0.5341  0.5245
18855TIP3    H178056   2.452   1.890  16.989  0.2681 -1.3191  0.6100
18855TIP3    H278057   2.371   1.835  17.104 -1.5912  0.9906  0.4869
18856TIP3   OH278058   3.746   0.810  12.756 -0.0012  0.1537 -0.0454
18856TIP3    H178059   3.721   0.744  12.691  1.2434  0.2076 -0.6151
18856TIP3    H278060   3.758   0.890  12.705  1.0380  0.1853  0.2208
18857TIP3   OH278061   3.035   3.960  15.369 -0.0746  0.5382  0.0685
18857TIP3    H178062   3.018   3.985  15.278 -0.3896  1.0961  0.2762
18857TIP3    H278063   3.061   3.868  15.364 -0.7732  0.3624 -0.5192
18858TIP3   OH278064   0.670   6.660  13.208  0.1790  0.1153  0.0167
18858TIP3    H178065   0.705   6.648  13.120 -0.7351  0.9804 -0.4876
18858TIP3    H278066   0.635   6.575  13.233  1.7495 -0.5233  0.1569
18859TIP3   OH278067   3.601   2.331  13.205  0.1170 -0.2379 -0.7785
18859TIP3    H178068   3.636   2.381  13.131 -0.6311 -0.5749 -1.3735
18859TIP3    H278069   3.664   2.259  13.217 -0.3190 -0.8231 -1.8273
18860TIP3   OH278070   3.952   2.135  15.312  0.2664 -0.9391 -0.0392
18860TIP3    H178071   4.016   2.168  15.249 -0.0765 -0.4055 -0.1130
18860TIP3    H278072   4.004   2.109  15.388  0.6332 -1.1382 -0.3536
18861TIP3   OH278073   3.198   1.105   4.927  0.2430  0.6299 -0.6787
18861TIP3    H178074   3.115   1.074   4.892  0.0547  0.7433 -0.3369
18861TIP3    H278075   3.197   1.200   4.912  0.5092  0.5667 -1.0870
18862TIP3   OH278076   2.728   4.212  15.305 -0.2952  0.5085 -0.3071
18862TIP3    H178077   2.796   4.276  15.326 -0.8317  0.4149  2.0478
18862TIP3    H278078   2.758   4.170  15.225  1.9441  1.1176  0.1459
18863TIP3   OH278079   1.797   0.876  16.930 -0.1342  0.0909 -0.1269
18863TIP3    H178080   1.738   0.823  16.984  0.3537  0.3040  0.6316
18863TIP3    H278081   1.874   0.822  16.916  0.6423  0.7960  1.1901
18864TIP3   OH278082   4.291   1.095  13.689  0.2348  0.2281 -0.4479
18864TIP3    H178083   4.314   1.007  13.721  1.5811  0.7550  0.1053
18864TIP3    H278084   4.199   1.088  13.664 -0.8063 -0.4136  3.0170
18865TIP3   OH278085   4.692   6.620   5.472 -0.1816 -0.2173 -0.3453
18865TIP3    H178086   4.778   6.656   5.495  0.1805 -2.3094  2.0929
18865TIP3    H278087   4.711   6.558   5.401  0.4632 -1.0154  0.4896
18866TIP3   OH278088   1.378   3.607   1.153 -0.2748 -0.1932  0.5416
18866TIP3    H178089   1.421   3.561   1.226  1.4033  0.6396  0.1199
18866TIP3    H278090   1.355   3.693   1.189  2.3887  1.0070 -0.3715
18867TIP3   OH278091   4.464   6.034  17.059  0.4031  0.5886  0.3920
18867TIP3    H178092   4.470   5.945  17.096  1.1598  0.7183  0.5975
18867TIP3    H278093   4.539   6.080  17.096  1.7906  0.4534 -2.0813
18868TIP3   OH278094   4.842   4.195   3.381 -0.5469 -0.3824  0.4785
18868TIP3    H178095   4.889   4.113   3.384  0.3595  0.1391  0.8244
18868TIP3    H278096   4.902   4.260   3.418 -0.7759  0.6556 -0.8873
18869TIP3   OH278097   3.758   2.963   2.720  0.5730  0.3632  0.4145
18869TIP3    H178098   3.832   3.004   2.766  0.8160  1.0415 -0.5422
18869TIP3    H278099   3.686   2.966   2.782  0.8616  1.3771  0.7282
18870TIP3   OH278100   4.542   6.544  10.685  0.2788 -0.4033 -0.4807
18870TIP3    H178101   4.521   6.623  10.637  1.8150 -1.1073 -2.4712
18870TIP3    H278102   4.494   6.552  10.767 -2.5338  0.8627 -2.0963
18871TIP3   OH278103   3.049   6.071   1.418  0.1830  0.3735 -0.1340
18871TIP3    H178104   3.097   6.152   1.436  1.0264 -0.0984 -0.1789
18871TIP3    H278105   3.114   6.002   1.433 -0.7982 -0.3571  0.8873
18872TIP3   OH278106   0.011   1.807   3.896  0.0375 -0.4652  0.3681
18872TIP3    H178107  -0.042   1.838   3.970  1.0183 -0.5923  1.1483
18872TIP3    H278108  -0.051   1.801   3.824 -1.2531 -1.6664  1.5144
18873TIP3   OH278109   0.696   0.387   3.501 -0.2211  0.1071 -0.4156
18873TIP3    H178110   0.738   0.381   3.415  1.0386  0.5620  0.1482
18873TIP3    H278111   0.751   0.333   3.558 -0.9682 -0.0760  0.1471
18874TIP3   OH278112   6.564   5.687  12.075 -0.3993 -0.0536 -0.4328
18874TIP3    H178113   6.604   5.709  11.991  0.9346  1.4731  0.5403
18874TIP3    H278114   6.595   5.599  12.095  1.5175  0.5964 -0.3141
18875TIP3   OH278115   5.203   6.151  11.614  0.4088 -0.8614 -0.2773
18875TIP3    H178116   5.232   6.194  11.694 -1.4470  0.4920 -0.2796
18875TIP3    H278117   5.266   6.179  11.547 -0.8764  2.2169 -0.3458
18876TIP3   OH278118   4.914   4.499   1.357  0.4205  0.0765 -0.1315
18876TIP3    H178119   4.891   4.409   1.378 -0.5604  0.1897 -0.6407
18876TIP3    H278120   4.980   4.492   1.288  0.5711 -0.2446  0.0415
18877TIP3   OH278121   5.898   0.770   3.090  0.1248  1.0212  0.1776
18877TIP3    H178122   5.909   0.775   2.995 -0.4138  0.4078  0.0749
18877TIP3    H278123   5.891   0.862   3.118 -1.2671  1.1789 -0.5855
18878TIP3   OH278124   1.569   2.755  13.213  0.3454 -0.3894 -0.3330
18878TIP3    H178125   1.609   2.745  13.127  1.1432 -0.8973  0.0743
18878TIP3    H278126   1.618   2.827  13.254  2.3218 -2.3196  0.9283
18879TIP3   OH278127   3.174   0.399  14.608  0.2526  0.2073  0.6364
18879TIP3    H178128   3.253   0.453  14.618  0.8259 -0.0793 -1.8428
18879TIP3    H278129   3.107   0.460  14.579  0.7229 -0.2104 -1.4845
18880TIP3   OH278130   0.384   4.587  11.554 -0.3402 -0.0907 -0.6329
18880TIP3    H178131   0.350   4.621  11.471 -2.3582 -0.6492 -0.0684
18880TIP3    H278132   0.344   4.501  11.563  0.3182 -0.2850  0.6578
18881TIP3   OH278133   0.647   1.758  12.591  0.1350 -0.4309  0.7032
18881TIP3    H178134   0.698   1.815  12.533 -0.8729  1.1727  1.3378
18881TIP3    H278135   0.707   1.686  12.612  1.9009  0.9945  0.8414
18882TIP3   OH278136   3.587   3.267  11.980 -0.2264 -0.6770  0.1846
18882TIP3    H178137   3.531   3.339  11.949 -0.4398 -1.0783 -0.3789
18882TIP3    H278138   3.650   3.254  11.910  0.5670 -0.2524  0.8064
18883TIP3   OH278139   5.153   2.177   1.453  0.0337 -0.3650 -0.3566
18883TIP3    H178140   5.090   2.162   1.524 -1.5395  1.1689 -1.3467
18883TIP3    H278141   5.128   2.262   1.417  1.7775 -0.3953 -1.7669
18884TIP3   OH278142   2.064   2.064   6.960 -0.1526 -0.0238 -0.1710
18884TIP3    H178143   2.128   2.046   6.891 -1.1946 -0.9606 -0.9308
18884TIP3    H278144   2.087   2.150   6.994  0.8698  0.0898 -1.1352
18885TIP3   OH278145   4.844   0.244   5.904 -0.6507 -0.5170 -0.1650
18885TIP3    H178146   4.886   0.159   5.909  1.4659  0.5037  0.7017
18885TIP3    H278147   4.867   0.278   5.817  0.8534  0.2580  0.5025
18886TIP3   OH278148   1.995   2.400   6.064  0.0799  0.2370  0.5808
18886TIP3    H178149   1.945   2.360   6.135 -0.4309 -0.4988 -0.1791
18886TIP3    H278150   1.930   2.420   5.996  0.6385  0.4269  0.0910
18887TIP3   OH278151   6.415   1.189  11.402 -0.2416  0.2978  0.3950
18887TIP3    H178152   6.345   1.175  11.338  0.1378  1.0134 -0.1957
18887TIP3    H278153   6.368   1.210  11.484 -0.7226 -0.1690  0.2456
18888TIP3   OH278154   2.554   1.093   3.751  0.5062  0.0951  0.1828
18888TIP3    H178155   2.459   1.104   3.751  0.5173  0.3176  1.0305
18888TIP3    H278156   2.588   1.176   3.786  0.9356 -0.4420  1.0787
18889TIP3   OH278157   1.574   1.226   2.853  0.3537 -0.5822  0.2352
18889TIP3    H178158   1.531   1.230   2.768  2.4658  1.0946 -0.8707
18889TIP3    H278159   1.646   1.164   2.841 -0.5449 -1.9363  1.4892
18890TIP3   OH278160   3.154   5.697   4.559 -0.7416 -0.5431 -0.2094
18890TIP3    H178161   3.145   5.650   4.476 -3.3435  2.5269 -1.8893
18890TIP3    H278162   3.243   5.733   4.556 -0.3636 -1.4764 -1.0485
18891TIP3   OH278163   2.911   4.286   1.327 -0.7320  0.5660  0.2867
18891TIP3    H178164   2.867   4.325   1.403  0.7570  0.5830  1.1932
18891TIP3    H278165   2.979   4.230   1.365 -1.5296 -1.4007 -1.0284
18892TIP3   OH278166   2.143   0.089   2.374  0.3503  0.4949 -0.2456
18892TIP3    H178167   2.171   0.088   2.282 -1.9881 -0.3969 -1.0319
18892TIP3    H278168   2.090   0.168   2.382  1.0061  0.8704  0.5217
18893TIP3   OH278169   4.911   0.567  13.987  0.4192 -0.0481  0.0029
18893TIP3    H178170   4.839   0.601  13.935 -1.3869 -3.8047 -0.3163
18893TIP3    H278171   4.961   0.513  13.926  1.1646 -0.6312  1.0946
18894TIP3   OH278172   5.477   3.875  13.102 -0.2649  0.0512  1.1866
18894TIP3    H178173   5.456   3.955  13.149  0.3478 -0.1258  1.7867
18894TIP3    H278174   5.490   3.810  13.171  1.2603 -0.0698  0.8287
18895TIP3   OH278175   5.452   6.539  15.424 -0.6677 -0.0206 -0.4426
18895TIP3    H178176   5.367   6.542  15.379 -1.7337  0.0977  1.4514
18895TIP3    H278177   5.437   6.587  15.505  1.8463  1.8617 -0.9947
18896TIP3   OH278178   5.694   2.598   1.960 -0.5191  0.3469 -0.5358
18896TIP3    H178179   5.637   2.623   1.887 -1.1962  0.7900  0.1261
18896TIP3    H278180   5.717   2.506   1.942 -0.7618  0.4185 -1.2442
18897TIP3   OH278181   3.416   3.316   2.023  0.4817 -0.4497 -0.0267
18897TIP3    H178182   3.419   3.220   2.014 -1.3182 -0.6640  1.1599
18897TIP3    H278183   3.483   3.335   2.089  0.9218 -0.8557 -0.3391
18898TIP3   OH278184   0.139   3.644  12.965 -0.4736 -0.2643 -0.0737
18898TIP3    H178185   0.053   3.623  12.927  0.3744 -0.5407 -1.9994
18898TIP3    H278186   0.146   3.739  12.956 -0.9554 -0.1210  0.9808
18899TIP3   OH278187   6.713   1.645   0.505 -0.3640  0.0836 -0.1631
18899TIP3    H178188   6.781   1.589   0.467 -0.1138  0.6318 -0.5391
18899TIP3    H278189   6.721   1.728   0.457 -0.7112  0.4494  0.4056
18900TIP3   OH278190   5.035   2.949   0.253 -0.2375 -0.7005  0.4236
18900TIP3    H178191   5.010   2.921   0.166 -0.3985  0.5054  0.0579
18900TIP3    H278192   4.960   3.001   0.284 -0.2886 -1.3227  1.3832
18901TIP3   OH278193   5.976   0.879   2.439  0.5672  0.2037 -0.4041
18901TIP3    H178194   5.941   0.948   2.494  1.2665 -0.3844  0.8240
18901TIP3    H278195   5.971   0.914   2.350 -0.0791  1.3920  0.0817
18902TIP3   OH278196   0.266   5.579   3.543  0.7923  0.2987  0.1003
18902TIP3    H178197   0.338   5.637   3.568  2.7885 -2.7539  1.9656
18902TIP3    H278198   0.284   5.558   3.451  1.2642  0.9024  0.0451
18903TIP3   OH278199   5.782   3.559  11.161 -0.1875 -0.2347 -0.4060
18903TIP3    H178200   5.733   3.626  11.209 -1.4650 -0.7856 -0.8856
18903TIP3    H278201   5.748   3.564  11.072 -1.7499 -2.7770 -0.0460
18904TIP3   OH278202   6.399   0.416   4.192  0.2044 -0.1860  0.3645
18904TIP3    H178203   6.364   0.363   4.263 -1.4169 -1.6918 -1.4392
18904TIP3    H278204   6.352   0.499   4.198  0.8090  0.0958  1.5938
18905TIP3   OH278205   3.453   1.354  11.161 -0.5651  0.1338  0.1352
18905TIP3    H178206   3.500   1.414  11.103 -1.6029  1.4400  0.6083
18905TIP3    H278207   3.390   1.310  11.103 -0.9127  0.6981  0.0787
18906TIP3   OH278208   5.718   5.059   5.837 -0.0209  0.1881  0.2985
18906TIP3    H178209   5.623   5.057   5.839 -0.0412  0.0599 -0.5812
18906TIP3    H278210   5.744   5.026   5.924 -0.7592  2.7711  1.5900
18907TIP3   OH278211   3.036   0.284   3.892 -0.4128 -0.6338 -0.2135
18907TIP3    H178212   3.027   0.256   3.801 -1.6835  1.7632 -0.9052
18907TIP3    H278213   2.946   0.286   3.925  0.1093 -2.6065  1.5305
18908TIP3   OH278214   5.510   5.492  11.766  0.6863  0.2959  0.3730
18908TIP3    H178215   5.566   5.568  11.756  1.0765 -0.2290 -2.6288
18908TIP3    H278216   5.442   5.504  11.699 -1.0640 -0.5181  1.9318
18909TIP3   OH278217   2.264   0.211  16.443  0.2681 -0.9723 -0.0388
18909TIP3    H178218   2.214   0.148  16.495 -1.5133 -0.6551 -1.2629
18909TIP3    H278219   2.333   0.241  16.501 -1.1033 -1.2776  1.8295
18910TIP3   OH278220   2.753   4.498   2.119 -0.2784  0.0097 -0.1758
18910TIP3    H178221   2.768   4.592   2.105  0.6018 -0.3197 -1.7050
18910TIP3    H278222   2.729   4.491   2.211  1.0475  1.5773  0.3410
18911TIP3   OH278223   2.899   5.876   0.417 -0.3346 -0.0169  0.1984
18911TIP3    H178224   2.828   5.922   0.461  1.2017  1.3060  1.4204
18911TIP3    H278225   2.970   5.941   0.411  1.1422 -1.5730 -0.0145
18912TIP3   OH278226   5.742   4.575  14.024  0.3939  0.6326 -0.4740
18912TIP3    H178227   5.835   4.594  14.015  0.7837 -1.7620 -2.5952
18912TIP3    H278228   5.738   4.508  14.093  0.2174  0.8496 -0.2715
18913TIP3   OH278229   0.618   6.173   2.183  0.2891  0.4909  0.0055
18913TIP3    H178230   0.579   6.245   2.133 -2.1613 -2.5888 -2.9808
18913TIP3    H278231   0.561   6.163   2.259  0.9392  1.8913  0.7239
18914TIP3   OH278232   0.235   3.399  16.006  0.0644  0.5065  0.0001
18914TIP3    H178233   0.209   3.425  15.918  2.2885  1.8827 -0.3314
18914TIP3    H278234   0.162   3.425  16.061 -0.4091  1.7604 -1.1550
18915TIP3   OH278235   3.231   3.540   4.399  0.1415 -0.1251  0.0166
18915TIP3    H178236   3.293   3.482   4.443 -0.6978  1.3510  3.5863
18915TIP3    H278237   3.269   3.628   4.409 -0.5051  0.3714 -1.6244
18916TIP3   OH278238   5.984   3.316   2.466 -0.2092  0.3887  0.5563
18916TIP3    H178239   6.044   3.327   2.392 -0.8632 -1.2627 -0.2632
18916TIP3    H278240   6.041   3.319   2.543  0.5955  1.2532 -0.0441
18917TIP3   OH278241   6.825   5.146  11.493  0.1980 -0.9513 -0.4246
18917TIP3    H178242   6.729   5.145  11.495  0.2008 -1.6437  1.4938
18917TIP3    H278243   6.847   5.129  11.402 -1.5053 -1.8667 -0.7118
18918TIP3   OH278244   2.204   2.659  14.689 -0.5715  0.0752 -0.2731
18918TIP3    H178245   2.114   2.688  14.677 -0.3655  1.1911  0.7483
18918TIP3    H278246   2.216   2.657  14.784  0.1495 -1.1402 -0.3706
18919TIP3   OH278247   3.405   4.424   0.854 -0.0025 -0.2735  0.1336
18919TIP3    H178248   3.489   4.431   0.807  0.4180  1.1152  1.0481
18919TIP3    H278249   3.430   4.398   0.943 -0.8585 -4.1313 -0.5544
18920TIP3   OH278250   1.978   2.534  15.087  0.1216  0.4036  0.7974
18920TIP3    H178251   2.000   2.610  15.140  2.5985 -0.1072  0.6192
18920TIP3    H278252   1.908   2.564  15.029  0.0653  2.0936  1.6894
18921TIP3   OH278253   4.063   3.533   6.142  0.3762 -0.3294 -0.2170
18921TIP3    H178254   4.158   3.521   6.149  0.2151 -2.2574 -0.9456
18921TIP3    H278255   4.026   3.465   6.197 -0.5902 -2.3612 -3.1739
18922TIP3   OH278256   3.915   0.267   2.794 -0.4040 -0.3178 -0.0564
18922TIP3    H178257   4.010   0.261   2.792 -0.4364 -0.6830 -0.7315
18922TIP3    H278258   3.891   0.303   2.709 -0.8781 -0.2517  0.0981
18923TIP3   OH278259   2.284   0.522  12.234  0.4654  0.0569  0.2584
18923TIP3    H178260   2.347   0.450  12.227  1.0903  0.4264  1.7050
18923TIP3    H278261   2.305   0.563  12.318 -3.0448 -1.0958  1.8782
18924TIP3   OH278262   0.050   0.794   0.058  0.5653 -0.1198 -0.1016
18924TIP3    H178263   0.129   0.753   0.022  0.8354  0.3010 -0.0003
18924TIP3    H278264   0.069   0.801   0.152 -0.3005 -1.5951  0.2209
18925TIP3   OH278265   0.692   3.483   5.797  0.2709 -0.5433  0.2286
18925TIP3    H178266   0.694   3.432   5.716  0.2641 -0.5717  0.2462
18925TIP3    H278267   0.776   3.528   5.799 -0.1391  0.2631 -0.3086
18926TIP3   OH278268   4.136   6.530  11.167  0.4972  0.3543 -0.4915
18926TIP3    H178269   4.174   6.571  11.089 -0.8420 -0.4563 -1.6196
18926TIP3    H278270   4.089   6.601  11.210  0.6797  0.6646 -0.7949
18927TIP3   OH278271   0.757   5.290  13.980  0.0216  0.1145 -0.3757
18927TIP3    H178272   0.769   5.229  13.908  1.1787  1.1769 -1.1214
18927TIP3    H278273   0.683   5.255  14.029  1.3021 -2.4851 -0.1225
18928TIP3   OH278274   0.420   0.597   4.902 -0.8809  0.1542  0.1810
18928TIP3    H178275   0.392   0.506   4.914 -4.7214  0.5814 -3.2080
18928TIP3    H278276   0.384   0.643   4.978 -1.8679 -0.6829  0.2432
18929TIP3   OH278277   4.127   6.136  14.261 -0.1781  0.5230  0.2585
18929TIP3    H178278   4.159   6.204  14.320  0.9040  1.4027 -1.2688
18929TIP3    H278279   4.108   6.182  14.179 -0.6741 -0.8123 -0.4079
18930TIP3   OH278280   5.865   4.897  11.005  0.4156  0.1925 -0.0272
18930TIP3    H178281   5.829   4.945  11.080  0.6438  1.2039 -0.5443
18930TIP3    H278282   5.882   4.809  11.038 -0.7309  0.2496  0.7415
18931TIP3   OH278283   0.399   1.606  12.582 -0.4707  0.0111  0.1693
18931TIP3    H178284   0.464   1.675  12.572 -0.4240 -0.0949 -0.2611
18931TIP3    H278285   0.434   1.550  12.652 -0.0221 -0.1320 -0.1699
18932TIP3   OH278286   2.475   1.620  14.973 -0.9522  0.2196  0.1007
18932TIP3    H178287   2.467   1.536  15.019  0.4741  0.1471  0.2662
18932TIP3    H278288   2.498   1.683  15.041 -0.8678  0.5138 -0.1968
18933TIP3   OH278289   1.268   1.491   4.315 -0.5143 -0.0186  1.1542
18933TIP3    H178290   1.294   1.550   4.244 -3.3342 -1.0647 -0.9250
18933TIP3    H278291   1.294   1.404   4.284 -0.1055 -0.3112  2.2869
18934TIP3   OH278292   6.814   2.047  14.965  0.3132 -0.2861  0.4654
18934TIP3    H178293   6.744   2.099  15.004  0.5310  0.0112  0.4732
18934TIP3    H278294   6.873   2.113  14.927  0.2429 -0.5588 -0.1231
18935TIP3   OH278295   2.101   2.704   5.219  0.4776 -0.2217 -0.0632
18935TIP3    H178296   2.041   2.656   5.162 -0.6865  1.4187 -0.2912
18935TIP3    H278297   2.082   2.670   5.307  0.3248 -0.7972 -0.3107
18936TIP3   OH278298   5.693   4.779   5.261  0.1602  0.3435 -0.2697
18936TIP3    H178299   5.714   4.800   5.352 -0.2481 -0.1146 -0.0643
18936TIP3    H278300   5.698   4.863   5.215 -0.9945  0.8375  0.4520
18937TIP3   OH278301   5.268   4.378   4.112 -0.3612  0.8606  0.0971
18937TIP3    H178302   5.235   4.323   4.041 -0.5343  2.3276 -1.0050
18937TIP3    H278303   5.234   4.337   4.192 -2.2857  0.5541 -0.8172
18938TIP3   OH278304   0.935   4.313  15.068  0.2214 -0.5694 -0.3275
18938TIP3    H178305   0.943   4.236  15.125  0.6426 -0.7565 -0.6342
18938TIP3    H278306   0.841   4.326  15.059  0.0823  0.6447  2.0029
18939TIP3   OH278307   2.967   5.620   5.156 -0.0660  0.1426  0.0741
18939TIP3    H178308   2.894   5.653   5.104 -0.1581 -0.4085 -0.1540
18939TIP3    H278309   2.950   5.651   5.245  0.5590  1.8626 -0.3724
18940TIP3   OH278310   4.507   6.100   3.349 -0.2247  0.3068 -0.1353
18940TIP3    H178311   4.573   6.045   3.392  0.1126  0.4976 -0.3981
18940TIP3    H278312   4.498   6.063   3.261  0.5359  1.0891 -0.5588
18941TIP3   OH278313   6.750   5.813  12.934 -0.2151 -0.3757 -0.2580
18941TIP3    H178314   6.687   5.741  12.936 -0.4439 -0.1774  1.2577
18941TIP3    H278315   6.702   5.887  12.970 -0.0302  0.6094 -1.9482
18942TIP3   OH278316   2.930   0.385   5.752 -0.6121 -0.3937  0.4000
18942TIP3    H178317   3.003   0.441   5.726 -1.2181  0.4821  0.5436
18942TIP3    H278318   2.944   0.304   5.704 -0.0852  0.1223 -0.3381
18943TIP3   OH278319   4.112   6.806   1.195 -0.3036  0.2382  0.4180
18943TIP3    H178320   4.033   6.761   1.226 -0.6742  0.1282 -0.6530
18943TIP3    H278321   4.111   6.793   1.100  2.4243 -2.1357  0.5825
18944TIP3   OH278322   1.209   0.295  13.678 -0.0006 -0.3073 -0.1159
18944TIP3    H178323   1.276   0.268  13.741  0.2215 -0.8295 -0.5649
18944TIP3    H278324   1.143   0.340  13.731 -1.2262 -3.1608  0.9743
18945TIP3   OH278325   4.295   6.197   5.006  0.0828  0.9638  0.0463
18945TIP3    H178326   4.211   6.242   4.997 -0.1306  0.7617  0.9601
18945TIP3    H278327   4.315   6.164   4.918 -1.2179  0.2782 -0.0105
18946TIP3   OH278328   5.966   6.152   1.499  0.0053  0.0632  0.2908
18946TIP3    H178329   5.903   6.201   1.446 -1.0358 -0.1147  1.3202
18946TIP3    H278330   5.980   6.070   1.451 -0.7096  0.0156  0.1644
18947TIP3   OH278331   4.608   3.890  13.258  0.4341  0.3528  0.1948
18947TIP3    H178332   4.633   3.853  13.343  1.2383 -0.5743 -0.4230
18947TIP3    H278333   4.537   3.834  13.227  0.7840  0.1076 -0.1684
18948TIP3   OH278334   0.920   0.376  14.373  0.1114  0.5899  0.0803
18948TIP3    H178335   0.900   0.324  14.295 -1.4343  0.5120  0.5048
18948TIP3    H278336   0.859   0.450  14.368  0.4417  0.9242  0.8781
18949TIP3   OH278337   5.044   1.002   1.464  0.2700 -0.0252 -0.2370
18949TIP3    H178338   5.041   0.960   1.550  0.0579  0.7858  0.1633
18949TIP3    H278339   5.088   1.086   1.480  0.5930 -0.0387 -0.9963
18950TIP3   OH278340   1.341   4.774   3.205 -0.0717  0.6288  0.7074
18950TIP3    H178341   1.377   4.772   3.116 -0.1909 -0.1520  0.6711
18950TIP3    H278342   1.358   4.864   3.235  0.8561  0.6161  0.2664
18951TIP3   OH278343   0.529   5.149  12.461  0.1471  0.3634 -0.0232
18951TIP3    H178344   0.613   5.115  12.433  0.1256 -1.5482  1.9735
18951TIP3    H278345   0.540   5.169  12.554 -1.4022  0.6763  0.1338
18952TIP3   OH278346   2.166   3.437   5.447 -0.1738  0.1646  0.5376
18952TIP3    H178347   2.185   3.344   5.431  0.0229  0.3720 -0.4869
18952TIP3    H278348   2.096   3.436   5.512 -2.3988 -0.7986 -1.7185
18953TIP3   OH278349   6.119   5.566  17.136 -0.1422  0.2608 -0.8728
18953TIP3    H178350   6.168   5.624  17.078  1.2338  0.1991  0.1956
18953TIP3    H278351   6.112   5.615  17.219 -1.0340 -0.1393 -0.6984
18954TIP3   OH278352   2.896   5.127   5.632 -0.0149  0.4796 -0.3250
18954TIP3    H178353   2.851   5.144   5.549  0.7664 -0.5371 -0.9829
18954TIP3    H278354   2.982   5.095   5.606  0.9907  2.0118  0.8899
18955TIP3   OH278355   0.066   3.569  17.003  0.6544 -0.1966  0.0848
18955TIP3    H178356  -0.002   3.536  16.944  3.0145  0.5918 -3.3055
18955TIP3    H278357   0.036   3.657  17.026 -0.4764 -0.6475  0.4169
18956TIP3   OH278358   6.803   2.243  17.234 -0.4955  0.2225 -0.3546
18956TIP3    H178359   6.864   2.300  17.280 -1.5851 -0.3633  1.9494
18956TIP3    H278360   6.856   2.169  17.206  0.2556  0.7249 -0.2740
18957TIP3   OH278361   2.416   1.316   1.130  0.6682 -0.6851  0.0271
18957TIP3    H178362   2.347   1.254   1.106  0.8173 -1.1204  0.7198
18957TIP3    H278363   2.403   1.390   1.070  1.5511 -2.0886 -2.0021
18958TIP3   OH278364   1.964   0.916   3.491 -0.0141  0.3921 -0.1124
18958TIP3    H178365   1.883   0.869   3.473 -0.9395  1.4027  1.2102
18958TIP3    H278366   2.033   0.859   3.456 -1.2127 -0.9441 -0.4057
18959TIP3   OH278367   2.319   2.174  12.270  0.3940 -0.2287  0.0157
18959TIP3    H178368   2.321   2.264  12.302 -0.8311 -0.5470  1.0658
18959TIP3    H278369   2.351   2.121  12.343  2.3593 -0.5799 -1.0298
18960TIP3   OH278370   5.413   5.851   0.783 -0.4730 -0.7687 -0.2696
18960TIP3    H178371   5.351   5.882   0.718 -0.3378 -2.4469 -1.2786
18960TIP3    H278372   5.495   5.895   0.761 -0.9107  0.2282  0.0625
18961TIP3   OH278373   4.445   1.613   6.009 -0.1270  0.0128 -0.6231
18961TIP3    H178374   4.442   1.522   5.979  0.4676 -0.3116  0.2491
18961TIP3    H278375   4.387   1.614   6.086 -1.3544  0.7442 -1.5154
18962TIP3   OH278376   0.311   4.740  17.193 -1.2003  0.0269  0.5198
18962TIP3    H178377   0.350   4.744  17.106  0.9156 -0.7823  1.3627
18962TIP3    H278378   0.261   4.658  17.193  0.0037 -0.7323  0.5023
18963TIP3   OH278379   4.960   1.347  11.854  0.0704 -0.0517  0.6740
18963TIP3    H178380   5.003   1.432  11.844  0.4817 -0.4396 -1.4472
18963TIP3    H278381   4.960   1.331  11.948  0.9283  1.8141  1.0437
18964TIP3   OH278382   2.655   2.726   1.384 -0.0986 -0.0657 -0.7843
18964TIP3    H178383   2.657   2.819   1.410 -1.1993  0.3658 -2.1122
18964TIP3    H278384   2.741   2.693   1.408  0.0424  1.0917  0.4414
18965TIP3   OH278385   3.745   4.368  16.200 -0.1759 -0.7289 -0.2628
18965TIP3    H178386   3.819   4.410  16.157 -0.8990 -0.9605 -1.7943
18965TIP3    H278387   3.670   4.423  16.179 -0.4065 -0.2139  1.7004
18966TIP3   OH278388   3.884   2.725   5.261  0.0851  0.0697 -0.1142
18966TIP3    H178389   3.881   2.684   5.347 -0.7046 -0.7144 -0.4958
18966TIP3    H278390   3.934   2.664   5.207 -1.2729 -0.5311 -0.7400
18967TIP3   OH278391   1.638   5.962   3.640  0.2241  0.1391  0.5588
18967TIP3    H178392   1.670   6.031   3.697 -0.4275  1.3780 -0.5205
18967TIP3    H278393   1.550   5.943   3.673  0.2365  0.1367  0.5906
18968TIP3   OH278394   4.299   1.155  12.876 -0.2606  0.5543 -0.5744
18968TIP3    H178395   4.305   1.203  12.794  2.4137  0.3701 -0.5650
18968TIP3    H278396   4.254   1.074  12.854 -0.1203  0.7767 -1.7114
18969TIP3   OH278397   4.451   3.031   0.984  0.1634 -0.0048  0.6944
18969TIP3    H178398   4.441   2.961   1.048  0.5177  0.4711  1.2690
18969TIP3    H278399   4.522   3.085   1.017 -0.2688  0.7702  0.3788
18970TIP3   OH278400   6.147   1.386  11.041 -0.5673 -0.3865 -0.5564
18970TIP3    H178401   6.064   1.431  11.060 -0.0754  0.2197  0.2743
18970TIP3    H278402   6.164   1.404  10.949 -2.2818 -2.1000 -1.2682
18971TIP3   OH278403   4.181   2.924  14.462  0.0111 -0.1746 -0.6200
18971TIP3    H178404   4.186   2.978  14.541 -0.9344 -1.3830  0.3163
18971TIP3    H278405   4.264   2.939  14.417  0.1200  1.3888  0.0250
18972TIP3   OH278406   1.135   4.912   6.452  0.5614 -0.1764 -0.2834
18972TIP3    H178407   1.191   4.837   6.435 -0.5256 -0.3615 -3.7686
18972TIP3    H278408   1.188   4.969   6.508  2.8599 -1.8190 -0.6337
18973TIP3   OH278409   4.412   6.553   1.373  0.2508 -0.3809  0.4101
18973TIP3    H178410   4.385   6.624   1.431  0.4172 -1.3510  1.7370
18973TIP3    H278411   4.492   6.518   1.413  1.2275 -0.1373 -1.2477
18974TIP3   OH278412   5.903   0.325   0.166 -0.3889 -0.1795 -0.2765
18974TIP3    H178413   5.847   0.395   0.199 -1.3151 -0.3662 -1.4016
18974TIP3    H278414   5.975   0.320   0.230 -0.7346  1.2264  0.2580
18975TIP3   OH278415   0.268   6.409  16.813  0.0267 -0.1996  0.0142
18975TIP3    H178416   0.351   6.443  16.779  0.4714 -1.0266  0.2698
18975TIP3    H278417   0.207   6.417  16.740  0.5024 -0.2257 -0.3853
18976TIP3   OH278418   1.683   1.689  17.255 -0.2393  0.2895  0.6950
18976TIP3    H178419   1.726   1.690  17.341  0.4265 -2.0546  0.4534
18976TIP3    H278420   1.755   1.692  17.192 -0.5950 -0.3149  0.2511
18977TIP3   OH278421   6.582   4.632   1.836  1.0458  0.7260  0.2573
18977TIP3    H178422   6.622   4.707   1.793 -0.1428  0.8601 -0.6685
18977TIP3    H278423   6.588   4.561   1.772  0.9410  0.4039  0.5956
18978TIP3   OH278424   3.331   2.558  15.916 -0.0572  0.2012 -0.2671
18978TIP3    H178425   3.324   2.467  15.888 -2.7382 -0.2772  1.4876
18978TIP3    H278426   3.359   2.606  15.838 -2.3050 -1.6328 -2.3791
18979TIP3   OH278427   0.186   4.424   2.252  0.1798  0.1025 -0.2273
18979TIP3    H178428   0.193   4.395   2.161 -0.8005  0.2678 -0.3622
18979TIP3    H278429   0.111   4.377   2.287  0.2463  0.4184  0.3558
18980TIP3   OH278430   4.880   3.857   1.654  0.3997 -0.7437 -0.0250
18980TIP3    H178431   4.901   3.944   1.689 -0.9181 -0.2522 -0.3699
18980TIP3    H278432   4.962   3.809   1.657  1.4636  0.9199 -1.0044
18981TIP3   OH278433   4.609   4.584  11.572  0.1071 -0.4650 -0.3197
18981TIP3    H178434   4.627   4.523  11.644  1.0114  1.0878  0.8166
18981TIP3    H278435   4.518   4.610  11.585 -0.1351 -1.1719 -0.5281
18982TIP3   OH278436   1.174   0.216   0.064 -0.4271  0.1031  0.4032
18982TIP3    H178437   1.263   0.244   0.043 -0.4076  0.0961  0.4741
18982TIP3    H278438   1.186   0.155   0.137  0.0084 -3.6092 -2.4466
18983TIP3   OH278439   0.350   0.910   5.458  0.3586 -0.5796  0.5979
18983TIP3    H178440   0.313   0.860   5.531  1.2965  0.6147  1.9406
18983TIP3    H278441   0.394   0.984   5.499  2.3785 -0.7645 -1.0683
18984TIP3   OH278442   5.205   5.167   1.985 -0.2825  0.1948  0.3486
18984TIP3    H178443   5.298   5.160   1.960 -0.6309 -1.5563 -0.6244
18984TIP3    H278444   5.197   5.255   2.020  1.7132  0.4727  0.2665
18985TIP3   OH278445   3.151   3.566  12.907  0.1056  0.0074  0.5323
18985TIP3    H178446   3.219   3.543  12.843  0.0009  1.4714 -0.1487
18985TIP3    H278447   3.199   3.583  12.988  0.3545 -0.7608  0.5551
18986TIP3   OH278448   5.486   2.947  14.052  0.2170  0.4597 -0.1228
18986TIP3    H178449   5.488   3.006  14.127  3.2628  0.2990  0.0548
18986TIP3    H278450   5.443   2.997  13.983  0.1671  1.7985  0.8453
18987TIP3   OH278451   5.172   3.521   6.486 -0.4147  0.1806 -0.3392
18987TIP3    H178452   5.263   3.535   6.461 -0.4808  1.0315 -0.1148
18987TIP3    H278453   5.129   3.605   6.470 -0.4851  0.7726  2.5392
18988TIP3   OH278454   0.534   6.448   3.377  0.1363  0.5736 -0.0356
18988TIP3    H178455   0.499   6.469   3.464 -1.7616  0.2035 -0.6694
18988TIP3    H278456   0.584   6.368   3.391 -1.3386 -0.2936  0.4877
18989TIP3   OH278457   6.774   2.130   0.197 -0.2887 -0.1960 -0.4181
18989TIP3    H178458   6.786   2.141   0.103  1.1191  0.6020 -0.1602
18989TIP3    H278459   6.862   2.124   0.233 -0.8084 -1.8224  0.7262
18990TIP3   OH278460   2.529   1.899   1.354  0.1949 -0.3724  0.1838
18990TIP3    H178461   2.601   1.854   1.399  0.4809  1.4106  1.6309
18990TIP3    H278462   2.450   1.866   1.397  0.2258 -1.2012 -0.3691
18991TIP3   OH278463   3.236   3.432   5.135 -0.2470  0.3185  0.2640
18991TIP3    H178464   3.150   3.390   5.147  0.1210 -0.8886 -1.0180
18991TIP3    H278465   3.294   3.360   5.110  0.9820  1.2447  0.3683
18992TIP3   OH278466   5.301   0.450  15.302 -0.0966  0.4716 -0.2707
18992TIP3    H178467   5.210   0.473  15.318 -0.4830 -0.7016 -0.6587
18992TIP3    H278468   5.304   0.355  15.312  1.2147  0.5449  0.3208
18993TIP3   OH278469   2.981   6.809   6.141 -0.3298 -0.0862 -0.1213
18993TIP3    H178470   3.044   6.770   6.202 -2.2104  1.6435  3.2312
18993TIP3    H278471   3.019   6.895   6.121 -0.3812 -0.0943 -0.2522
18994TIP3   OH278472   3.596   4.746  15.881 -0.2428 -0.3175  0.0081
18994TIP3    H178473   3.672   4.770  15.934 -0.4853 -0.0150  0.2216
18994TIP3    H278474   3.522   4.747  15.943 -0.2214 -1.9195  0.1046
18995TIP3   OH278475   5.936   6.271  10.731 -0.3935 -0.6954  0.3334
18995TIP3    H178476   5.856   6.315  10.759 -0.5994 -1.6687  1.3702
18995TIP3    H278477   6.005   6.309  10.786 -0.1326  0.1047 -0.5213
18996TIP3   OH278478   1.562   3.933   0.637 -0.5454 -0.2001 -0.2169
18996TIP3    H178479   1.476   3.949   0.676 -1.2437 -0.8177 -1.4473
18996TIP3    H278480   1.618   3.908   0.711 -1.3134  0.5603  0.6513
18997TIP3   OH278481   5.009   4.321   0.200 -0.3057 -0.2309  0.0157
18997TIP3    H178482   4.964   4.311   0.116  0.0878  0.7354 -0.3197
18997TIP3    H278483   5.101   4.304   0.179 -0.0426  1.1067  0.0094
18998TIP3   OH278484   2.222   0.075  12.392  0.2177 -0.3192  0.3551
18998TIP3    H178485   2.154   0.016  12.423  0.0059 -0.0566  0.3894
18998TIP3    H278486   2.272   0.098  12.470  0.1468 -0.2515  0.3795
18999TIP3   OH278487   5.697   3.258  14.602  0.2666 -0.5518 -0.6739
18999TIP3    H178488   5.635   3.227  14.667 -0.2870  0.4222 -0.7203
18999TIP3    H278489   5.659   3.232  14.518  0.1750 -0.3901 -0.6817
19000TIP3   OH278490   5.142   4.413   1.838 -0.6899  0.5184 -0.4224
19000TIP3    H178491   5.131   4.502   1.872 -3.1684  0.6701 -1.4519
19000TIP3    H278492   5.140   4.357   1.916 -1.8876  1.1803  0.0459
19001TIP3   OH278493   5.644   1.379   1.654 -0.2985  0.4644 -0.1589
19001TIP3    H178494   5.662   1.378   1.560 -4.9243 -1.8965 -1.2825
19001TIP3    H278495   5.573   1.443   1.665 -0.9504 -0.4700  1.4356
19002TIP3   OH278496   2.744   3.531   3.634  0.0309  0.2569 -0.6961
19002TIP3    H178497   2.743   3.606   3.574  1.7983  0.3763 -0.6110
19002TIP3    H278498   2.827   3.488   3.617 -0.1324 -0.6069  0.5939
19003TIP3   OH278499   6.592   1.891  11.515  0.8064 -0.2620 -0.6456
19003TIP3    H178500   6.502   1.911  11.539  0.6054 -0.2666 -1.3582
19003TIP3    H278501   6.589   1.802  11.479  0.9547  0.0003 -1.3380
19004TIP3   OH278502   6.391   0.697   0.270 -0.3478 -0.4124  0.1498
19004TIP3    H178503   6.453   0.767   0.252  0.8027 -1.3269  0.4136
19004TIP3    H278504   6.316   0.740   0.312 -1.0486  1.0928 -2.4182
19005TIP3   OH278505   0.510   4.172  13.073  0.2928 -0.0993  0.1511
19005TIP3    H178506   0.458   4.244  13.110 -0.4251 -0.6961  0.3068
19005TIP3    H278507   0.565   4.143  13.146 -1.3476 -1.4839  0.8864
19006TIP3   OH278508   0.901   1.026   5.647  0.4918 -0.4968  0.0033
19006TIP3    H178509   0.841   1.100   5.654  0.1349 -0.7328 -0.4901
19006TIP3    H278510   0.985   1.060   5.676  0.2033 -0.0556  0.3286
19007TIP3   OH278511   1.879   4.193  14.810 -0.1584 -0.0478 -0.1086
19007TIP3    H178512   1.960   4.167  14.767 -0.2788 -1.4450  0.4501
19007TIP3    H278513   1.823   4.115  14.805 -0.0900 -0.3759  2.6890
19008TIP3   OH278514   2.792   2.605  15.709 -0.4173 -0.8879 -0.1231
19008TIP3    H178515   2.865   2.662  15.685 -0.7916  0.0749  0.9308
19008TIP3    H278516   2.832   2.533  15.757  0.0489 -1.4625 -1.3443
19009TIP3   OH278517   1.037   2.971  16.025  0.7276 -0.1773  0.1608
19009TIP3    H178518   1.037   3.040  16.092  0.1608  0.2757 -0.2843
19009TIP3    H278519   0.995   2.896  16.068 -0.5442  0.4254  0.0344
19010TIP3   OH278520   5.391   5.103  15.891  0.1106 -0.1448 -0.6943
19010TIP3    H178521   5.360   5.027  15.843 -1.3370  1.0008 -1.6801
19010TIP3    H278522   5.464   5.136  15.840  3.2518 -2.8327  1.6170
19011TIP3   OH278523   4.904   1.512   6.319  0.4901 -0.0307  0.1237
19011TIP3    H178524   5.000   1.512   6.324  0.5439  1.8073 -0.3713
19011TIP3    H278525   4.875   1.513   6.410  1.0387  3.3168  0.3579
19012TIP3   OH278526   2.571   6.620  16.403  0.5812  0.1514 -0.6414
19012TIP3    H178527   2.558   6.715  16.410  0.0558  0.0084  0.6441
19012TIP3    H278528   2.666   6.609  16.404  0.7828  0.4742  3.8775
19013TIP3   OH278529   3.416   2.267   2.360  0.3377  0.2154  0.0404
19013TIP3    H178530   3.385   2.296   2.275  0.5472 -0.1341 -0.1563
19013TIP3    H278531   3.386   2.177   2.368  1.7597 -0.3240 -0.3969
19014TIP3   OH278532   6.190   4.229  16.724  0.5723 -0.0935 -0.2248
19014TIP3    H178533   6.161   4.209  16.813  0.5155  1.5740  0.1542
19014TIP3    H278534   6.226   4.146  16.692 -0.9116 -1.1611  0.7335
19015TIP3   OH278535   4.411   3.228   5.160 -0.0221  0.4692  0.5888
19015TIP3    H178536   4.472   3.270   5.221  1.3915 -0.9546  0.2121
19015TIP3    H278537   4.408   3.287   5.085 -3.3804  3.3561  2.6403
19016TIP3   OH278538   2.504   5.604   1.874  0.1038  0.0737  0.0039
19016TIP3    H178539   2.472   5.585   1.962 -0.1071 -0.1317 -0.1151
19016TIP3    H278540   2.583   5.657   1.887 -0.4531  0.8404  0.2980
19017TIP3   OH278541   2.177   1.322  14.088 -0.2593  0.2116  0.3538
19017TIP3    H178542   2.110   1.265  14.125 -0.5009  0.5942  0.5098
19017TIP3    H278543   2.129   1.377  14.025  0.0615 -0.1056 -0.1773
19018TIP3   OH278544   2.636   5.967   6.139 -0.1580 -0.3336 -0.5179
19018TIP3    H178545   2.688   6.048   6.137  1.4128 -1.2927 -1.7040
19018TIP3    H278546   2.657   5.928   6.224 -2.9069  1.6117  1.2259
19019TIP3   OH278547   4.165   2.242  13.398  0.1367 -0.2319 -0.2814
19019TIP3    H178548   4.260   2.247  13.382  0.2748  0.2617  0.6749
19019TIP3    H278549   4.156   2.241  13.493 -0.8968  1.5025 -0.3105
19020TIP3   OH278550   3.819   1.322  17.119  0.5309 -0.2823 -0.2105
19020TIP3    H178551   3.848   1.401  17.166 -0.3663 -0.7293  1.1761
19020TIP3    H278552   3.769   1.355  17.044 -0.8672  0.5187  1.0142
19021TIP3   OH278553   0.603   1.715   4.062  0.3496 -0.3408 -0.7232
19021TIP3    H178554   0.595   1.805   4.031 -0.1758 -0.3586 -0.6396
19021TIP3    H278555   0.686   1.713   4.110  0.0625  0.2590 -0.1912
19022TIP3   OH278556   3.901   0.782  15.519  0.0036 -0.1813 -0.2088
19022TIP3    H178557   3.850   0.789  15.600  1.6807  0.9008  0.8106
19022TIP3    H278558   3.989   0.758  15.547  0.9738  1.5414 -1.5705
19023TIP3   OH278559   5.113   3.278  15.840  0.1799  0.1702  0.0092
19023TIP3    H178560   5.136   3.250  15.929  0.0187  1.1895  0.3831
19023TIP3    H278561   5.169   3.225  15.783  1.7778  0.9369  0.8117
19024TIP3   OH278562   4.112   4.877  16.105 -0.4290  0.4173  0.2155
19024TIP3    H178563   4.115   4.785  16.079 -2.1146  0.0898  1.0839
19024TIP3    H278564   4.127   4.925  16.023 -1.6931 -0.6177 -0.6686
19025TIP3   OH278565   0.119   2.117  13.527 -0.3219 -0.9326  0.3165
19025TIP3    H178566   0.073   2.127  13.610 -0.0355 -1.6906  0.5755
19025TIP3    H278567   0.207   2.088  13.552 -0.2314 -1.1563 -0.2495
19026TIP3   OH278568   2.730   5.785   1.938 -0.1458  0.2020  0.3059
19026TIP3    H178569   2.716   5.755   2.028  0.0988  1.5733  0.8284
19026TIP3    H278570   2.825   5.797   1.931 -0.3315  2.0115  0.5342
19027TIP3   OH278571   3.914   3.627   3.325  0.3066  0.6296 -0.1090
19027TIP3    H178572   3.940   3.698   3.267  1.9530  0.0643 -0.1277
19027TIP3    H278573   3.914   3.549   3.268  0.3435  0.3289  0.2999
19028TIP3   OH278574   3.754   1.680  15.253 -0.2002 -0.0715  0.1735
19028TIP3    H178575   3.709   1.599  15.276  0.2474 -0.6147 -0.8111
19028TIP3    H278576   3.686   1.737  15.218 -0.4076 -0.2517  0.2810
19029TIP3   OH278577   3.786   6.726   1.648 -0.4344 -0.6620  0.7759
19029TIP3    H178578   3.700   6.736   1.687 -0.3891  0.9646  0.5122
19029TIP3    H278579   3.842   6.787   1.696 -0.1078  0.4957 -0.9603
19030TIP3   OH278580   3.647   6.349  15.799 -0.2462 -0.0237  0.2398
19030TIP3    H178581   3.740   6.335  15.819 -0.4332  1.3065  2.2773
19030TIP3    H278582   3.605   6.266  15.825  0.2570 -0.3157  0.1390
19031TIP3   OH278583   0.591   1.206  12.990 -1.0607 -0.1648  0.0043
19031TIP3    H178584   0.578   1.268  13.061 -0.6091 -1.4589  1.2531
19031TIP3    H278585   0.679   1.171  13.005 -1.0384 -0.6162 -1.0857
19032TIP3   OH278586   2.814   0.920  16.638 -0.0362  0.3898 -0.3526
19032TIP3    H178587   2.881   0.905  16.571 -1.8313 -2.1347 -1.7637
19032TIP3    H278588   2.761   0.992  16.603  0.5741  0.8614 -0.3243
19033TIP3   OH278589   2.641   1.089   6.203  0.2012  0.2113  0.0199
19033TIP3    H178590   2.726   1.132   6.209  1.1131 -1.5679  0.7527
19033TIP3    H278591   2.608   1.088   6.293 -0.0343 -0.1256 -0.0674
19034TIP3   OH278592   1.347   3.867  11.289 -0.3192  0.2376 -0.1147
19034TIP3    H178593   1.336   3.775  11.309 -0.0747  0.4313  0.9590
19034TIP3    H278594   1.438   3.875  11.262  0.1291  0.4296  1.3972
19035TIP3   OH278595   1.524   6.479   6.324  0.4714 -0.4258  0.2525
19035TIP3    H178596   1.458   6.484   6.393 -0.0257  1.7783 -0.2812
19035TIP3    H278597   1.497   6.405   6.270 -0.1561 -1.0655  1.4137
19036TIP3   OH278598   1.210   5.528   0.211 -0.2171 -0.0501 -0.5786
19036TIP3    H178599   1.154   5.597   0.175 -1.0799  0.5337  1.7126
19036TIP3    H278600   1.285   5.576   0.247  0.0743 -0.5104 -0.5687
19037TIP3   OH278601   2.202   1.115   5.129  0.3792 -0.3941  0.4861
19037TIP3    H178602   2.216   1.191   5.072  0.8866 -1.5314 -0.9573
19037TIP3    H278603   2.115   1.130   5.168 -0.4961 -0.0963 -1.4576
19038TIP3   OH278604   2.461   5.701  15.154 -0.0060  0.0315 -0.4833
19038TIP3    H178605   2.511   5.648  15.092 -0.9450 -1.1555 -0.2679
19038TIP3    H278606   2.512   5.697  15.235  1.3419  1.7745 -1.1819
19039TIP3   OH278607   2.652   0.094   0.776 -0.0519 -0.0374 -0.0855
19039TIP3    H178608   2.705   0.043   0.837 -0.0676 -0.7972 -0.6900
19039TIP3    H278609   2.679   0.185   0.791  0.3722 -0.2733  0.6220
19040TIP3   OH278610   6.654   1.153   6.160  0.1790 -0.4656  0.3396
19040TIP3    H178611   6.598   1.079   6.136  0.3204 -0.3207 -0.4741
19040TIP3    H278612   6.615   1.228   6.115 -0.4973  0.1383  1.8916
19041TIP3   OH278613   5.509   0.046  11.465  0.2250  0.4883 -0.1548
19041TIP3    H178614   5.530   0.097  11.543 -1.2994 -0.5333  0.9809
19041TIP3    H278615   5.536   0.101  11.392  1.5449  1.5470  1.0746
19042TIP3   OH278616   2.675   3.482  14.901 -0.8635 -0.0703  0.3243
19042TIP3    H178617   2.591   3.512  14.865 -0.0115  1.0114 -0.8785
19042TIP3    H278618   2.657   3.465  14.993 -2.0191  1.8813  0.5167
19043TIP3   OH278619   2.353   6.504   1.731  0.2947  0.8119 -0.8205
19043TIP3    H178620   2.430   6.560   1.722  0.2801  0.6550 -2.2887
19043TIP3    H278621   2.361   6.464   1.818  0.9163  2.1686 -0.2398
19044TIP3   OH278622   4.116   4.147   5.618  0.1231 -0.0839 -0.0597
19044TIP3    H178623   4.209   4.146   5.640  0.2898 -0.9837 -0.7702
19044TIP3    H278624   4.089   4.055   5.622 -1.2467  0.3330  2.2192
19045TIP3   OH278625   3.189   1.998  14.430  0.3640 -0.5077  0.3376
19045TIP3    H178626   3.215   1.974  14.341  0.1530 -2.4295  0.7456
19045TIP3    H278627   3.178   2.093  14.427 -1.6185 -0.6960 -2.2181
19046TIP3   OH278628   6.702   1.952  16.864  0.0517  0.0445  0.2183
19046TIP3    H178629   6.693   1.922  16.954  2.3317  0.0447  0.4900
19046TIP3    H278630   6.638   1.900  16.815 -0.6923 -0.4916  1.7002
19047TIP3   OH278631   6.336   3.814  13.888  0.3532 -0.0928 -0.3568
19047TIP3    H178632   6.253   3.828  13.843 -0.7507 -4.4106 -0.1043
19047TIP3    H278633   6.402   3.816  13.819 -0.6712 -1.5840 -1.4427
19048TIP3   OH278634   6.750   5.460  14.613 -0.3054 -0.4915 -0.1099
19048TIP3    H178635   6.757   5.499  14.700 -0.6827  0.9321 -0.7037
19048TIP3    H278636   6.838   5.427  14.595 -0.0035 -0.0087  0.4453
19049TIP3   OH278637   2.167   0.228  12.696  0.3959 -0.3999 -0.3356
19049TIP3    H178638   2.249   0.272  12.673  0.3375  0.4099  0.9072
19049TIP3    H278639   2.193   0.158  12.755  0.1816  0.0158  0.2621
19050TIP3   OH278640   0.463   5.072   1.047  0.5206 -0.2289 -0.4439
19050TIP3    H178641   0.554   5.048   1.030  1.7963  4.0305 -0.8811
19050TIP3    H278642   0.428   5.094   0.961 -0.6941 -1.0518 -0.1778
19051TIP3   OH278643   4.099   3.137  11.612  0.2542 -0.1915  0.8322
19051TIP3    H178644   4.113   3.119  11.704 -1.0961 -0.6937  0.9628
19051TIP3    H278645   4.088   3.050  11.572 -1.0829  0.0766  0.5567
19052TIP3   OH278646   4.706   4.640   6.184  0.0731  0.1919 -0.1897
19052TIP3    H178647   4.691   4.658   6.277  0.7695  0.4896 -0.1304
19052TIP3    H278648   4.622   4.608   6.152  0.0061 -0.5348  0.6904
19053TIP3   OH278649   6.192   1.944  16.299  0.2244  0.2021 -0.3322
19053TIP3    H178650   6.193   2.026  16.251  1.0102  0.6803  0.4791
19053TIP3    H278651   6.264   1.951  16.362  0.0772 -0.9545 -0.0029
19054TIP3   OH278652   6.731   4.224  16.436 -0.2096 -0.0176 -0.6865
19054TIP3    H178653   6.772   4.310  16.428 -1.2781  0.7288  1.0570
19054TIP3    H278654   6.784   4.166  16.382  1.5439  1.4105 -0.5810
19055TIP3   OH278655   3.773   2.683  16.969 -0.3033 -0.0376  0.1514
19055TIP3    H178656   3.857   2.729  16.974 -1.3690  1.8616  1.5774
19055TIP3    H278657   3.774   2.624  17.045 -0.0747 -0.3615 -0.1015
19056TIP3   OH278658   1.185   3.553  11.050  0.1425 -0.2115 -0.0898
19056TIP3    H178659   1.202   3.460  11.065  1.1207 -0.4844 -2.5197
19056TIP3    H278660   1.235   3.598  11.118 -0.9971 -1.4201  1.6418
19057TIP3   OH278661   5.893   2.639  13.559  0.2531 -0.9002  0.6388
19057TIP3    H178662   5.799   2.641  13.575  0.1680  0.3117  0.1789
19057TIP3    H278663   5.901   2.616  13.466  0.2619  1.2489  0.0511
19058TIP3   OH278664   0.620   2.209  12.072 -0.1746 -0.3912  0.0080
19058TIP3    H178665   0.671   2.276  12.027  0.2226 -0.2772  0.6216
19058TIP3    H278666   0.595   2.148  12.002  0.1537 -0.0442 -0.4229
19059TIP3   OH278667   2.717   2.210   6.388 -0.3410 -0.4619 -0.4358
19059TIP3    H178668   2.771   2.144   6.345 -0.3130 -0.7996  0.1016
19059TIP3    H278669   2.748   2.211   6.479  0.5011  1.1675 -0.6914
19060TIP3   OH278670   4.835   6.044   4.584  0.2745  0.0955 -0.0714
19060TIP3    H178671   4.810   5.954   4.606  1.6726  0.0454  1.5250
19060TIP3    H278672   4.756   6.095   4.598 -0.0345 -0.6217  0.9210
19061TIP3   OH278673   6.171   1.190  15.804  1.1316  0.2017 -0.0657
19061TIP3    H178674   6.115   1.209  15.729  0.6713 -1.5595 -0.2068
19061TIP3    H278675   6.254   1.233  15.782  0.9226 -0.0412 -1.4666
19062TIP3   OH278676   4.206   6.817  16.908  0.4090  0.0400 -0.1991
19062TIP3    H178677   4.210   6.727  16.940 -1.7329  0.2272  0.7629
19062TIP3    H278678   4.296   6.839  16.887  1.6097 -1.0855  3.0923
19063TIP3   OH278679   5.719   1.824   4.151  0.2975 -0.7656  0.6972
19063TIP3    H178680   5.796   1.768   4.145  0.8287  0.0438 -0.2128
19063TIP3    H278681   5.743   1.892   4.214  0.3196 -0.5303  0.4373
19064TIP3   OH278682   0.367   4.194   3.406 -0.5093  0.1689  0.4441
19064TIP3    H178683   0.377   4.130   3.476 -0.9922  0.0253  0.3812
19064TIP3    H278684   0.362   4.142   3.326 -1.2123  0.2632  0.4205
19065TIP3   OH278685   6.100   5.949  16.751 -0.1022  0.4212 -0.5890
19065TIP3    H178686   6.014   5.909  16.760 -0.5757  1.1971 -1.4908
19065TIP3    H278687   6.100   5.987  16.663  1.1931  0.3598 -0.6370
19066TIP3   OH278688   1.915   3.765  15.683 -0.1922 -0.0401  0.3661
19066TIP3    H178689   1.824   3.748  15.709 -0.3858  2.0528  1.2112
19066TIP3    H278690   1.920   3.731  15.593 -2.1670  0.8667 -0.1556
19067TIP3   OH278691   2.468   1.619  15.657  0.1934  0.3018 -0.6997
19067TIP3    H178692   2.435   1.552  15.597 -1.1900 -0.3219  0.6903
19067TIP3    H278693   2.445   1.587  15.744  4.9815 -0.5127  0.5960
19068TIP3   OH278694   2.407   0.364   0.525  0.5013  0.1851 -0.4405
19068TIP3    H178695   2.343   0.348   0.455  0.9568 -1.6153 -0.4923
19068TIP3    H278696   2.492   0.348   0.483  0.7981 -0.5967  0.4260
19069TIP3   OH278697   0.255   1.834   5.125 -0.3639  0.8246  0.2023
19069TIP3    H178698   0.310   1.769   5.167 -0.2852 -0.3652 -1.6243
19069TIP3    H278699   0.308   1.867   5.052 -1.3058  1.1127 -0.3776
19070TIP3   OH278700   6.268   1.870   3.547 -0.2806  0.2742 -0.1898
19070TIP3    H178701   6.190   1.838   3.502 -1.2877  0.4201  1.3778
19070TIP3    H278702   6.340   1.817   3.512 -0.8677  0.8652 -2.4671
19071TIP3   OH278703   6.074   1.564  10.531  0.3492 -0.2511 -1.0314
19071TIP3    H178704   6.025   1.644  10.546  1.6234  0.2569  0.9131
19071TIP3    H278705   6.136   1.586  10.461  1.7259  1.0430  0.4963
19072TIP3   OH278706   5.109   3.097   2.483  0.2193 -0.0461 -0.0465
19072TIP3    H178707   5.188   3.136   2.521 -0.2797 -0.0210  1.0016
19072TIP3    H278708   5.051   3.083   2.558 -0.5772 -0.5252 -0.7391
19073TIP3   OH278709   2.200   6.082  15.412  0.3222  0.0595  0.4219
19073TIP3    H178710   2.160   6.116  15.331  2.0263  0.4046 -0.3176
19073TIP3    H278711   2.195   5.987  15.403  0.8614  0.0871 -0.3072
19074TIP3   OH278712   1.432   1.101  12.261 -0.6160  0.5883 -0.0065
19074TIP3    H178713   1.489   1.165  12.306  0.9322 -0.8347  0.1613
19074TIP3    H278714   1.367   1.076  12.327  1.1539 -0.8832  1.2842
19075TIP3   OH278715   0.635   5.749  16.349  0.2895  0.5549 -0.1312
19075TIP3    H178716   0.573   5.789  16.410 -1.5352  0.4662 -1.8529
19075TIP3    H278717   0.684   5.823  16.313  0.3211  0.7444  0.2856
19076TIP3   OH278718   4.255   1.878  13.069 -0.1188 -0.2938 -0.0943
19076TIP3    H178719   4.273   1.949  13.131 -0.7592 -1.5008  1.5478
19076TIP3    H278720   4.341   1.845  13.044  0.1776  0.8189 -0.6136
19077TIP3   OH278721   5.716   6.763  15.196  0.3303  0.5429 -0.2026
19077TIP3    H178722   5.758   6.849  15.199 -1.0553  1.2757 -0.8171
19077TIP3    H278723   5.783   6.705  15.160  1.5130  1.2106  0.8748
19078TIP3   OH278724   0.883   4.588  15.163 -0.4757  0.0863  0.1030
19078TIP3    H178725   0.871   4.613  15.071 -1.0523 -0.2501  0.0830
19078TIP3    H278726   0.912   4.497  15.159 -1.0975 -0.1231  0.2726
19079TIP3   OH278727   5.206   0.988   3.379  0.6640 -0.0258  0.0898
19079TIP3    H178728   5.282   1.027   3.336  2.0225 -0.5738  1.8619
19079TIP3    H278729   5.234   0.898   3.399 -1.3188 -1.0209 -1.2865
19080TIP3   OH278730   6.753   6.824   2.079 -0.2238 -0.8519 -0.3097
19080TIP3    H178731   6.838   6.836   2.036  0.3540 -0.0812  0.9836
19080TIP3    H278732   6.762   6.741   2.127 -0.0557 -0.5710  0.1469
19081TIP3   OH278733   3.416   2.806   1.530 -0.5170  0.4498  0.0931
19081TIP3    H178734   3.492   2.864   1.534 -0.8598  0.8743  0.6448
19081TIP3    H278735   3.430   2.753   1.452  1.2927 -0.8096  1.1999
19082TIP3   OH278736   0.580   4.900   2.073 -0.0171 -0.2667  0.3768
19082TIP3    H178737   0.584   4.982   2.024 -1.0108 -0.0639  0.6057
19082TIP3    H278738   0.502   4.909   2.128  0.4950 -0.9093  1.2373
19083TIP3   OH278739   1.267   3.033  16.221  0.5543  0.0210  0.0502
19083TIP3    H178740   1.363   3.037  16.220  0.5512  0.0914  0.0070
19083TIP3    H278741   1.240   3.112  16.175  0.4768 -0.0309  0.0065
19084TIP3   OH278742   1.648   0.990  15.278 -0.1702 -0.5916  0.2159
19084TIP3    H178743   1.648   1.073  15.230 -0.5837 -1.5267 -1.4932
19084TIP3    H278744   1.616   1.013  15.365  0.5490  1.1739  0.0517
19085TIP3   OH278745   4.380   2.485  14.272  0.0246 -0.7128 -0.2388
19085TIP3    H178746   4.357   2.528  14.189  0.7500  1.7971  0.7751
19085TIP3    H278747   4.376   2.555  14.337 -1.9836 -2.9030  2.1852
19086TIP3   OH278748   3.461   3.897   0.401 -0.3276  0.1633  0.1233
19086TIP3    H178749   3.424   3.980   0.429 -0.3702 -0.1185  0.9453
19086TIP3    H278750   3.423   3.832   0.461  0.6425 -0.2750  0.2943
19087TIP3   OH278751   5.506   3.831  11.918  0.4699  0.0952  0.5910
19087TIP3    H178752   5.548   3.864  11.997  0.5015  0.7294  0.3167
19087TIP3    H278753   5.501   3.907  11.860  0.0708 -0.2643  0.1435
19088TIP3   OH278754   1.005   4.479  13.462 -0.0835 -0.5182  0.3553
19088TIP3    H178755   0.943   4.406  13.458 -0.9809  0.0234  2.8278
19088TIP3    H278756   0.950   4.558  13.455  0.4682 -0.0482  1.2320
19089TIP3   OH278757   3.505   2.342   4.130  0.0998  0.3849  0.9512
19089TIP3    H178758   3.506   2.425   4.081  1.8678  0.9141  1.8074
19089TIP3    H278759   3.441   2.288   4.083  0.2890  1.5525 -0.7721
19090TIP3   OH278760   4.624   3.377   5.673  0.3316  0.6303  0.4709
19090TIP3    H178761   4.712   3.359   5.641  0.3401 -1.0717  1.2996
19090TIP3    H278762   4.637   3.405   5.764  0.0748  1.5467  0.2350
19091TIP3   OH278763   6.652   4.099   4.709 -0.1375 -0.1146  0.3262
19091TIP3    H178764   6.741   4.087   4.677 -0.4205  0.1233 -0.5830
19091TIP3    H278765   6.657   4.175   4.767  0.0177  0.6819 -0.7128
19092TIP3   OH278766   0.561   1.085   2.038  0.0696 -0.2195 -0.7873
19092TIP3    H178767   0.567   1.029   2.116  0.3207  0.4710 -0.3017
19092TIP3    H278768   0.528   1.027   1.970  1.0071 -1.1539 -0.4809
19093TIP3   OH278769   5.682   1.068   2.044  0.9106  0.5005  0.5215
19093TIP3    H178770   5.706   0.979   2.019  0.1950  0.1789  0.9703
19093TIP3    H278771   5.638   1.103   1.967  1.2262  0.4889  0.3311
19094TIP3   OH278772   3.337   0.756  11.307  0.4984  1.1335 -0.0632
19094TIP3    H178773   3.364   0.667  11.331  0.7838  1.5449  1.1984
19094TIP3    H278774   3.336   0.755  11.211  0.0930 -0.3404 -0.0707
19095TIP3   OH278775   3.592   0.927   6.241  0.1755  0.2983 -0.6084
19095TIP3    H178776   3.539   0.985   6.295  0.3489  0.8648 -1.0311
19095TIP3    H278777   3.631   0.866   6.302 -3.0504 -1.9079 -0.4733
19096TIP3   OH278778   0.161   4.546   6.186  0.0194 -0.4175  0.1567
19096TIP3    H178779   0.116   4.521   6.267  0.8691  0.7679  1.0159
19096TIP3    H278780   0.133   4.636   6.169 -0.7834 -0.9043 -1.3454
19097TIP3   OH278781   1.715   2.081   3.725 -0.3571  0.5222  0.3771
19097TIP3    H178782   1.646   2.147   3.718 -0.1274  0.6892 -0.4859
19097TIP3    H278783   1.700   2.023   3.650 -0.6264 -0.4781  1.1905
19098TIP3   OH278784   4.554   3.674   1.961  0.2400  0.1217 -0.0072
19098TIP3    H178785   4.641   3.635   1.950  1.2565  1.9054  1.1379
19098TIP3    H278786   4.556   3.711   2.049 -1.2055  1.3360 -0.4507
19099TIP3   OH278787   4.704   0.959  13.816  0.0618  0.2039  0.4778
19099TIP3    H178788   4.662   0.997  13.893  0.0099  0.4238  0.3442
19099TIP3    H278789   4.681   0.866  13.819  2.1102 -0.3055  2.0734
19100TIP3   OH278790   5.028   4.578  12.078 -0.0802  0.0248 -0.6189
19100TIP3    H178791   5.016   4.671  12.059  1.1181  0.8686  2.2979
19100TIP3    H278792   4.976   4.562  12.157  0.1901 -1.6435 -0.7330
19101TIP3   OH278793   2.657   0.323  16.442 -0.3956 -0.9525 -0.3224
19101TIP3    H178794   2.642   0.405  16.395 -2.6795 -1.1517 -0.0651
19101TIP3    H278795   2.699   0.349  16.524 -1.0569 -0.0271 -0.2665
19102TIP3   OH278796   1.007   2.549   5.793 -0.0058  0.6290  0.4415
19102TIP3    H178797   0.977   2.538   5.703  0.0476 -0.6588  0.5637
19102TIP3    H278798   0.935   2.595   5.837 -0.1188  1.0749 -0.1876
19103TIP3   OH278799   6.760   4.810  12.258 -0.2609  0.2332 -0.4538
19103TIP3    H178800   6.702   4.750  12.210  0.6090 -0.5073 -0.6049
19103TIP3    H278801   6.846   4.798  12.218 -0.0525  1.5869 -0.4808
19104TIP3   OH278802   5.766   6.596   1.440 -0.1038 -0.1548  0.0249
19104TIP3    H178803   5.736   6.593   1.530  1.1959  0.2367  0.4903
19104TIP3    H278804   5.854   6.634   1.445 -0.4383  0.9502 -1.5060
19105TIP3   OH278805   4.644   1.799   2.942 -0.0171  0.4481  0.1173
19105TIP3    H178806   4.608   1.815   3.029 -1.9971 -0.1087 -0.5606
19105TIP3    H278807   4.698   1.721   2.953  1.1758  1.3760  1.1806
19106TIP3   OH278808   0.765   5.575   1.045  0.1041  0.1699  0.0798
19106TIP3    H178809   0.741   5.622   1.125  0.2107  0.6693 -0.1784
19106TIP3    H278810   0.698   5.507   1.036 -0.1251  0.3546  0.3877
19107TIP3   OH278811   1.953   5.595  15.924  0.1138  0.1769 -0.5992
19107TIP3    H178812   2.020   5.611  15.990 -2.1395  0.9427  1.6646
19107TIP3    H278813   1.941   5.500  15.925 -0.2809  0.2201  0.5624
19108TIP3   OH278814   4.533   5.499   5.152 -0.3038  0.1751  0.2103
19108TIP3    H178815   4.440   5.522   5.149 -0.8683 -1.9498 -2.1649
19108TIP3    H278816   4.575   5.558   5.089 -0.4343 -0.2513 -0.2828
19109TIP3   OH278817   5.089   1.880   4.610  0.5880 -0.0531  0.5676
19109TIP3    H178818   5.132   1.915   4.688  2.0669  0.0160 -0.2328
19109TIP3    H278819   5.128   1.929   4.537 -0.4222 -0.4345 -0.2618
19110TIP3   OH278820   5.428   5.827  15.666  0.3390  0.7178  0.1933
19110TIP3    H178821   5.470   5.870  15.591 -0.2620  0.5586 -0.2403
19110TIP3    H278822   5.450   5.734  15.655  0.0485  0.6628  0.0843
19111TIP3   OH278823   2.733   1.397  12.035  0.0189 -0.3569 -0.5640
19111TIP3    H178824   2.748   1.491  12.026  1.0520 -0.4449  0.1104
19111TIP3    H278825   2.671   1.376  11.965  0.3345  0.6852 -1.1781
19112TIP3   OH278826   0.484   6.099  15.167  0.2809  0.1774  0.2632
19112TIP3    H178827   0.438   6.158  15.107 -2.2384 -1.0471  0.8734
19112TIP3    H278828   0.453   6.124  15.254  0.9811 -0.5306  0.7292
19113TIP3   OH278829   1.835   1.161   4.278  0.1819 -0.4720  0.4933
19113TIP3    H178830   1.873   1.213   4.208  0.1464 -0.3185  0.5877
19113TIP3    H278831   1.873   1.074   4.267 -1.4052 -1.0414 -1.0049
19114TIP3   OH278832   2.025   5.764   0.035 -0.2919 -0.1396 -0.1762
19114TIP3    H178833   2.115   5.743   0.060 -0.9068 -4.2199 -0.6822
19114TIP3    H278834   1.980   5.781   0.118  0.3091 -1.1496  0.3651
19115TIP3   OH278835   4.399   4.495   2.062  0.3176  0.1765  0.5447
19115TIP3    H178836   4.433   4.557   1.998 -2.8608  1.6408  0.0712
19115TIP3    H278837   4.376   4.418   2.011  1.8379 -0.4308  0.7164
19116TIP3   OH278838   1.626   4.549  11.008  0.0994 -0.0481  0.4590
19116TIP3    H178839   1.598   4.557  11.099  0.3939  0.5730  0.4968
19116TIP3    H278840   1.590   4.626  10.965  0.2272 -0.1795  0.1156
19117TIP3   OH278841   2.141   2.973  14.135 -0.1938  0.0799  0.0370
19117TIP3    H178842   2.226   3.008  14.159  1.4167 -2.6250 -1.2910
19117TIP3    H278843   2.114   2.921  14.210  0.0107 -0.1914 -0.0751
19118TIP3   OH278844   4.522   6.768   0.931 -0.5445 -0.5208 -0.4932
19118TIP3    H178845   4.525   6.680   0.896 -1.4871 -0.9833  0.5244
19118TIP3    H278846   4.441   6.805   0.897  0.2634  0.2763 -1.6098
19119TIP3   OH278847   4.299   3.264   0.200 -0.3269 -0.7140  0.0067
19119TIP3    H178848   4.232   3.196   0.195 -1.2955  0.2275 -0.0685
19119TIP3    H278849   4.261   3.332   0.255  1.0400 -0.6670  0.9567
19120TIP3   OH278850   3.847   1.245   4.244  0.0740 -0.5534  0.9587
19120TIP3    H178851   3.881   1.329   4.212  0.6025 -1.2758 -0.4708
19120TIP3    H278852   3.923   1.201   4.282 -0.1112 -0.5616  1.3255
19121TIP3   OH278853   3.223   1.789   0.654  0.1680  0.3204 -0.0455
19121TIP3    H178854   3.170   1.711   0.669 -1.6089  1.1589 -1.5348
19121TIP3    H278855   3.308   1.756   0.626 -0.0091 -1.0591  0.9384
19122TIP3   OH278856   0.755   2.999   3.505  0.5483  0.4007 -0.2600
19122TIP3    H178857   0.674   3.009   3.454  1.0551  1.2899 -0.9238
19122TIP3    H278858   0.760   2.906   3.523 -0.8084  0.3712  0.1085
19123TIP3   OH278859   6.096   5.226   1.314  0.2899  0.3868  0.3299
19123TIP3    H178860   6.149   5.148   1.329  0.9071  0.4824 -1.1521
19123TIP3    H278861   6.137   5.268   1.238 -0.9283  1.3562  0.1833
19124TIP3   OH278862   3.849   6.797   0.974 -0.2528 -0.4305  0.1822
19124TIP3    H178863   3.814   6.752   0.897  2.1386  0.4435 -1.5477
19124TIP3    H278864   3.853   6.889   0.948 -0.1405  0.0108  1.6769
19125TIP3   OH278865   0.549   2.983  11.491  0.1121 -0.5959 -0.3673
19125TIP3    H178866   0.461   2.979  11.530  0.2952  1.4477  0.3824
19125TIP3    H278867   0.551   3.066  11.444  2.4483  0.7101  1.7977
19126TIP3   OH278868   4.033   3.689   2.519  0.0976  0.6319 -0.1527
19126TIP3    H178869   4.062   3.779   2.502  1.5254 -0.0179 -1.3389
19126TIP3    H278870   3.969   3.671   2.450 -0.5476  0.8895  0.3728
19127TIP3   OH278871   1.034   6.799  15.345 -0.2807 -0.1611 -0.2047
19127TIP3    H178872   0.977   6.875  15.341 -0.5772 -0.2340  1.5965
19127TIP3    H278873   1.116   6.828  15.305 -0.0593  1.4557  1.3058
19128TIP3   OH278874   3.532   5.653   2.491  0.4441  0.0438  0.1611
19128TIP3    H178875   3.527   5.614   2.403  1.4416  0.1268  0.0565
19128TIP3    H278876   3.500   5.584   2.549 -2.6166  0.8258 -0.4542
19129TIP3   OH278877   1.918   3.049   4.353 -0.4055  0.0751 -0.6233
19129TIP3    H178878   1.926   2.980   4.287  2.6592  1.0837 -1.4701
19129TIP3    H278879   1.943   3.008   4.435  0.9830  0.0478 -1.0469
19130TIP3   OH278880   3.703   3.772  16.393  0.0148  0.2695  0.8225
19130TIP3    H178881   3.649   3.835  16.345  1.3462  2.3579  1.9490
19130TIP3    H278882   3.654   3.753  16.473 -0.4528 -0.2797  0.4172
19131TIP3   OH278883   4.388   4.694   2.299 -0.1417  0.1869 -0.6408
19131TIP3    H178884   4.326   4.682   2.228 -0.3366  0.9296 -0.6053
19131TIP3    H278885   4.342   4.749   2.362 -0.9174 -2.3927  1.2410
19132TIP3   OH278886   2.597   4.193  11.694 -0.1651  0.1379  0.3754
19132TIP3    H178887   2.568   4.269  11.644 -0.1598 -0.0071  0.1514
19132TIP3    H278888   2.519   4.137  11.700 -0.2354  0.2783  0.7538
19133TIP3   OH278889   3.870   3.680  14.825 -0.2046  0.0904 -0.2857
19133TIP3    H178890   3.892   3.616  14.758  0.6879  0.4173 -0.3196
19133TIP3    H278891   3.954   3.720  14.849 -0.5245  0.0859  0.9191
19134TIP3   OH278892   3.566   6.163  16.966 -0.4507  0.2618 -0.6288
19134TIP3    H178893   3.624   6.088  16.953 -1.2072 -0.3454 -0.4941
19134TIP3    H278894   3.491   6.129  17.015 -0.9674  1.0277 -0.8646
19135TIP3   OH278895   2.145   2.166  14.591 -0.6244 -0.3963 -0.2926
19135TIP3    H178896   2.211   2.222  14.551 -0.6149  0.6164  1.0406
19135TIP3    H278897   2.192   2.121  14.662 -0.8856 -1.2838 -0.6763
19136TIP3   OH278898   4.354   0.953  16.152 -0.5001  0.1080 -0.5278
19136TIP3    H178899   4.364   1.044  16.125  2.4708  0.2826  0.7037
19136TIP3    H278900   4.432   0.909  16.118 -1.0713 -1.6040  0.2440
19137TIP3   OH278901   0.387   4.037  10.629  0.6709  0.0077  0.6191
19137TIP3    H178902   0.452   4.041  10.559  0.0087  1.0518  0.0555
19137TIP3    H278903   0.435   3.998  10.703  2.3138  1.8486  0.6044
19138TIP3   OH278904   6.119   2.377  12.010 -0.1463 -0.1522  0.5220
19138TIP3    H178905   6.035   2.343  12.040 -1.7985  0.6025 -2.7353
19138TIP3    H278906   6.117   2.470  12.033 -0.2733 -0.1078  0.3344
19139TIP3   OH278907   1.488   6.183  15.270  0.4315 -0.1620 -0.9171
19139TIP3    H178908   1.397   6.156  15.264  0.0787  0.9476 -0.9243
19139TIP3    H278909   1.505   6.192  15.363  0.8662 -1.3696 -0.8623
19140TIP3   OH278910   0.005   5.300  14.206 -0.0564  0.0445  0.0778
19140TIP3    H178911  -0.028   5.245  14.135  1.1092 -0.3360 -0.1905
19140TIP3    H278912   0.038   5.378  14.162  1.1078 -0.3973  0.1284
19141TIP3   OH278913   5.659   2.047  12.302  0.5640  0.2565  0.6091
19141TIP3    H178914   5.667   1.958  12.334 -0.2800  0.0752  0.3608
19141TIP3    H278915   5.722   2.053  12.230  0.3534 -0.2646  0.3761
19142TIP3   OH278916   3.352   4.792  13.065 -0.7617 -0.0494 -0.0921
19142TIP3    H178917   3.322   4.743  13.142 -1.4881  1.7605  0.8641
19142TIP3    H278918   3.275   4.842  13.038  0.2955  1.6395 -0.1168
19143TIP3   OH278919   1.452   3.733  11.611  0.0603 -0.0703 -0.3606
19143TIP3    H178920   1.444   3.795  11.539  1.3653  1.0462  0.4022
19143TIP3    H278921   1.532   3.684  11.592 -0.6558 -1.1559 -0.6623
19144TIP3   OH278922   3.244   0.388  11.113 -0.4017 -0.0426  0.1069
19144TIP3    H178923   3.323   0.421  11.154 -0.3912  0.7957 -0.5772
19144TIP3    H278924   3.275   0.331  11.042 -0.4147 -0.2628  0.2780
19145TIP3   OH278925   3.171   5.563  14.304  0.6813 -0.7862  0.4402
19145TIP3    H178926   3.247   5.586  14.358  2.5266  1.4757 -2.7247
19145TIP3    H278927   3.187   5.473  14.277  1.1823 -0.9920  1.3637
19146TIP3   OH278928   3.034   0.658  16.640 -0.1529 -0.3562 -0.0945
19146TIP3    H178929   2.996   0.619  16.561 -0.6921  0.3623 -0.2002
19146TIP3    H278930   3.117   0.696  16.611  0.5119 -1.6280  0.0626
19147TIP3   OH278931   5.933   2.555  10.944 -0.2295  0.0925  0.0436
19147TIP3    H178932   6.021   2.564  10.981  0.2040  0.0013 -0.9256
19147TIP3    H278933   5.901   2.472  10.979  0.0547  0.1376  0.4249
19148TIP3   OH278934   1.324   5.448   5.845  0.0124 -0.0592 -0.6532
19148TIP3    H178935   1.377   5.438   5.766 -0.1488 -2.3735 -0.5271
19148TIP3    H278936   1.236   5.422   5.818 -0.3965  0.6741 -0.0694
19149TIP3   OH278937   0.701   5.296   1.161 -0.5541 -0.2585  0.5959
19149TIP3    H178938   0.622   5.269   1.208 -0.3620 -2.5206 -0.2636
19149TIP3    H278939   0.671   5.313   1.071 -0.3962  0.9675  0.7614
19150TIP3   OH278940   0.794   4.911   1.348  0.0069 -0.2505  0.3831
19150TIP3    H178941   0.819   4.821   1.326  0.2576  0.0913 -0.7761
19150TIP3    H278942   0.700   4.906   1.366 -0.5160 -0.3486 -2.0880
19151TIP3   OH278943   5.782   1.717   3.864 -0.1502  0.0460 -0.3945
19151TIP3    H178944   5.735   1.749   3.941 -0.1293 -1.4848  0.2910
19151TIP3    H278945   5.797   1.624   3.882  2.0412  0.1958 -1.1344
19152TIP3   OH278946   1.120   2.642  14.295 -0.2168  0.6310  0.1374
19152TIP3    H178947   1.210   2.642  14.264 -0.6511  0.4120 -1.2061
19152TIP3    H278948   1.116   2.713  14.359  0.8968  0.6292  0.2267
19153TIP3   OH278949   1.557   6.330  12.477 -0.3183 -0.0478  0.1244
19153TIP3    H178950   1.553   6.419  12.442  4.1584  0.4143  0.2554
19153TIP3    H278951   1.526   6.339  12.568  0.1045  1.3799  0.1463
19154TIP3   OH278952   5.892   6.668   1.039  0.3379  0.4598  0.0397
19154TIP3    H178953   5.817   6.699   0.988  0.1062 -0.6730 -0.3460
19154TIP3    H278954   5.920   6.744   1.089 -0.7488  1.0444 -0.2033
19155TIP3   OH278955   2.973   1.046   6.333 -0.0380 -0.8892  0.2031
19155TIP3    H178956   2.963   0.956   6.302  1.7113 -1.4899  1.2380
19155TIP3    H278957   3.067   1.063   6.327 -0.3582  0.9633 -0.1667
19156TIP3   OH278958   5.438   4.770  14.893 -0.3013 -0.0790  0.0270
19156TIP3    H178959   5.376   4.701  14.914 -1.6517  1.4660  1.4112
19156TIP3    H278960   5.474   4.798  14.977  0.9488  0.2804 -0.5880
19157TIP3   OH278961   6.512   0.328  13.234 -0.1965 -0.3471  0.0405
19157TIP3    H178962   6.468   0.258  13.186 -0.3751 -0.8995  0.9949
19157TIP3    H278963   6.539   0.288  13.317 -2.9614  1.3953  1.9481
19158TIP3   OH278964   2.618   3.172   2.386  0.5920 -0.3806  0.2389
19158TIP3    H178965   2.682   3.101   2.397  1.2836  0.3117  0.8943
19158TIP3    H278966   2.670   3.252   2.396 -0.2341  0.2121 -0.1220
19159TIP3   OH278967   4.493   0.911   4.854 -0.4426  0.0133 -0.6414
19159TIP3    H178968   4.470   0.964   4.778 -0.0129  1.0354 -0.0768
19159TIP3    H278969   4.461   0.961   4.929 -0.7158 -0.9000 -0.1286
19160TIP3   OH278970   2.793   1.739  16.426 -0.2059  0.1761 -0.6362
19160TIP3    H178971   2.877   1.783  16.414  0.3151 -0.7297 -0.4016
19160TIP3    H278972   2.780   1.690  16.345  1.0579 -2.2249  0.5289
19161TIP3   OH278973   3.684   3.455  10.739 -0.3349 -0.2402 -0.2772
19161TIP3    H178974   3.652   3.410  10.661 -0.4785 -0.6655  0.0244
19161TIP3    H278975   3.629   3.422  10.810 -0.1199  0.0446  0.0262
19162TIP3   OH278976   3.005   3.230  16.689 -0.4610  0.0711 -0.8412
19162TIP3    H178977   2.989   3.158  16.629 -2.4466 -0.5656  0.3378
19162TIP3    H278978   2.930   3.289  16.676  0.2247  1.0396 -0.5451
19163TIP3   OH278979   4.715   6.483   5.200  0.5301  0.7091 -0.7371
19163TIP3    H178980   4.712   6.388   5.185  0.7017  0.8292 -1.5437
19163TIP3    H278981   4.629   6.514   5.171  0.5355  0.8265 -0.6266
19164TIP3   OH278982   5.634   5.830  16.251  0.4462 -0.0494  0.0386
19164TIP3    H178983   5.622   5.913  16.297  0.9441  0.6283 -1.0133
19164TIP3    H278984   5.724   5.804  16.269  1.0352  0.8385 -1.4956
19165TIP3   OH278985   1.190   3.578  12.953 -0.4520 -0.5267 -0.3511
19165TIP3    H178986   1.095   3.569  12.960 -0.4296 -0.1179  0.6815
19165TIP3    H278987   1.216   3.510  12.891 -1.3516 -1.0333 -0.1928
19166TIP3   OH278988   2.931   4.885   1.898  0.5910 -0.2580  0.1206
19166TIP3    H178989   2.964   4.827   1.829 -2.1743 -0.3695 -1.2323
19166TIP3    H278990   2.853   4.926   1.860  1.3360  2.9225  1.7406
19167TIP3   OH278991   5.686   1.210  14.308 -0.0862  0.0127 -0.3920
19167TIP3    H178992   5.767   1.158  14.305 -0.2059 -0.1453 -1.0885
19167TIP3    H278993   5.639   1.176  14.384 -0.7691 -1.8469 -1.5824
19168TIP3   OH278994   6.178   2.475  13.155 -0.0928 -0.2073  0.1314
19168TIP3    H178995   6.139   2.559  13.178  0.9389  0.0450  1.0975
19168TIP3    H278996   6.270   2.496  13.136  1.0234 -1.4040  3.3895
19169TIP3   OH278997   4.176   3.134  13.975 -0.1569  0.5479 -0.0418
19169TIP3    H178998   4.152   3.136  14.067 -1.1079  1.0491 -0.2827
19169TIP3    H278999   4.263   3.174  13.972  0.0432  0.1797  0.6765
19170TIP3   OH279000   4.900   4.596   0.629  0.2940 -0.0587 -0.2435
19170TIP3    H179001   4.930   4.530   0.566 -1.3826  0.4419 -1.6521
19170TIP3    H279002   4.898   4.677   0.579  4.3727  1.7278  1.9524
19171TIP3   OH279003   3.703   6.805   6.515  0.9003  0.6936 -0.3764
19171TIP3    H179004   3.635   6.809   6.448  0.0297 -2.1663  0.1716
19171TIP3    H279005   3.712   6.895   6.546 -1.6607  1.4159 -1.4482
19172TIP3   OH279006   4.755   0.760   4.563 -0.4402  0.2550 -0.3980
19172TIP3    H179007   4.678   0.747   4.619  0.3395 -0.6058  0.5217
19172TIP3    H279008   4.806   0.827   4.608  1.1526 -1.7957  1.0745
19173TIP3   OH279009   0.385   4.627   2.320 -0.6298  0.3271  0.3612
19173TIP3    H179010   0.339   4.711   2.312 -0.4600  0.6476  2.3780
19173TIP3    H279011   0.317   4.562   2.305 -0.7178  0.7808 -1.4722
19174TIP3   OH279012   3.329   1.793  13.543  0.1568 -0.3854  0.2813
19174TIP3    H179013   3.399   1.854  13.518 -0.0731  0.0214  0.6131
19174TIP3    H279014   3.373   1.708  13.549  0.1421 -0.6015 -1.9062
19175TIP3   OH279015   6.234   5.951  14.710 -0.5093 -0.5543 -0.1375
19175TIP3    H179016   6.145   5.952  14.676 -0.4991  3.3348 -0.4788
19175TIP3    H279017   6.225   5.985  14.800  0.5825 -0.1893 -0.1545
19176TIP3   OH279018   0.794   1.563  12.288  0.1982 -0.0595 -0.0262
19176TIP3    H179019   0.806   1.471  12.264 -4.5924 -1.0324  0.1463
19176TIP3    H279020   0.820   1.568  12.380  4.0502 -0.1220 -0.9528
19177TIP3   OH279021   1.531   1.121   4.221  0.0778  0.1010  0.2104
19177TIP3    H179022   1.517   1.099   4.314  2.1557  0.2177  0.6013
19177TIP3    H279023   1.625   1.136   4.214 -0.0688  0.3274 -1.8971
19178TIP3   OH279024   5.319   3.224   3.915  0.0014  0.0296 -0.0511
19178TIP3    H179025   5.382   3.168   3.869  0.6078 -0.7229  1.5969
19178TIP3    H279026   5.242   3.169   3.925  0.2604 -0.2060  0.7433
19179TIP3   OH279027   6.365   6.637  13.096  0.2605  0.0501 -0.3844
19179TIP3    H179028   6.403   6.558  13.134  1.6337  0.2841 -1.1858
19179TIP3    H279029   6.320   6.680  13.168  1.1232 -0.5081  0.5076
19180TIP3   OH279030   3.235   6.179   3.127 -0.0357 -0.0217  0.0254
19180TIP3    H179031   3.151   6.210   3.161  0.3809  1.2752 -0.1118
19180TIP3    H279032   3.269   6.122   3.196 -0.3948  0.5193  0.6568
19181TIP3   OH279033   6.749   2.512   1.685 -0.0699 -0.4337  0.1039
19181TIP3    H179034   6.813   2.444   1.708  1.6545  1.2901  0.6049
19181TIP3    H279035   6.721   2.548   1.769 -0.7559 -0.3055 -0.1691
19182TIP3   OH279036   1.841   2.376   4.164 -0.5473 -0.0418 -0.2810
19182TIP3    H179037   1.878   2.375   4.076  2.9734  0.2940  1.0009
19182TIP3    H279038   1.916   2.394   4.221 -2.5402 -0.7544  2.8456
19183TIP3   OH279039   4.606   2.398   3.832  0.3994  0.0609  0.0613
19183TIP3    H179040   4.638   2.460   3.897 -0.4853  0.1123  0.4733
19183TIP3    H279041   4.600   2.315   3.880 -1.1712  0.3029  0.3564
19184TIP3   OH279042   1.798   2.124   4.046 -0.3913  0.5154  0.0351
19184TIP3    H179043   1.823   2.141   3.955  0.7707 -1.5881 -0.1148
19184TIP3    H279044   1.800   2.209   4.088  3.6384  1.0852 -0.8524
19185TIP3   OH279045   3.570   6.462   2.634 -0.2758 -0.6531 -0.0361
19185TIP3    H179046   3.652   6.471   2.585  0.4366  1.7307  1.4062
19185TIP3    H279047   3.579   6.379   2.681  1.5379 -0.2396  0.4155
19186TIP3   OH279048   0.017   3.875  12.796  0.1627 -0.0845 -0.1572
19186TIP3    H179049  -0.009   3.870  12.704 -0.1858  2.0866 -0.2345
19186TIP3    H279050  -0.037   3.946  12.832  2.3872  1.1412  0.9494
19187TIP3   OH279051   6.755   5.275   1.247 -0.6726 -0.2368 -0.3000
19187TIP3    H179052   6.746   5.182   1.229 -1.7946 -0.3048  0.5047
19187TIP3    H279053   6.698   5.291   1.322  0.5375  0.8529  0.4242
19188TIP3   OH279054   2.811   0.447   2.821 -0.0276  0.3120 -0.2234
19188TIP3    H179055   2.758   0.499   2.881 -0.2813  0.0450 -0.2166
19188TIP3    H279056   2.829   0.366   2.868 -0.0658  0.1811 -0.4344
19189TIP3   OH279057   1.185   5.063  12.082  0.4025  0.1993 -0.2785
19189TIP3    H179058   1.188   4.968  12.096  0.5930  0.2295 -0.1119
19189TIP3    H279059   1.156   5.099  12.166  0.8814  0.3294 -0.1621
19190TIP3   OH279060   0.686   6.772   1.134  0.3556 -0.4416 -0.1043
19190TIP3    H179061   0.694   6.849   1.191  0.4921 -0.6877  0.2129
19190TIP3    H279062   0.736   6.704   1.179  0.7901 -0.5289 -0.7219
19191TIP3   OH279063   6.803   6.367  11.543 -0.1768  0.0989  0.1473
19191TIP3    H179064   6.889   6.326  11.528  0.1351  0.7509  0.1255
19191TIP3    H279065   6.754   6.350  11.462  1.0027  2.3580 -1.1367
19192TIP3   OH279066   0.492   3.194   0.308  0.1327  0.4275 -0.0843
19192TIP3    H179067   0.462   3.263   0.249  0.7902  0.3795 -0.4797
19192TIP3    H279068   0.587   3.202   0.308  0.2431 -0.7362 -0.4455
19193TIP3   OH279069   2.478   0.678   0.181  0.1001 -0.6595  0.6261
19193TIP3    H179070   2.494   0.700   0.089 -3.9481  0.5763  0.0400
19193TIP3    H279071   2.509   0.588   0.189 -0.0332 -1.0468 -2.1411
19194TIP3   OH279072   2.993   1.163   0.781 -0.3629  0.3540  0.5659
19194TIP3    H179073   2.916   1.148   0.725 -0.2562 -0.8279  0.7277
19194TIP3    H279074   2.969   1.125   0.865  0.4808 -0.1974  0.5622
19195TIP3   OH279075   4.790   0.837   4.954 -0.4034  0.5199  0.3441
19195TIP3    H179076   4.700   0.833   4.921 -0.3396  3.3398 -0.4372
19195TIP3    H279077   4.843   0.852   4.876  0.7912 -0.9996  0.8151
19196TIP3   OH279078   1.617   1.594   6.196  0.1129 -0.2481 -0.0580
19196TIP3    H179079   1.660   1.594   6.281 -1.5314 -0.8179  0.8052
19196TIP3    H279080   1.537   1.543   6.209 -0.8796  0.8436 -1.5695
19197TIP3   OH279081   3.010   4.681   3.929  0.0279 -0.4762  0.1045
19197TIP3    H179082   3.033   4.754   3.872  1.1726 -0.1641  0.9120
19197TIP3    H279083   2.915   4.670   3.919 -0.1358  1.0205 -0.1512
19198TIP3   OH279084   2.517   4.194  12.774  0.5135 -0.3068  0.0032
19198TIP3    H179085   2.429   4.192  12.811  1.1828  1.6108  1.9299
19198TIP3    H279086   2.509   4.245  12.693 -0.2726 -0.9485 -0.3350
19199TIP3   OH279087   4.840   3.340   6.623 -0.3916 -0.1009  0.1670
19199TIP3    H179088   4.751   3.374   6.619  0.0875  1.1661 -0.3536
19199TIP3    H279089   4.874   3.352   6.534  0.7959  0.9115  0.7240
19200TIP3   OH279090   0.038   0.636   5.492  0.4523  0.1222 -0.0411
19200TIP3    H179091   0.124   0.597   5.506  0.5615  0.5933  0.6802
19200TIP3    H279092   0.054   0.730   5.490  0.3330  0.1500 -2.8445
19201TIP3   OH279093   2.789   4.224  14.068 -0.0645  0.1669  0.4454
19201TIP3    H179094   2.864   4.164  14.069  0.5457  0.8680  2.5842
19201TIP3    H279095   2.717   4.170  14.035  0.8049 -1.2924  0.7924
19202TIP3   OH279096   6.062   6.764  15.412 -0.7757 -0.1617  0.2512
19202TIP3    H179097   6.087   6.804  15.495  0.4421  1.6071 -0.8831
19202TIP3    H279098   6.131   6.702  15.393 -0.5191  0.1623  0.1077
19203TIP3   OH279099   3.972   0.968   3.333 -0.5240  0.6231  0.1055
19203TIP3    H179100   4.011   0.941   3.250 -1.7697  1.6299 -0.8562
19203TIP3    H279101   4.047   0.992   3.388  0.5051 -2.5988  0.2881
19204TIP3   OH279102   3.539   2.000   1.638  0.3230  0.1268  0.5229
19204TIP3    H179103   3.562   1.912   1.667 -1.0543 -0.7285 -0.7997
19204TIP3    H279104   3.586   2.012   1.556 -1.5195 -0.5103 -0.7049
19205TIP3   OH279105   5.692   1.769   1.603 -0.0445  0.3133  0.2536
19205TIP3    H179106   5.660   1.831   1.538  0.4011 -0.7374 -1.0143
19205TIP3    H279107   5.772   1.733   1.565 -0.4360 -1.2441  0.7984
19206TIP3   OH279108   0.041   2.292  11.369 -0.1639 -0.3793 -0.3452
19206TIP3    H179109   0.077   2.293  11.457  1.5431 -1.2789 -0.9878
19206TIP3    H279110  -0.002   2.207  11.362 -1.2205  0.1132 -0.0604
19207TIP3   OH279111   5.521   3.179  16.887 -0.3900  0.2241  0.1995
19207TIP3    H179112   5.551   3.089  16.876  0.1695  0.3682  0.5011
19207TIP3    H279113   5.563   3.209  16.967 -1.5579  0.3585  0.7775
19208TIP3   OH279114   0.968   0.950   2.933 -0.9291 -0.0792 -0.0542
19208TIP3    H179115   1.010   1.006   2.999  0.1242 -0.6473 -0.2178
19208TIP3    H279116   0.991   0.991   2.849 -2.5045  0.8032 -0.0759
19209TIP3   OH279117   4.859   1.044   2.162 -0.1000 -0.0243  0.0468
19209TIP3    H179118   4.795   0.996   2.110  1.5541 -1.6174 -0.5965
19209TIP3    H279119   4.897   0.979   2.221 -0.4960  1.3305  1.8888
19210TIP3   OH279120   2.387   2.715  14.412  0.8667 -0.4526  0.9665
19210TIP3    H179121   2.453   2.648  14.433  2.1188 -0.1185 -1.5041
19210TIP3    H279122   2.381   2.713  14.316 -1.4158  0.8116  1.0249
19211TIP3   OH279123   2.265   2.227  16.295  0.0240 -0.2107 -0.5891
19211TIP3    H179124   2.292   2.143  16.333 -1.7840 -0.0090  1.3261
19211TIP3    H279125   2.309   2.293  16.349 -1.1449  0.0742  0.0404
19212TIP3   OH279126   0.518   5.833   1.010  0.0111 -0.0384 -0.0397
19212TIP3    H179127   0.606   5.860   1.037 -0.2538  0.5901  0.2184
19212TIP3    H279128   0.462   5.907   1.034 -0.3780  0.1657 -1.4644
19213TIP3   OH279129   5.268   0.219   4.940 -0.2377  0.7947  0.3441
19213TIP3    H179130   5.191   0.203   4.884 -0.2962  0.8019  0.4229
19213TIP3    H279131   5.253   0.164   5.017  0.3950 -0.1023 -0.1558
19214TIP3   OH279132   2.568   1.463  14.052 -0.2668  0.1583  0.0005
19214TIP3    H179133   2.548   1.526  13.983 -2.4817 -2.5452 -2.0828
19214TIP3    H279134   2.504   1.482  14.121  1.0574  2.0073  0.7821
19215TIP3   OH279135   6.152   5.832  17.070  0.0113 -0.5300 -0.0343
19215TIP3    H179136   6.227   5.881  17.105 -0.6495  1.1564 -0.9071
19215TIP3    H279137   6.157   5.845  16.976 -0.9534 -1.0511 -0.1634
19216TIP3   OH279138   2.891   1.782   1.120  0.0714  0.2545 -0.8478
19216TIP3    H179139   2.800   1.796   1.095  0.4982  2.0242 -1.5200
19216TIP3    H279140   2.898   1.687   1.129 -1.9728  0.1044 -0.1843
19217TIP3   OH279141   5.456   1.716  15.710 -0.0162 -0.4401 -0.4988
19217TIP3    H179142   5.491   1.636  15.749  0.4255 -0.2369 -0.4705
19217TIP3    H279143   5.362   1.700  15.703 -0.3630  0.0488  1.9464
19218TIP3   OH279144   4.656   5.751  15.076  0.3671 -0.0649 -0.3081
19218TIP3    H179145   4.665   5.690  15.149 -1.6764 -0.0283  0.0188
19218TIP3    H279146   4.726   5.815  15.090  1.2474 -1.1577  0.4976
19219TIP3   OH279147   1.269   1.876  14.341  0.3244  0.4572 -0.1300
19219TIP3    H179148   1.274   1.815  14.267 -0.8543  0.0360  0.1280
19219TIP3    H279149   1.193   1.849  14.391  1.0118  0.8362  1.1838
19220TIP3   OH279150   2.096   6.591  11.255  0.2940  0.2279 -0.5140
19220TIP3    H179151   2.113   6.684  11.243  0.5956  0.1903 -0.3883
19220TIP3    H279152   2.124   6.573  11.345 -0.7393  0.2368 -0.1754
19221TIP3   OH279153   0.258   3.061   5.602  0.2923  0.0388 -0.3280
19221TIP3    H179154   0.164   3.071   5.621  0.1964 -0.7957 -0.3064
19221TIP3    H279155   0.273   3.117   5.526 -0.0646  0.7348  0.1078
19222TIP3   OH279156   1.373   5.252  13.390  0.7560  0.1768 -0.5049
19222TIP3    H179157   1.313   5.180  13.411  0.8074  0.8019  2.2804
19222TIP3    H279158   1.341   5.325  13.443  1.8192  1.6545 -1.8175
19223TIP3   OH279159   0.206   1.280  13.852  0.4413 -0.0432  0.0539
19223TIP3    H179160   0.185   1.201  13.803  0.2597  1.1540 -1.9139
19223TIP3    H279161   0.159   1.350  13.806  2.0833  1.4814  0.5673
19224TIP3   OH279162   3.224   6.024   2.060  0.0307 -0.2411  0.4077
19224TIP3    H179163   3.224   6.088   2.131 -1.6591  0.3760 -0.0851
19224TIP3    H279164   3.233   6.077   1.981  0.6248 -0.8128  0.0799
19225TIP3   OH279165   5.129   6.307  14.108  0.1831 -0.1858 -0.0500
19225TIP3    H179166   5.063   6.254  14.064 -0.7151  2.3270 -2.0082
19225TIP3    H279167   5.114   6.396  14.076 -0.2878  1.9637  5.0531
19226TIP3   OH279168   3.054   0.802  13.886  0.6086  0.6778  0.2127
19226TIP3    H179169   2.966   0.790  13.850  0.3001  0.6804  0.9638
19226TIP3    H279170   3.074   0.719  13.928  0.0717  1.3970  1.9600
19227TIP3   OH279171   5.453   6.139  15.295 -0.5445  0.2927  0.3188
19227TIP3    H179172   5.521   6.126  15.228  0.6174  0.6395  1.3927
19227TIP3    H279173   5.487   6.093  15.372 -2.9272 -2.1587  0.0722
19228TIP3   OH279174   1.355   5.421   4.361  0.8328 -0.0501  0.6525
19228TIP3    H179175   1.437   5.461   4.388  1.4567 -1.6106  1.2203
19228TIP3    H279176   1.320   5.381   4.440  1.1157 -2.0516 -0.1681
19229TIP3   OH279177   4.410   6.825  13.090 -0.1304  0.2354 -0.1165
19229TIP3    H179178   4.437   6.868  13.171 -1.4119  0.7252  0.0570
19229TIP3    H279179   4.317   6.844  13.081 -0.2493 -0.6987 -1.1625
19230TIP3   OH279180   3.604   0.744   3.952 -0.2402 -0.0088 -0.0185
19230TIP3    H179181   3.568   0.821   3.995  0.9525 -0.4430  1.9019
19230TIP3    H279182   3.664   0.778   3.886  1.5167  0.7965  1.8971
19231TIP3   OH279183   3.110   5.256   4.971  0.1674 -0.8188 -0.0421
19231TIP3    H179184   3.102   5.212   4.887  1.5102  0.9575 -1.1681
19231TIP3    H279185   3.170   5.328   4.955 -1.5300  1.1512  1.8175
19232TIP3   OH279186   5.707   0.208   3.769  0.5597  0.6241  0.2238
19232TIP3    H179187   5.739   0.172   3.686 -1.6015  0.7148 -0.7274
19232TIP3    H279188   5.632   0.153   3.792 -0.4463  2.1530  0.7576
19233TIP3   OH279189   3.376   4.936   4.778 -0.2941  0.2927 -0.7973
19233TIP3    H179190   3.383   5.015   4.725  2.4248  0.2286 -0.6360
19233TIP3    H279191   3.338   4.966   4.861  0.4449  1.3848 -0.8408
19234TIP3   OH279192   5.580   3.904   3.576 -0.2925  0.5913 -0.1161
19234TIP3    H179193   5.613   3.842   3.642 -0.2958 -0.2423 -0.8774
19234TIP3    H279194   5.544   3.848   3.507 -1.7510  1.4737 -0.0944
19235TIP3   OH279195   2.451   3.068  12.869 -0.2882 -0.5110  0.0544
19235TIP3    H179196   2.362   3.100  12.883 -0.2905 -0.5024  0.0213
19235TIP3    H279197   2.507   3.144  12.881 -0.5063  0.3183 -3.1122
19236TIP3   OH279198   1.222   2.693   5.708  0.5000 -0.2863 -0.1104
19236TIP3    H179199   1.156   2.629   5.736  1.2528 -1.0792 -0.1035
19236TIP3    H279200   1.171   2.770   5.683 -0.3172 -0.0047  2.1608
19237TIP3   OH279201   6.423   5.335   2.121 -0.2799  0.0582 -0.3854
19237TIP3    H179202   6.476   5.260   2.096 -0.9675 -1.0530  1.3126
19237TIP3    H279203   6.452   5.357   2.210 -0.7634  1.1886 -0.4856
19238TIP3   OH279204   0.551   4.458   6.067  0.2928 -0.3316  0.0136
19238TIP3    H179205   0.588   4.534   6.112 -1.3966 -0.1735  1.2274
19238TIP3    H279206   0.601   4.384   6.101 -0.8134 -0.1949  2.1001
19239TIP3   OH279207   4.810   5.104   0.285 -0.1858  0.0035 -0.1453
19239TIP3    H179208   4.796   5.127   0.193 -1.4834  0.4945  0.1573
19239TIP3    H279209   4.852   5.182   0.322  0.0352 -0.0698 -0.2344
19240TIP3   OH279210   2.318   1.458   6.432 -0.0979  0.2307 -0.6666
19240TIP3    H179211   2.346   1.519   6.501  1.7354 -0.4773 -0.7422
19240TIP3    H279212   2.329   1.371   6.471 -1.2503 -0.1306 -1.0906
19241TIP3   OH279213   0.033   1.224   5.410 -0.6969  0.3801 -0.5585
19241TIP3    H179214  -0.007   1.306   5.438  0.2105  0.2180  1.3966
19241TIP3    H279215  -0.037   1.159   5.416 -1.1014  0.7784 -0.9236
19242TIP3   OH279216   3.392   0.753  16.320 -0.0217  0.0665  0.0301
19242TIP3    H179217   3.340   0.682  16.359 -1.2501  0.7464 -0.2953
19242TIP3    H279218   3.376   0.828  16.377  2.5757 -0.2553  1.3305
19243TIP3   OH279219   5.817   3.093   4.445  0.0546 -0.0425 -0.5086
19243TIP3    H179220   5.781   3.070   4.360 -1.1046  0.0284 -0.0452
19243TIP3    H279221   5.911   3.076   4.436  0.2983  1.9610 -2.4497
19244TIP3   OH279222   6.506   5.177  14.257 -0.0300 -0.5119 -0.0544
19244TIP3    H179223   6.506   5.265  14.218 -0.4665 -0.7093 -0.4953
19244TIP3    H279224   6.542   5.191  14.345  3.9525 -0.4949 -1.4670
19245TIP3   OH279225   2.024   1.943   4.963  0.3857  0.2955  0.4991
19245TIP3    H179226   2.007   1.999   4.887 -1.2342 -0.2941  0.3686
19245TIP3    H279227   2.075   1.870   4.927 -2.3839 -1.2379 -0.6635
19246TIP3   OH279228   3.655   2.749   2.579 -0.0001  0.5578  0.3829
19246TIP3    H179229   3.737   2.702   2.563  0.3383  1.1024  0.4777
19246TIP3    H279230   3.679   2.819   2.640 -1.0838 -0.9387  2.6308
19247TIP3   OH279231   4.344   6.287   1.556 -0.4135 -0.2233  0.6032
19247TIP3    H179232   4.411   6.336   1.508  0.8072 -0.5020  1.9523
19247TIP3    H279233   4.361   6.196   1.534  0.3645 -0.3832  1.7376
19248TIP3   OH279234   5.583   0.951   4.230  0.4053  0.3331 -0.2089
19248TIP3    H179235   5.643   1.015   4.192 -0.2543  1.2059  0.1724
19248TIP3    H279236   5.501   1.000   4.241  0.3361 -0.1132  1.5595
19249TIP3   OH279237   2.879   0.884   5.698 -0.0489  0.1812  0.1136
19249TIP3    H179238   2.788   0.886   5.670 -0.1925 -2.1452  0.2285
19249TIP3    H279239   2.927   0.920   5.623 -1.0585  1.7694  0.1979
19250TIP3   OH279240   0.573   5.181   1.540  0.2826  0.6116 -0.1361
19250TIP3    H179241   0.521   5.157   1.617  1.1534 -1.7994 -0.2085
19250TIP3    H279242   0.524   5.144   1.466  0.8088  0.5291 -0.4448
19251TIP3   OH279243   6.217   2.098   3.894  0.4102  0.3368 -0.2768
19251TIP3    H179244   6.211   2.068   3.984  0.2457  0.6748 -0.1718
19251TIP3    H279245   6.281   2.040   3.853  1.3734  0.9339  0.3617
19252TIP3   OH279246   0.921   1.751  17.013 -0.3268  0.5294  0.1594
19252TIP3    H179247   0.945   1.673  16.963 -0.5409 -0.2339  1.2094
19252TIP3    H279248   0.912   1.720  17.103 -2.0677  1.4135  0.3347
19253TIP3   OH279249   0.768   6.524  15.697 -0.1614 -0.7260  0.1845
19253TIP3    H179250   0.782   6.495  15.606  1.4208 -1.3561  0.5927
19253TIP3    H279251   0.728   6.611  15.689 -1.0797 -1.2308 -1.0938
19254TIP3   OH279252   6.267   3.387  11.654 -0.3968 -0.5844 -0.1422
19254TIP3    H179253   6.211   3.409  11.728  1.1687 -2.6380  1.7801
19254TIP3    H279254   6.215   3.327  11.601 -1.3043  0.4158 -0.4187
19255TIP3   OH279255   3.486   3.833   1.035 -0.3130  0.4391 -0.2964
19255TIP3    H179256   3.519   3.881   0.959  1.3798 -1.7285 -1.0329
19255TIP3    H279257   3.423   3.771   0.998 -0.2929  0.1039  0.2290
19256TIP3   OH279258   2.466   3.562   2.113 -0.3824 -0.2822 -0.0710
19256TIP3    H179259   2.551   3.533   2.080  0.0699  1.9550 -0.9920
19256TIP3    H279260   2.402   3.519   2.055  0.1141 -1.4748  0.2349
19257TIP3   OH279261   1.304   2.866  16.826  0.5003  0.4397 -0.4004
19257TIP3    H179262   1.392   2.900  16.807  1.0041 -0.5796 -0.0090
19257TIP3    H279263   1.246   2.941  16.815  1.4844  1.2624 -0.1811
19258TIP3   OH279264   0.299   4.663  13.914 -0.3734 -0.5932  0.2472
19258TIP3    H179265   0.236   4.624  13.853 -1.2827  1.9093 -0.5657
19258TIP3    H279266   0.353   4.720  13.859 -1.1274  1.6343  1.6569
19259TIP3   OH279267   6.738   1.891   0.366  0.2302  0.5190  0.2401
19259TIP3    H179268   6.826   1.927   0.355  1.1992 -2.0137 -1.1660
19259TIP3    H279269   6.679   1.961   0.339  2.0622  0.5092 -4.6572
19260TIP3   OH279270   6.649   0.804   4.390  0.0296  0.0816 -0.2085
19260TIP3    H179271   6.651   0.899   4.402  1.1801  0.3176 -1.8369
19260TIP3    H279272   6.630   0.792   4.297 -1.3849 -1.3410  0.2216
19261TIP3   OH279273   4.663   3.728   2.224 -0.2470  0.5646  0.2611
19261TIP3    H179274   4.604   3.747   2.297 -1.1414  0.1980 -0.3461
19261TIP3    H279275   4.681   3.634   2.232 -0.1732  0.5671  0.1262
19262TIP3   OH279276   3.039   1.041   0.171 -0.2016  0.2041  0.5636
19262TIP3    H179277   3.015   1.096   0.096  0.9097  0.9331  0.7165
19262TIP3    H279278   2.968   1.054   0.233 -0.1604  1.1583  0.4291
19263TIP3   OH279279   4.956   4.409   0.454 -0.7149 -0.0679 -0.5025
19263TIP3    H179280   4.978   4.392   0.363 -2.1478 -1.3825 -0.6296
19263TIP3    H279281   4.936   4.323   0.491  2.5823 -0.0225  1.8835
19264TIP3   OH279282   3.279   1.730  14.812 -0.4394 -0.2290  0.4888
19264TIP3    H179283   3.211   1.671  14.779 -1.3229  0.7104  0.5671
19264TIP3    H279284   3.327   1.678  14.877 -0.3646 -1.2580 -0.3713
19265TIP3   OH279285   6.571   5.821   0.390  0.1211  0.6359  0.2629
19265TIP3    H179286   6.553   5.915   0.384 -0.7639  0.4328 -0.4533
19265TIP3    H279287   6.617   5.799   0.310  3.4452  1.0617  1.8949
19266TIP3   OH279288   6.577   2.452   4.614 -0.4718  0.6366  0.4775
19266TIP3    H179289   6.632   2.479   4.540 -0.7269 -0.7379 -0.2544
19266TIP3    H279290   6.587   2.522   4.678  2.9029  0.0234  0.8023
19267TIP3   OH279291   5.650   1.205   5.931  0.6104 -0.0378 -0.3967
19267TIP3    H179292   5.739   1.238   5.939  0.7255  0.0309 -1.7462
19267TIP3    H279293   5.621   1.233   5.843 -1.4097  1.5386  0.6664
19268TIP3   OH279294   6.216   2.135  14.919 -0.0473 -0.3382 -0.5280
19268TIP3    H179295   6.255   2.202  14.975 -0.1505  0.8255 -1.7938
19268TIP3    H279296   6.203   2.179  14.834 -1.0577 -1.6610 -1.0974
19269TIP3   OH279297   1.172   0.754   4.059  0.1711  0.2280  0.2633
19269TIP3    H179298   1.210   0.702   4.130 -0.2749 -1.7404 -0.8686
19269TIP3    H279299   1.220   0.726   3.981 -0.9374  0.5979 -0.5750
19270TIP3   OH279300   1.301   6.760  13.402  0.2401  0.2018 -0.2980
19270TIP3    H179301   1.378   6.806  13.435  1.3809 -0.2186 -2.2727
19270TIP3    H279302   1.299   6.679  13.452  1.4746 -0.0683 -0.6438
19271TIP3   OH279303   5.214   3.660  17.028  0.5892 -0.1586  0.2808
19271TIP3    H179304   5.120   3.647  17.029  0.5407  0.2078  0.6284
19271TIP3    H279305   5.231   3.714  16.951  0.6614 -1.2475 -0.4927
19272TIP3   OH279306   0.485   2.685  16.137 -0.0146  0.1586  0.1809
19272TIP3    H179307   0.515   2.595  16.148 -0.1095  0.2328  1.1848
19272TIP3    H279308   0.477   2.697  16.043 -0.0636 -0.9076  0.0396
19273TIP3   OH279309   3.517   1.295   0.583  0.3270  0.7068 -0.1414
19273TIP3    H179310   3.431   1.292   0.626  0.7146 -0.6405  0.5870
19273TIP3    H279311   3.528   1.208   0.547  1.1288  1.0719 -0.7931
19274TIP3   OH279312   3.924   0.198   0.861 -0.1846 -0.0353 -0.4438
19274TIP3    H179313   3.890   0.214   0.949  2.3572  0.2419  0.6029
19274TIP3    H279314   3.904   0.277   0.812  0.5680  0.8904  0.6886
19275TIP3   OH279315   4.162   6.542   0.443  0.1154  0.2587  0.2058
19275TIP3    H179316   4.255   6.545   0.420 -0.2187  1.9021 -1.1467
19275TIP3    H279317   4.161   6.535   0.538  1.5829 -2.0940  0.1313
19276TIP3   OH279318   0.776   5.188  14.378 -0.2899  0.1505 -0.4915
19276TIP3    H179319   0.844   5.230  14.325  0.6695 -3.0085 -2.0606
19276TIP3    H279320   0.809   5.099  14.391 -2.1443 -0.2286  2.5672
19277TIP3   OH279321   4.443   4.024  13.615 -0.2831 -0.2901 -0.2037
19277TIP3    H179322   4.432   3.947  13.559 -1.8283 -0.2685  0.0484
19277TIP3    H279323   4.453   4.097  13.554  2.0947 -0.7332 -0.4652
19278TIP3   OH279324   5.384   0.978   3.649 -0.7082  0.0779 -0.3982
19278TIP3    H179325   5.406   0.889   3.677  2.1707  1.2165  1.4518
19278TIP3    H279326   5.295   0.992   3.683 -1.2741 -2.0736 -0.8327
19279TIP3   OH279327   6.236   5.201  14.033  0.1502  0.4221  0.0743
19279TIP3    H179328   6.243   5.198  14.129  0.3639  1.4534  0.1095
19279TIP3    H279329   6.309   5.149  14.002 -0.7522 -1.1421  0.4607
19280TIP3   OH279330   6.313   4.949   0.052 -0.3038  0.0131 -0.1245
19280TIP3    H179331   6.284   5.039   0.039 -1.1451 -0.0064  1.3570
19280TIP3    H279332   6.307   4.935   0.146 -0.6446 -1.7400 -0.3632
19281TIP3   OH279333   0.690   0.639   3.612  0.2100  0.2698  0.3788
19281TIP3    H179334   0.664   0.550   3.587 -1.6738  1.3493 -1.9194
19281TIP3    H279335   0.751   0.666   3.542 -0.6238  1.3719  0.0552
19282TIP3   OH279336   1.365   0.144   3.096 -0.2305 -0.3381 -0.0662
19282TIP3    H179337   1.421   0.218   3.071 -0.2999 -0.0373  0.6335
19282TIP3    H279338   1.356   0.092   3.016 -0.6394  0.7098 -0.7282
19283TIP3   OH279339   1.203   6.642  13.996 -0.1531  0.5835 -0.4404
19283TIP3    H179340   1.240   6.555  13.984  1.1590  1.2230 -1.2666
19283TIP3    H279341   1.109   6.627  14.008 -0.3511 -0.7955 -2.9948
19284TIP3   OH279342   6.737   6.421  15.005 -0.6436 -0.4912  0.1952
19284TIP3    H179343   6.710   6.431  15.097  0.9814 -1.3586  0.7953
19284TIP3    H279344   6.751   6.511  14.975 -3.9104  0.0384 -0.1303
19285TIP3   OH279345   6.556   1.762   2.143  0.6962 -0.7060 -0.2005
19285TIP3    H179346   6.594   1.809   2.068  1.0673 -0.1888  0.3055
19285TIP3    H279347   6.467   1.742   2.115 -0.2098  2.1496  0.3389
19286TIP3   OH279348   6.129   2.624  15.200 -0.7316  0.0660  0.4948
19286TIP3    H179349   6.096   2.549  15.151  0.0993 -0.6946  1.0546
19286TIP3    H279350   6.088   2.700  15.160 -1.3225 -0.6672 -0.3098
19287TIP3   OH279351   1.884   3.800   3.277  0.7359 -0.0729 -0.0991
19287TIP3    H179352   1.857   3.745   3.350  0.8332  0.9532  0.7347
19287TIP3    H279353   1.871   3.745   3.199 -0.3921 -0.8227  0.5854
19288TIP3   OH279354   0.826   3.460  16.394 -0.0419  0.0269  0.6847
19288TIP3    H179355   0.866   3.539  16.359  0.6833 -0.6726 -0.1248
19288TIP3    H279356   0.810   3.480  16.486  1.4526  0.6356  0.8474
19289TIP3   OH279357   6.546   2.262   1.387  0.3675 -0.3974  0.1759
19289TIP3    H179358   6.585   2.175   1.378 -0.6369 -0.8011 -0.4195
19289TIP3    H279359   6.551   2.281   1.481  1.1094 -0.8481  0.2323
19290TIP3   OH279360   4.194   3.583  16.844  0.3466  0.3079  0.6126
19290TIP3    H179361   4.118   3.629  16.882 -0.2832  0.9771 -1.3264
19290TIP3    H279362   4.164   3.493  16.831  0.5340  0.1002  1.5786
19291TIP3   OH279363   4.748   1.597  13.129 -0.0762  0.1322  0.6096
19291TIP3    H179364   4.806   1.645  13.071  0.2796 -0.3818  0.5329
19291TIP3    H279365   4.744   1.651  13.208 -1.1832  1.2181 -0.1692
19292TIP3   OH279366   6.168   6.715   6.369 -0.3719  0.2017 -0.2332
19292TIP3    H179367   6.080   6.732   6.402 -0.2192  0.1064  0.2379
19292TIP3    H279368   6.217   6.794   6.394  0.2716 -0.7432  1.6995
19293TIP3   OH279369   0.603   2.584  11.639 -0.3499  0.6294  0.1533
19293TIP3    H179370   0.522   2.537  11.620 -0.4371  1.3498 -1.4456
19293TIP3    H279371   0.673   2.520  11.626 -0.6085  0.3005  0.4007
19294TIP3   OH279372   5.317   4.345  13.896 -0.0742 -0.7406 -0.4228
19294TIP3    H179373   5.383   4.412  13.910  0.0200 -0.9948  0.3829
19294TIP3    H279374   5.236   4.384  13.929 -0.4955 -0.1558 -2.0486
19295TIP3   OH279375   3.998   5.786  17.052  0.0336 -0.4888 -0.3355
19295TIP3    H179376   3.935   5.731  17.097 -1.3119  2.1630  1.2852
19295TIP3    H279377   4.081   5.768  17.095 -0.8374  0.4547  1.9016
19296TIP3   OH279378   4.301   0.758   2.160  0.0279  0.3551  0.2134
19296TIP3    H179379   4.236   0.691   2.180 -0.3777  0.9205  0.8279
19296TIP3    H279380   4.302   0.762   2.064 -0.2413 -0.2406  0.1834
19297TIP3   OH279381   6.149   4.846  17.154 -0.7709  1.2947  1.0065
19297TIP3    H179382   6.208   4.881  17.221  1.8931  0.6777 -0.8583
19297TIP3    H279383   6.108   4.923  17.115  0.3718  1.9362  1.0205
19298TIP3   OH279384   5.539   3.862   1.083  0.2222  0.0636 -0.0554
19298TIP3    H179385   5.565   3.942   1.128  0.0447  0.9898 -1.5180
19298TIP3    H279386   5.449   3.878   1.056  0.0469 -0.8037 -0.0182
19299TIP3   OH279387   1.182   0.416  13.439 -0.4988 -0.0668  0.0015
19299TIP3    H179388   1.262   0.374  13.408  0.5434  0.4711  1.8202
19299TIP3    H279389   1.191   0.418  13.534 -2.1975  0.9794  0.1871
19300TIP3   OH279390   0.884   1.751   4.786  0.3606 -0.3281  0.1970
19300TIP3    H179391   0.930   1.679   4.742  2.7123  1.3243 -0.2425
19300TIP3    H279392   0.937   1.828   4.768 -2.0475  1.5830  0.6377
19301TIP3   OH279393   5.822   0.922  14.540  0.1685 -0.0889 -0.2345
19301TIP3    H179394   5.781   0.899  14.457 -0.8090  0.4727  0.0668
19301TIP3    H279395   5.878   0.997  14.519 -0.5296  0.4330 -0.3046
19302TIP3   OH279396   0.659   5.949  16.592  0.1333  0.0548  0.3788
19302TIP3    H179397   0.662   6.004  16.671 -1.1512 -0.7719  1.0359
19302TIP3    H279398   0.579   5.976  16.547 -0.0419 -0.6718  0.2484
19303TIP3   OH279399   5.001   4.146  11.171 -0.0641 -0.0276 -0.1681
19303TIP3    H179400   5.089   4.118  11.145 -0.1693 -0.6334  0.1189
19303TIP3    H279401   5.016   4.218  11.232  0.2885 -1.0397  0.9945
19304TIP3   OH279402   5.576   5.292  10.981  0.3021 -0.1773 -0.5989
19304TIP3    H179403   5.632   5.286  10.903  1.5619 -0.2766  0.2664
19304TIP3    H279404   5.634   5.266  11.053 -0.6102  0.6372  0.4639
19305TIP3   OH279405   0.378   6.435  17.131  0.2155  0.1339 -0.5296
19305TIP3    H179406   0.338   6.479  17.056 -2.7671  0.6977  1.2318
19305TIP3    H279407   0.452   6.386  17.094 -0.8708  0.6962 -3.7162
19306TIP3   OH279408   4.421   1.228   2.971  0.0504 -0.1730 -0.0105
19306TIP3    H179409   4.353   1.222   2.903 -0.1884 -0.6986  0.2673
19306TIP3    H279410   4.375   1.262   3.048  0.5439  1.4541 -0.3956
19307TIP3   OH279411   0.291   6.032   3.924 -0.1895  0.4856  0.4579
19307TIP3    H179412   0.310   6.073   3.839  3.0397 -0.5372  0.5315
19307TIP3    H279413   0.257   5.946   3.901  1.4913 -0.1323  0.0846
19308TIP3   OH279414   4.753   3.749  11.909  0.2137 -0.1333 -0.0231
19308TIP3    H179415   4.742   3.809  11.836 -0.8507 -0.5527 -0.2326
19308TIP3    H279416   4.731   3.801  11.987 -0.0852 -0.0813 -0.1428
19309TIP3   OH279417   6.695   6.570  13.998  0.2188 -0.3492 -0.2290
19309TIP3    H179418   6.670   6.486  14.038  0.2907 -0.2499  0.0287
19309TIP3    H279419   6.766   6.602  14.053  0.0319 -0.0061 -0.1851
19310TIP3   OH279420   2.808   0.830   3.857 -0.1305 -0.3366 -0.1293
19310TIP3    H179421   2.868   0.847   3.784  0.7831 -1.7119  0.2510
19310TIP3    H279422   2.721   0.833   3.818  0.1364  1.9193 -0.6564
19311TIP3   OH279423   1.103   6.207   0.449 -0.0073 -0.0908 -0.2890
19311TIP3    H179424   1.170   6.236   0.511 -0.2886  1.8484 -0.8096
19311TIP3    H279425   1.152   6.160   0.382  1.3849  3.4181 -2.0160
19312TIP3   OH279426   4.719   6.817   5.760 -0.4874  0.0994 -0.1369
19312TIP3    H179427   4.677   6.832   5.845 -1.0303  0.2593 -0.4295
19312TIP3    H279428   4.682   6.734   5.729  1.5049 -1.2464  0.8638
19313TIP3   OH279429   3.742   3.236  16.783  0.8454 -0.2401  0.1073
19313TIP3    H179430   3.676   3.193  16.836 -1.0837  2.2237 -0.1119
19313TIP3    H279431   3.803   3.166  16.759 -1.9335 -2.7780 -0.1243
19314TIP3   OH279432   6.514   2.334  16.717  0.9046  0.5970 -0.4426
19314TIP3    H179433   6.481   2.421  16.742  0.9743  0.9446 -1.5146
19314TIP3    H279434   6.466   2.312  16.637  0.7695 -0.4347 -0.0914
19315TIP3   OH279435   2.492   1.135   2.153 -0.3355  0.1819  0.4170
19315TIP3    H179436   2.416   1.111   2.206  0.5739  2.0533  2.7456
19315TIP3    H279437   2.489   1.231   2.149  1.8983  0.3122  0.6663
19316TIP3   OH279438   0.975   1.395  17.137 -0.4082 -0.7191 -0.1028
19316TIP3    H179439   0.941   1.346  17.212 -0.3850 -0.7913 -0.1390
19316TIP3    H279440   1.067   1.369  17.132 -0.7373 -1.7922 -1.0061
19317TIP3   OH279441   3.938   1.182  13.346 -0.0750 -0.2412 -0.5299
19317TIP3    H179442   3.931   1.149  13.256 -1.4813 -2.6770  0.3671
19317TIP3    H279443   4.025   1.155  13.375  0.5481  0.9208 -1.2502
19318TIP3   OH279444   2.387   5.968   4.268 -0.0122  0.1115  0.1814
19318TIP3    H179445   2.405   5.957   4.175  0.7346  1.2502  0.1817
19318TIP3    H279446   2.341   5.887   4.293 -1.2835  0.2816 -1.4176
19319TIP3   OH279447   0.029   6.272  11.828  0.3622  0.0101  0.0892
19319TIP3    H179448   0.112   6.308  11.858  0.4184  0.1133 -0.1835
19319TIP3    H279449   0.029   6.289  11.733  0.1603 -0.2435  0.0431
19320TIP3   OH279450   4.313   2.924  13.395  0.2089 -0.2101  0.2738
19320TIP3    H179451   4.316   2.829  13.394 -1.3025 -0.2888  0.6403
19320TIP3    H279452   4.297   2.947  13.487  1.7559  0.4759  0.4126
19321TIP3   OH279453   4.519   2.492   2.738  0.3901 -0.3172  0.4043
19321TIP3    H179454   4.596   2.545   2.756  0.6093  0.0039 -1.2879
19321TIP3    H279455   4.518   2.483   2.642 -0.2293 -2.4734  0.5602
19322TIP3   OH279456   1.230   3.311   3.246  0.1410 -0.5060  0.5015
19322TIP3    H179457   1.181   3.301   3.165  0.1878 -0.2390  0.4406
19322TIP3    H279458   1.252   3.221   3.272 -1.9359 -0.7918  1.5102
19323TIP3   OH279459   1.236   3.231   1.184 -0.7511 -0.2772 -0.0202
19323TIP3    H179460   1.204   3.204   1.098 -2.0098 -0.0566  0.3594
19323TIP3    H279461   1.330   3.216   1.180 -0.8501 -0.6966 -1.2780
19324TIP3   OH279462   6.096   5.530  16.252 -0.1784  0.4022 -0.1200
19324TIP3    H179463   6.106   5.436  16.239  3.0371  0.4584  1.1128
19324TIP3    H279464   6.105   5.567  16.164 -0.8274 -0.3671 -0.5292
19325TIP3   OH279465   6.433   6.678  16.265  0.2130  0.0407 -0.3827
19325TIP3    H179466   6.365   6.621  16.229 -0.6052  0.0673  1.0669
19325TIP3    H279467   6.420   6.675  16.360  2.1775  0.1353 -0.0648
19326TIP3   OH279468   6.635   6.424   5.727  0.1220 -0.6115  0.2720
19326TIP3    H179469   6.600   6.438   5.814  0.8237 -0.5645  0.5574
19326TIP3    H279470   6.730   6.417   5.740  0.6028  2.5048 -0.8205
19327TIP3   OH279471   3.764   0.775  15.762  0.4496  0.5490  0.7979
19327TIP3    H179472   3.689   0.743  15.812  0.0123  1.8456  1.0016
19327TIP3    H279473   3.825   0.808  15.828  1.1111 -0.2652  0.6168
19328TIP3   OH279474   6.713   4.945   4.241  0.4475 -0.2854  0.1416
19328TIP3    H179475   6.695   5.005   4.314 -1.0629 -0.4435 -0.0658
19328TIP3    H279476   6.745   5.001   4.171  0.7867  0.0303  0.5481
19329TIP3   OH279477   2.040   0.801  11.703  0.0010 -0.0625  0.1119
19329TIP3    H179478   2.124   0.781  11.745  0.6386  1.4752 -0.3690
19329TIP3    H279479   2.057   0.793  11.609 -0.4501  0.0261  0.0198
19330TIP3   OH279480   2.811   1.395  12.611 -0.3255  0.7842  0.1373
19330TIP3    H179481   2.805   1.444  12.529 -0.4278  1.6711  0.6641
19330TIP3    H279482   2.904   1.394  12.632 -0.0317 -1.2298 -1.0294
19331TIP3   OH279483   3.075   4.244  17.017 -0.5703  0.0957  0.1379
19331TIP3    H179484   3.025   4.166  17.041  2.9308 -2.2421  0.5468
19331TIP3    H279485   3.055   4.307  17.086 -2.9319 -0.6209  0.1975
19332TIP3   OH279486   5.145   2.324  15.086 -0.3322  0.1295 -0.4777
19332TIP3    H179487   5.091   2.363  15.155  0.8864  1.3586 -0.1709
19332TIP3    H279488   5.196   2.256  15.131 -1.6370 -1.1112 -0.7897
19333TIP3   OH279489   0.296   1.696  13.333 -0.2719  0.0456 -0.0154
19333TIP3    H179490   0.206   1.665  13.320 -0.7052  1.6750 -1.3182
19333TIP3    H279491   0.304   1.708  13.427 -2.0054  1.4020  0.0088
19334TIP3   OH279492   1.286   4.397   3.890  0.5796 -0.5880  0.4140
19334TIP3    H179493   1.377   4.367   3.900  0.6466 -0.9873 -1.0770
19334TIP3    H279494   1.277   4.412   3.796 -0.5961  0.4815  0.6833
19335TIP3   OH279495   4.493   1.604  17.137  0.5577 -0.1303 -0.4719
19335TIP3    H179496   4.565   1.566  17.187  0.2324 -1.3710 -0.9099
19335TIP3    H279497   4.417   1.549  17.159  0.1459  0.0557 -1.3863
19336TIP3   OH279498   4.642   0.904  15.036 -0.0449 -0.0225  0.2050
19336TIP3    H179499   4.731   0.939  15.043 -0.6438  2.1777 -1.8927
19336TIP3    H279500   4.645   0.847  14.960  0.2239 -2.5270  1.9611
19337TIP3   OH279501   4.638   4.126  13.391 -0.4356 -0.5942  0.0978
19337TIP3    H179502   4.630   4.056  13.327  0.4858  1.2905 -2.2405
19337TIP3    H279503   4.730   4.153  13.387 -0.8843  1.1627  0.3981
19338TIP3   OH279504   3.406   2.183  14.627  0.9698  0.0693  0.0807
19338TIP3    H179505   3.498   2.184  14.601  1.8033 -2.3066  2.5269
19338TIP3    H279506   3.393   2.097  14.668 -2.6180 -0.0672 -1.0138
19339TIP3   OH279507   3.999   5.743  15.715 -0.1572  0.1513 -0.0616
19339TIP3    H179508   3.970   5.653  15.699  0.2842 -0.1930  0.9996
19339TIP3    H279509   4.028   5.743  15.806  0.0385  1.3241 -0.1127
19340TIP3   OH279510   5.128   4.690   4.855  0.2010 -0.8200 -0.2433
19340TIP3    H179511   5.063   4.718   4.791  0.5397  0.9935  0.1269
19340TIP3    H279512   5.087   4.705   4.940  1.1563  0.7220  0.0074
19341TIP3   OH279513   5.242   0.781   3.005 -0.4875 -0.1301 -0.0043
19341TIP3    H179514   5.300   0.759   3.078 -0.9873 -1.8097 -0.0837
19341TIP3    H279515   5.186   0.850   3.039  0.9873  0.9624  0.3306
19342TIP3   OH279516   1.693   4.686  12.923  0.1547  0.7325 -0.5559
19342TIP3    H179517   1.714   4.749  12.992  0.3082  0.1332 -0.0477
19342TIP3    H279518   1.769   4.628  12.920 -1.5394 -1.9166  1.7919
19343TIP3   OH279519   0.542   0.492  16.895 -0.1860  0.0854  0.7046
19343TIP3    H179520   0.608   0.562  16.891  0.3034 -0.3969 -0.0791
19343TIP3    H279521   0.555   0.452  16.980  1.6848 -1.0530 -0.0388
19344TIP3   OH279522   4.587   2.666   4.509 -0.0647 -0.3747 -0.1319
19344TIP3    H179523   4.609   2.701   4.595 -0.0489  4.0150 -1.7022
19344TIP3    H279524   4.672   2.641   4.471  0.2865  0.5491  0.0299
19345TIP3   OH279525   3.514   3.351  15.118 -0.2288 -0.0151  0.3514
19345TIP3    H179526   3.464   3.417  15.165 -0.5501 -1.0280  1.4722
19345TIP3    H279527   3.569   3.401  15.058 -0.4167  1.2720  1.2189
19346TIP3   OH279528   4.648   5.027   0.495 -0.4926  0.7881  0.0495
19346TIP3    H179529   4.664   5.078   0.416  0.6752 -1.4104 -1.2158
19346TIP3    H279530   4.721   4.965   0.499 -0.6375  0.6668  2.7496
19347TIP3   OH279531   2.864   3.402  14.726 -0.6989 -0.8132  0.4735
19347TIP3    H179532   2.796   3.435  14.785 -1.3542 -1.7372  0.2513
19347TIP3    H279533   2.937   3.378  14.784 -1.3155 -1.6574  0.9227
19348TIP3   OH279534   6.191   1.462  13.314 -0.1101  0.3374  0.1305
19348TIP3    H179535   6.264   1.407  13.343  0.1678  0.6935  0.1038
19348TIP3    H279536   6.155   1.500  13.394  0.8234  1.5307  0.0111
19349TIP3   OH279537   2.852   0.982   1.908 -0.1297  0.1174 -0.1280
19349TIP3    H179538   2.813   0.952   1.990  1.7719 -2.8670 -0.1817
19349TIP3    H279539   2.806   0.932   1.840  1.2722 -0.7738 -0.4632
19350TIP3   OH279540   2.058   0.734   2.775  0.3411  0.1742 -0.4150
19350TIP3    H179541   2.129   0.701   2.720  1.1484  0.3375  0.5039
19350TIP3    H279542   2.038   0.662   2.835  0.6235  0.5697  0.1683
19351TIP3   OH279543   1.611   4.523   6.181 -0.1358 -0.2919  0.3467
19351TIP3    H179544   1.625   4.465   6.256 -1.7627  0.8360  1.5855
19351TIP3    H279545   1.551   4.475   6.124 -2.0259  0.3293  1.6926
19352TIP3   OH279546   1.547   0.837   5.155  0.0682 -0.2935  0.0858
19352TIP3    H179547   1.580   0.755   5.119 -1.0319 -0.8175  0.2004
19352TIP3    H279548   1.476   0.862   5.095 -0.9043 -0.4790  1.1338
19353TIP3   OH279549   0.325   1.107   1.603  0.2293 -0.9820 -0.2830
19353TIP3    H179550   0.384   1.181   1.585 -2.9898  1.2850 -2.7592
19353TIP3    H279551   0.343   1.044   1.534  0.7551 -1.0220 -0.1140
19354TIP3   OH279552   2.838   6.504  17.109 -0.1139 -0.2177 -0.0403
19354TIP3    H179553   2.755   6.469  17.143  0.0103 -0.3859  0.0981
19354TIP3    H279554   2.846   6.590  17.150 -0.3612 -0.0774 -0.2819
19355TIP3   OH279555   5.717   6.363   3.556  0.0447  0.0002 -0.1387
19355TIP3    H179556   5.709   6.456   3.536 -2.0282 -0.3110 -1.0313
19355TIP3    H279557   5.741   6.323   3.473  1.3846 -0.2361  0.3458
19356TIP3   OH279558   1.303   0.773   4.492  0.2537 -0.2134  0.3227
19356TIP3    H179559   1.313   0.719   4.414  0.3761  1.4835 -0.8994
19356TIP3    H279560   1.217   0.815   4.481 -0.5112 -1.2537  1.9805
19357TIP3   OH279561   0.762   6.623   3.693  0.1656 -0.1742  0.0740
19357TIP3    H179562   0.832   6.588   3.639  2.1727  1.1858  1.6298
19357TIP3    H279563   0.708   6.675   3.633  2.5970  1.7039 -0.6482
19358TIP3   OH279564   3.420   4.499   5.773 -0.4712 -0.3852  0.2486
19358TIP3    H179565   3.347   4.522   5.830  0.2245 -0.0310  1.0101
19358TIP3    H279566   3.383   4.437   5.710 -1.0328 -1.5903  1.7136
19359TIP3   OH279567   3.145   5.689   3.405  0.0956 -0.3671  0.2549
19359TIP3    H179568   3.157   5.629   3.332  0.2808  0.5203 -0.4613
19359TIP3    H279569   3.156   5.634   3.483  3.3175 -0.7658 -0.3217
19360TIP3   OH279570   3.636   5.118   5.662  0.7967  0.3178  0.7393
19360TIP3    H179571   3.615   5.105   5.754 -0.6996 -1.7824  0.1727
19360TIP3    H279572   3.677   5.036   5.634  2.0722  1.2556 -0.2888
19361TIP3   OH279573   4.606   1.382   6.332  0.3720  0.6070  0.0268
19361TIP3    H179574   4.644   1.360   6.417 -0.7440 -0.5775  0.2564
19361TIP3    H279575   4.681   1.391   6.273  1.0751 -0.4306  0.7320
19362TIP3   OH279576   2.540   4.037  14.595 -0.5750 -0.1766 -0.1656
19362TIP3    H179577   2.623   4.032  14.643 -1.6839  2.2568  2.3239
19362TIP3    H279578   2.562   4.081  14.514  0.6384  0.1315  0.3067
19363TIP3   OH279579   2.126   0.388  15.934  0.0132 -0.4882  0.1779
19363TIP3    H179580   2.162   0.363  16.019  0.5219  1.4995  0.5862
19363TIP3    H279581   2.203   0.407  15.881 -0.3281 -1.0056 -0.5218
19364TIP3   OH279582   0.285   6.193  15.764  0.7199 -0.1751  0.4079
19364TIP3    H179583   0.350   6.263  15.766 -0.8193  1.3825 -0.3926
19364TIP3    H279584   0.277   6.165  15.855 -1.4798  3.6023  1.6041
19365TIP3   OH279585   1.358   2.226   0.134 -0.6037 -0.4334 -0.3117
19365TIP3    H179586   1.443   2.196   0.100 -0.5546 -0.7375  0.0753
19365TIP3    H279587   1.306   2.146   0.142 -1.8143 -0.0252 -2.9081
19366TIP3   OH279588   1.450   1.258  17.001  0.1158  0.1360  0.2965
19366TIP3    H179589   1.399   1.226  16.927  0.3605  0.3340  0.0400
19366TIP3    H279590   1.505   1.185  17.027 -0.3632 -0.1148  0.6394
19367TIP3   OH279591   4.301   4.688   1.806 -0.1531 -0.1667 -0.1004
19367TIP3    H179592   4.366   4.754   1.780  0.8835 -0.7713  0.8784
19367TIP3    H279593   4.310   4.618   1.741  0.6606 -0.5531  0.4246
19368TIP3   OH279594   2.865   6.538   2.125 -0.3354 -0.4710  0.3076
19368TIP3    H179595   2.864   6.483   2.204  3.9776 -0.0930  0.8464
19368TIP3    H279596   2.882   6.477   2.054  1.0191 -0.2820  0.4446
19369TIP3   OH279597   1.892   4.856   5.435  0.2670 -0.1771 -0.1902
19369TIP3    H179598   1.903   4.836   5.342  0.0848  0.3053 -0.3227
19369TIP3    H279599   1.835   4.787   5.469  0.9345 -0.7696 -0.2691
19370TIP3   OH279600   6.544   4.588   3.151 -0.5492  0.3249  0.5485
19370TIP3    H179601   6.590   4.507   3.176 -0.0128  0.0172 -1.2747
19370TIP3    H279602   6.612   4.655   3.152 -0.4829  0.2696 -0.2405
19371TIP3   OH279603   2.597   2.441   5.988  0.5997  0.0636  0.1149
19371TIP3    H179604   2.610   2.535   6.005  0.3312  0.1723 -0.2636
19371TIP3    H279605   2.503   2.433   5.972  0.4135 -0.4616  1.3169
19372TIP3   OH279606   1.519   3.477   5.279  0.5149  0.0200 -0.2940
19372TIP3    H179607   1.503   3.517   5.194  0.8643 -1.8584 -1.2932
19372TIP3    H279608   1.572   3.399   5.259 -1.5742 -1.9484  1.3192
19373TIP3   OH279609   5.117   3.550  15.736  0.3819 -0.7665  0.1679
19373TIP3    H179610   5.109   3.494  15.659 -0.5435  0.4428 -0.6435
19373TIP3    H279611   5.089   3.494  15.809 -0.3005 -1.4353 -0.5911
19374TIP3   OH279612   1.120   1.964   4.594  0.2998  0.2106  0.2188
19374TIP3    H179613   1.107   1.960   4.689  0.1201  2.2087  0.3253
19374TIP3    H279614   1.212   1.989   4.583 -0.0160  1.3357 -0.0552
19375TIP3   OH279615   1.545   0.033   5.882 -0.3009  0.6117 -0.4542
19375TIP3    H179616   1.576  -0.015   5.959  2.9882 -0.4560 -2.2449
19375TIP3    H279617   1.450   0.038   5.893 -0.2243 -1.7291  2.3746
19376TIP3   OH279618   1.724   5.931  12.002  0.4948  0.4675 -0.1548
19376TIP3    H179619   1.741   5.901  11.913  0.0080 -0.1517 -0.0428
19376TIP3    H279620   1.732   5.853  12.057 -1.2765  0.4091  0.0767
19377TIP3   OH279621   2.605   2.035  12.466  0.2347 -0.2299  0.3110
19377TIP3    H179622   2.657   1.967  12.510  0.5564 -0.4267 -0.3646
19377TIP3    H279623   2.642   2.041  12.378  0.2867  0.9042  0.3903
19378TIP3   OH279624   0.794   6.531  15.200 -0.1993  0.5802 -0.6797
19378TIP3    H179625   0.846   6.600  15.158 -1.4149  2.1285  0.2097
19378TIP3    H279626   0.758   6.480  15.128 -0.3806  1.7445 -1.4390
19379TIP3   OH279627   6.631   1.872  15.588 -0.6141 -0.5090  0.2711
19379TIP3    H179628   6.712   1.825  15.609  0.0172  0.3916 -0.0571
19379TIP3    H279629   6.659   1.964  15.580 -1.1311 -0.5317 -2.6399
19380TIP3   OH279630   1.367   3.567  17.157  0.2742 -0.5346 -0.3305
19380TIP3    H179631   1.417   3.502  17.206  0.1695 -0.2359  0.1826
19380TIP3    H279632   1.405   3.651  17.182 -0.5142 -0.3012  0.1154
19381TIP3   OH279633   3.162   4.897   3.130 -0.0803 -0.3170  0.0242
19381TIP3    H179634   3.202   4.910   3.044 -1.1828  0.4254 -0.4165
19381TIP3    H279635   3.214   4.829   3.172  0.7929 -0.3210 -1.0268
19382TIP3   OH279636   2.179   3.515   3.357  0.5761 -0.9293 -0.4895
19382TIP3    H179637   2.223   3.593   3.324 -2.6961  1.5980  0.5707
19382TIP3    H279638   2.116   3.492   3.289 -1.6952  0.3442  1.0557
19383TIP3   OH279639   5.599   1.304   2.549 -0.5724  0.2777 -0.5513
19383TIP3    H179640   5.620   1.397   2.535  0.1116  0.4852  1.5538
19383TIP3    H279641   5.631   1.285   2.637  1.4726 -2.5862 -1.7493
19384TIP3   OH279642   0.944   2.332  15.558 -0.1384  0.0144  0.2552
19384TIP3    H179643   0.878   2.352  15.491  0.0568 -1.3296 -0.3659
19384TIP3    H279644   0.895   2.332  15.641 -1.5374 -3.3480 -0.4118
19385TIP3   OH279645   3.135   5.338  16.827  0.5034  0.5324 -0.4642
19385TIP3    H179646   3.154   5.295  16.911 -2.3162 -1.2199 -0.6174
19385TIP3    H279647   3.073   5.407  16.849 -0.5483 -0.1803 -1.1164
19386TIP3   OH279648   0.903   0.503   2.734  0.3313  0.4213  0.3730
19386TIP3    H179649   0.892   0.475   2.643 -0.8810  0.6501  0.4358
19386TIP3    H279650   0.969   0.444   2.769 -0.8698 -1.2145 -0.0089
19387TIP3   OH279651   0.330   6.447  14.599  0.1360  0.0304  0.0005
19387TIP3    H179652   0.385   6.467  14.523  1.8538 -1.5795  0.7378
19387TIP3    H279653   0.344   6.520  14.659 -0.7585  1.0083 -0.9366
19388TIP3   OH279654   5.936   2.834  10.858  0.1084 -0.3228  0.3519
19388TIP3    H179655   5.905   2.744  10.868 -0.7190 -0.2647 -1.2299
19388TIP3    H279656   5.992   2.850  10.933 -0.8445 -1.6956  1.3907
19389TIP3   OH279657   0.781   3.007  10.965  0.2737  0.0508  0.2320
19389TIP3    H179658   0.730   3.014  10.885 -0.0913 -0.7126  0.3905
19389TIP3    H279659   0.809   3.096  10.983 -0.3860  0.3667 -0.2593
19390TIP3   OH279660   1.522   2.670  16.498  0.7304 -0.2008  0.4140
19390TIP3    H179661   1.438   2.698  16.462  0.1613 -1.6329  0.5757
19390TIP3    H279662   1.583   2.679  16.425  0.3752  0.4599  0.1821
19391TIP3   OH279663   5.007   4.028  15.413  0.6291 -0.2026 -0.0207
19391TIP3    H179664   4.924   4.075  15.418  0.5451 -0.4190  0.9277
19391TIP3    H279665   4.982   3.936  15.421  0.8643 -0.3510 -0.9481
19392TIP3   OH279666   0.793   4.662  13.409 -0.4192 -0.3066  0.1464
19392TIP3    H179667   0.769   4.751  13.435 -1.9663 -0.4437 -0.6795
19392TIP3    H279668   0.717   4.630  13.362  1.2024 -1.0183 -2.1779
19393TIP3   OH279669   3.615   4.133  17.013 -0.0052 -0.2716 -0.1424
19393TIP3    H179670   3.598   4.211  16.961  1.2966  0.6640  0.7697
19393TIP3    H279671   3.535   4.119  17.064 -0.5196  0.0116 -0.8635
19394TIP3   OH279672   6.241   5.783   3.642  1.0581  0.4717  0.7597
19394TIP3    H179673   6.215   5.699   3.680  0.9964 -1.1857 -2.5761
19394TIP3    H279674   6.335   5.776   3.628  0.6006 -0.5785 -2.6100
19395TIP3   OH279675   6.132   0.068  15.045  0.1957  0.8149 -0.2346
19395TIP3    H179676   6.120  -0.025  15.064 -0.5782  1.0548  0.4688
19395TIP3    H279677   6.066   0.087  14.978  0.8431  0.6939 -0.9157
19396TIP3   OH279678   1.139   5.731   2.687  0.3226  0.2964  0.1733
19396TIP3    H179679   1.188   5.650   2.699  0.8406  0.4751 -0.6876
19396TIP3    H279680   1.184   5.794   2.744 -0.0906 -0.0139  0.8543
19397TIP3   OH279681   5.165   4.787   2.289  0.1906 -1.0264 -0.2647
19397TIP3    H179682   5.142   4.822   2.203  0.8864  0.1788  0.0222
19397TIP3    H279683   5.180   4.864   2.343  1.1596 -1.7689  0.5542
19398TIP3   OH279684   3.865   6.149   4.389  0.0258 -0.4853 -0.4876
19398TIP3    H179685   3.957   6.172   4.399 -0.6363  1.6144  1.5048
19398TIP3    H279686   3.833   6.206   4.319  0.1433 -0.9783 -0.9502
19399TIP3   OH279687   4.973   4.174  14.567  0.3317 -0.0913  0.6093
19399TIP3    H179688   4.930   4.239  14.512  1.0437  0.5395  0.7753
19399TIP3    H279689   5.022   4.120  14.505 -0.1485 -0.3830  0.4829
19400TIP3   OH279690   4.108   3.322   1.038  0.5829  0.3903  0.3311
19400TIP3    H179691   4.029   3.268   1.039  0.9036 -0.0896  1.2545
19400TIP3    H279692   4.076   3.411   1.030  0.0662  0.0687 -2.0203
19401TIP3   OH279693   2.566   4.309  16.120 -0.3233 -0.4445  0.4790
19401TIP3    H179694   2.496   4.298  16.185  0.1407 -0.1298  1.0444
19401TIP3    H279695   2.647   4.304  16.171  0.0505 -0.1975 -0.0803
19402TIP3   OH279696   5.401   6.273  16.134  0.1869  0.4314 -0.4807
19402TIP3    H179697   5.307   6.275  16.154  0.4869 -0.6694  1.2505
19402TIP3    H279698   5.436   6.354  16.172  0.0217  0.5988 -0.6841
19403TIP3   OH279699   3.505   0.563   4.147 -0.4489 -0.1209  0.3071
19403TIP3    H179700   3.541   0.475   4.162  0.8385  0.6121  1.7404
19403TIP3    H279701   3.561   0.600   4.078  0.7012  0.4926  1.5295
19404TIP3   OH279702   0.192   3.257  13.393  0.4782 -0.0154 -0.3583
19404TIP3    H179703   0.275   3.284  13.355  1.2219  1.6580  2.2401
19404TIP3    H279704   0.136   3.334  13.386  0.0546 -0.2532  0.3015
19405TIP3   OH279705   3.979   6.060  11.328  0.3452  0.3457 -0.4950
19405TIP3    H179706   4.007   6.030  11.414  2.9743  0.0977 -1.3460
19405TIP3    H279707   3.995   6.154  11.329  0.8263  0.2692 -0.8665
19406TIP3   OH279708   5.559   1.452   5.033 -0.3580 -0.4594 -0.6793
19406TIP3    H179709   5.530   1.540   5.054  0.5102 -0.3097 -0.0695
19406TIP3    H279710   5.549   1.402   5.114 -0.4033 -0.8034 -0.8905
19407TIP3   OH279711   6.494   2.146   1.891  0.0746 -0.6401 -0.1070
19407TIP3    H179712   6.581   2.171   1.859  0.4913 -2.8673 -0.9396
19407TIP3    H279713   6.498   2.160   1.985  0.4908  1.5457 -0.4015
19408TIP3   OH279714   4.039   0.635   4.485  0.1977 -0.2142 -0.4849
19408TIP3    H179715   3.957   0.682   4.471 -1.0666 -2.0242  0.4292
19408TIP3    H279716   4.033   0.558   4.429  1.6879  0.0743 -1.0812
19409TIP3   OH279717   4.724   3.013  11.695 -0.2545  0.0706  0.7022
19409TIP3    H179718   4.675   2.972  11.766  1.6482 -1.4544  1.2236
19409TIP3    H279719   4.759   2.939  11.644  0.9552  1.0780  0.0028
19410TIP3   OH279720   4.032   0.385   1.756  0.4410  0.1646  0.6302
19410TIP3    H179721   3.965   0.385   1.825  0.0145  1.0241  0.2388
19410TIP3    H279722   4.008   0.459   1.699 -0.2746 -1.6024 -1.4790
19411TIP3   OH279723   5.650   3.462  16.328  0.0062 -0.1016 -0.2876
19411TIP3    H179724   5.587   3.533  16.340 -1.0924 -1.0973 -0.0063
19411TIP3    H279725   5.696   3.457  16.412 -1.7098 -1.3836  0.6342
19412TIP3   OH279726   5.720   0.825  15.983  0.1317  0.2238 -0.0172
19412TIP3    H179727   5.708   0.846  15.890 -0.0647 -0.6154 -0.1915
19412TIP3    H279728   5.632   0.832  16.020 -0.6405 -3.4766 -0.7786
19413TIP3   OH279729   1.530   3.025  16.720  0.9778 -0.1854 -0.1353
19413TIP3    H179730   1.510   3.061  16.633  2.0822 -1.3994 -0.9209
19413TIP3    H279731   1.508   3.096  16.780 -1.7518  0.0243 -1.1989
19414TIP3   OH279732   0.741   3.266   0.362 -0.2781  0.4807 -0.2143
19414TIP3    H179733   0.755   3.263   0.457  1.5338  1.6310 -0.4134
19414TIP3    H279734   0.821   3.230   0.325 -0.8710  0.2767 -1.3315
19415TIP3   OH279735   6.059   2.604  15.473  0.0367  0.2018 -0.3400
19415TIP3    H179736   6.084   2.623  15.383 -0.3420  0.2504 -0.4384
19415TIP3    H279737   5.965   2.583  15.468 -0.0866  0.6190  0.0953
19416TIP3   OH279738   2.343   0.154  14.368 -0.0098 -0.1765 -0.3280
19416TIP3    H179739   2.403   0.122  14.436  0.2786 -0.9848 -0.9470
19416TIP3    H279740   2.400   0.179  14.296 -0.3423  0.3262 -0.4228
19417TIP3   OH279741   1.077   1.808   2.723 -0.6433 -0.2726 -0.0028
19417TIP3    H179742   1.036   1.766   2.648 -0.2858 -0.0532 -0.3236
19417TIP3    H279743   1.049   1.899   2.718 -0.1940 -0.1435 -0.1686
19418TIP3   OH279744   5.535   1.223   3.996 -0.5148  0.2619  0.8959
19418TIP3    H179745   5.564   1.212   4.087  2.6621  0.0551 -0.0510
19418TIP3    H279746   5.443   1.250   4.004 -0.1990  0.7735  4.1722
19419TIP3   OH279747   2.889   5.733   4.106  0.2484 -0.6289 -0.0495
19419TIP3    H179748   2.914   5.743   4.198 -2.0725  0.9017  0.5168
19419TIP3    H279749   2.862   5.820   4.079  0.8842 -1.0465 -2.2417
19420TIP3   OH279750   1.988   0.673   4.168  0.0985  0.7300 -0.3438
19420TIP3    H179751   2.060   0.724   4.206  0.1973  0.4113 -0.1064
19420TIP3    H279752   2.025   0.587   4.151 -0.2050  0.5860 -0.2877
19421TIP3   OH279753   5.212   0.118  11.503  0.2598 -0.1527 -0.2475
19421TIP3    H179754   5.267   0.053  11.458  0.2971 -0.1186 -0.2524
19421TIP3    H279755   5.177   0.172  11.432  0.9064  0.3578 -0.1876
19422TIP3   OH279756   1.679   2.703   2.165 -0.0016  0.4101 -0.1869
19422TIP3    H179757   1.726   2.652   2.099 -1.6157 -1.4489  0.0053
19422TIP3    H279758   1.719   2.677   2.248  0.9707  1.5523 -0.2732
19423TIP3   OH279759   6.465   1.122  14.484 -0.3115 -0.2750  0.5282
19423TIP3    H179760   6.423   1.176  14.417 -0.5960  0.9584  1.6428
19423TIP3    H279761   6.556   1.152  14.484 -0.8465  1.5900  2.3738
19424TIP3   OH279762   6.151   0.684   3.178 -0.5559  0.0997 -0.4905
19424TIP3    H179763   6.195   0.748   3.122 -0.0779  1.4882  1.3879
19424TIP3    H279764   6.058   0.695   3.159 -0.4700  1.3367 -0.2426
19425TIP3   OH279765   4.808   4.525  16.336 -0.4168  0.0463 -0.2819
19425TIP3    H179766   4.812   4.587  16.263  1.8865  0.0489 -0.2249
19425TIP3    H279767   4.859   4.567  16.405 -0.1775 -1.2036  0.3266
19426TIP3   OH279768   1.174   1.155  12.881 -0.3269 -0.0759  0.7110
19426TIP3    H179769   1.256   1.177  12.837 -0.8192 -0.0488 -0.2185
19426TIP3    H279770   1.135   1.239  12.903 -0.2158 -0.0861  0.9499
19427TIP3   OH279771   4.754   0.758  13.229  0.1555 -0.0532  0.0635
19427TIP3    H179772   4.833   0.731  13.275 -0.6321  0.9778  2.1918
19427TIP3    H279773   4.786   0.801  13.150  1.6653 -0.5806  0.3486
19428TIP3   OH279774   2.986   5.636  11.303  0.2621  0.0143  0.6794
19428TIP3    H179775   2.982   5.545  11.272  2.2544 -0.1533  0.7850
19428TIP3    H279776   2.895   5.665  11.304 -0.3613 -1.7816  0.0509
19429TIP3   OH279777   2.518   0.264   2.646  0.6740  0.1930  0.1842
19429TIP3    H179778   2.481   0.240   2.731  1.2467 -0.7358  0.1876
19429TIP3    H279779   2.577   0.192   2.625  1.7667  1.1991 -0.2509
19430TIP3   OH279780   3.213   6.073   6.276  0.0751  0.4499 -0.2761
19430TIP3    H179781   3.258   5.991   6.300 -0.3170  0.4859  0.6206
19430TIP3    H279782   3.149   6.047   6.210 -1.3503 -0.3334  1.3371
19431TIP3   OH279783   1.296   4.421   2.299 -0.2775  0.4640  0.6427
19431TIP3    H179784   1.369   4.360   2.284  0.3232  1.4770 -0.8385
19431TIP3    H279785   1.269   4.405   2.389  0.7842 -0.9985  0.7354
19432TIP3   OH279786   6.528   2.041  10.976 -0.0023  0.3621  0.0035
19432TIP3    H179787   6.553   2.011  11.063 -2.5566  1.2878  1.1440
19432TIP3    H279788   6.557   1.972  10.917 -1.2344 -1.9740  1.9848
19433TIP3   OH279789   3.198   0.411   0.662 -0.5969 -0.5022 -0.6932
19433TIP3    H179790   3.269   0.406   0.598 -2.0093 -0.3703 -2.3416
19433TIP3    H279791   3.152   0.492   0.639  0.8232  1.4734  2.6968
19434TIP3   OH279792   3.106   0.454   4.369  0.3510 -0.2589  0.0993
19434TIP3    H179793   3.160   0.444   4.291  1.1461  1.3117  0.3893
19434TIP3    H279794   3.029   0.503   4.339  0.3861 -0.1485  0.1885
19435TIP3   OH279795   0.343   6.774   4.084 -0.0366  0.4348 -0.2874
19435TIP3    H179796   0.254   6.786   4.117  0.6694  1.4961  1.3337
19435TIP3    H279797   0.374   6.863   4.066  1.3384  0.2568  1.0168
19436TIP3   OH279798   4.551   1.470  13.386  0.2823  0.5848  0.0068
19436TIP3    H179799   4.641   1.477  13.418  0.3402 -1.6703  0.5446
19436TIP3    H279800   4.527   1.379  13.403 -0.8786  0.1164 -3.3811
19437TIP3   OH279801   2.486   3.601   0.920  0.1021 -0.4250 -0.1081
19437TIP3    H179802   2.413   3.631   0.975  0.1741 -0.0732 -0.2004
19437TIP3    H279803   2.506   3.513   0.952 -0.4914 -0.6007 -0.2093
19438TIP3   OH279804   3.900   1.607  16.881 -0.9106 -0.0163  1.0333
19438TIP3    H179805   3.922   1.689  16.924  0.6856 -0.5540  1.2999
19438TIP3    H279806   3.820   1.577  16.925 -1.9106  1.6986  0.4668
19439TIP3   OH279807   0.384   5.155   1.777  0.1441  0.4766  0.3686
19439TIP3    H179808   0.461   5.140   1.832 -0.0409 -1.9895  0.0714
19439TIP3    H279809   0.362   5.246   1.791  1.9512  0.7319  1.9759
19440TIP3   OH279810   0.734   5.606  14.910  0.6881 -0.1496 -0.0423
19440TIP3    H179811   0.692   5.574  14.830 -0.4789  0.7372  0.1928
19440TIP3    H279812   0.815   5.555  14.916  0.9378 -0.0526 -1.9267
19441TIP3   OH279813   3.193   1.138  11.195  0.3328  0.0899  0.9515
19441TIP3    H179814   3.203   1.201  11.123  0.2857 -0.1056  0.7713
19441TIP3    H279815   3.159   1.060  11.153  1.6098 -0.4912  0.9580
19442TIP3   OH279816   3.189   3.887  16.769  0.5781 -0.1702  0.6572
19442TIP3    H179817   3.138   3.966  16.786  0.3478 -0.1561 -0.0781
19442TIP3    H279818   3.182   3.836  16.850 -1.3601 -0.5828  0.2725
19443TIP3   OH279819   6.699   5.839   3.451  0.6597  0.0105 -0.3851
19443TIP3    H179820   6.635   5.835   3.380  0.8298  0.0770 -0.5406
19443TIP3    H279821   6.755   5.763   3.438 -0.2723 -0.8886  0.5966
19444TIP3   OH279822   6.332   5.954  12.277 -0.6648  0.1473  0.0918
19444TIP3    H179823   6.312   5.965  12.370  0.4663 -0.3013  0.4099
19444TIP3    H279824   6.317   5.861  12.260  1.0753 -0.2143  0.3544
19445TIP3   OH279825   6.458   5.971   3.244  0.1459  0.1635  0.4963
19445TIP3    H179826   6.537   6.024   3.238  0.3351 -0.1589  0.1746
19445TIP3    H279827   6.471   5.899   3.183  0.2089 -0.6845  1.4762
19446TIP3   OH279828   4.055   3.206   4.093  0.6268  0.6092 -0.1963
19446TIP3    H179829   4.078   3.190   4.185  2.6189  0.7671 -0.6288
19446TIP3    H279830   4.130   3.175   4.043  0.1809  1.8063 -1.7015
19447TIP3   OH279831   6.657   4.852   0.143 -0.3364 -0.2664 -0.0367
19447TIP3    H179832   6.730   4.790   0.140  0.4171  0.5532  0.7549
19447TIP3    H279833   6.617   4.838   0.228 -0.0668  0.4331  0.2077
19448TIP3   OH279834   2.328   0.744  15.238 -0.5964 -0.2884  0.7029
19448TIP3    H179835   2.311   0.792  15.319 -2.4494  0.5237 -0.1111
19448TIP3    H279836   2.249   0.757  15.186  0.2512 -1.4231 -0.9369
19449TIP3   OH279837   3.806   0.906  16.734 -0.0598  0.3376 -0.0897
19449TIP3    H179838   3.760   0.986  16.708  0.8946  0.6067 -1.0257
19449TIP3    H279839   3.865   0.888  16.661  1.2499 -0.0536  1.0174
19450TIP3   OH279840   0.574   4.923  11.745  0.0753  0.2491  0.0705
19450TIP3    H179841   0.529   4.997  11.704  2.0646 -0.3675 -3.6741
19450TIP3    H279842   0.664   4.954  11.757  0.4653 -0.9194  0.2505
19451TIP3   OH279843   4.524   4.226  17.114 -0.2926 -0.1853  0.3217
19451TIP3    H179844   4.519   4.241  17.209 -0.4063 -1.2157  0.4883
19451TIP3    H279845   4.498   4.310  17.076 -2.4208 -0.3901  1.1880
19452TIP3   OH279846   0.817   6.148  13.075  0.3641  0.4747 -0.4431
19452TIP3    H179847   0.877   6.144  13.001 -1.7067  0.6242 -2.2224
19452TIP3    H279848   0.730   6.142  13.036 -0.8715  1.9436  1.8746
19453TIP3   OH279849   4.187   3.774   6.196 -0.1670 -0.0241 -0.3082
19453TIP3    H179850   4.106   3.723   6.190  0.2923 -0.9701  1.1761
19453TIP3    H279851   4.160   3.864   6.178 -1.7936 -0.1150  1.3948
19454TIP3   OH279852   3.937   2.026  12.127  0.3969  0.0257 -0.2124
19454TIP3    H179853   3.953   1.991  12.215  1.8461 -2.5859 -1.4024
19454TIP3    H279854   3.844   2.009  12.111 -0.0579  1.1335  0.9890
19455TIP3   OH279855   1.929   5.250   2.118  0.1084  0.3363 -0.8717
19455TIP3    H179856   1.878   5.180   2.159  1.3234 -0.5985 -0.9145
19455TIP3    H279857   1.945   5.312   2.189  2.1880 -1.2675  0.1695
19456TIP3   OH279858   4.422   4.707  16.777 -0.0939  0.4443  0.1914
19456TIP3    H179859   4.342   4.760  16.772  0.5126  1.4266  0.7061
19456TIP3    H279860   4.390   4.617  16.779 -1.2036  0.8235  0.4957
19457TIP3   OH279861   1.424   2.078  12.313 -0.8773  0.3431 -0.4186
19457TIP3    H179862   1.426   2.041  12.225  0.8287  1.0554 -0.7085
19457TIP3    H279863   1.364   2.152  12.306 -0.6100  0.5091 -1.0373
19458TIP3   OH279864   5.232   4.371   0.512 -0.4965 -0.2868  0.5600
19458TIP3    H179865   5.164   4.439   0.506 -0.5332 -0.2968  0.8279
19458TIP3    H279866   5.313   4.417   0.493 -0.6039 -0.3227  0.0093
19459TIP3   OH279867   2.778   5.583  12.749  0.2525 -0.4125 -0.4879
19459TIP3    H179868   2.757   5.511  12.689 -1.3983  0.2529 -0.7669
19459TIP3    H279869   2.828   5.645  12.696 -2.4905  0.9032 -1.7524
19460TIP3   OH279870   3.377   1.224  13.435 -0.4132  0.5629  0.3109
19460TIP3    H179871   3.469   1.198  13.429  0.6447  4.1393 -3.9549
19460TIP3    H279872   3.376   1.291  13.504 -0.0824 -0.2155  1.0884
19461TIP3   OH279873   2.192   2.939  15.805  0.5768 -0.3491  0.0828
19461TIP3    H179874   2.255   2.969  15.739  1.5587  0.3621  1.2887
19461TIP3    H279875   2.140   3.017  15.824 -0.5596 -0.8760 -0.7374
19462TIP3   OH279876   2.905   6.357   3.122 -0.8409  0.2759 -0.0246
19462TIP3    H179877   2.891   6.264   3.105 -1.4682  0.7548 -2.5402
19462TIP3    H279878   2.825   6.386   3.165 -1.6317  0.0808 -1.3186
19463TIP3   OH279879   0.242   6.396   4.364 -0.2097  0.8005 -0.0553
19463TIP3    H179880   0.238   6.394   4.268  2.3474 -0.0926 -0.2224
19463TIP3    H279881   0.322   6.444   4.383 -0.4327  0.5451  1.6396
19464TIP3   OH279882   2.768   5.546   0.675 -1.0055 -0.5780  0.2165
19464TIP3    H179883   2.723   5.462   0.672  2.2533 -2.4571 -1.3719
19464TIP3    H279884   2.859   5.524   0.699  0.3237  2.2409 -1.6741
19465TIP3   OH279885   0.386   4.773  13.348  0.1497  0.1284  0.1857
19465TIP3    H179886   0.452   4.839  13.326  0.4561  0.6697  2.4790
19465TIP3    H279887   0.359   4.737  13.264  1.3483  1.8521 -0.9976
19466TIP3   OH279888   3.416   3.222   0.982 -0.0753  0.0388 -0.4102
19466TIP3    H179889   3.455   3.167   1.050  0.0044  0.9653  0.3174
19466TIP3    H279890   3.377   3.295   1.030  1.0582  1.3623 -1.4090
19467TIP3   OH279891   2.973   5.689  11.800  0.0766  0.2662 -0.4493
19467TIP3    H179892   2.986   5.781  11.781  2.5628  0.2877  0.9439
19467TIP3    H279893   3.060   5.650  11.796 -0.9108 -2.0970 -1.1820
19468TIP3   OH279894   1.994   1.239  11.275  0.1368  0.0779 -0.1793
19468TIP3    H179895   1.988   1.324  11.318 -0.3306  0.0645 -0.2082
19468TIP3    H279896   2.077   1.240  11.229 -0.3145  0.9055 -0.9929
19469TIP3   OH279897   3.396   0.273  12.431 -0.0061 -0.1706  0.3717
19469TIP3    H179898   3.438   0.262  12.345 -1.0537 -1.4219 -0.0151
19469TIP3    H279899   3.303   0.279  12.411 -0.1796  0.5123  1.3601
19470TIP3   OH279900   6.123   0.021  12.702 -0.6032  0.0623 -0.4164
19470TIP3    H179901   6.150  -0.054  12.649 -1.1331  0.1634 -0.8325
19470TIP3    H279902   6.163   0.097  12.658 -2.4933  0.3536 -1.7379
19471TIP3   OH279903   0.649   6.353   3.077 -0.3876  0.1627  0.2790
19471TIP3    H179904   0.680   6.386   3.162 -0.2117  1.2269 -0.1764
19471TIP3    H279905   0.706   6.279   3.058 -1.8951 -1.6086  2.1560
19472TIP3   OH279906   2.108   6.191   0.349 -0.1883  0.2746  0.0926
19472TIP3    H179907   2.014   6.193   0.369  0.1253  2.0982  1.7453
19472TIP3    H279908   2.121   6.265   0.289  0.3430  0.8379  0.8737
19473TIP3   OH279909   1.503   3.526  12.901  0.0603  0.3418  0.1253
19473TIP3    H179910   1.470   3.565  12.820 -2.2903  0.9961  1.3043
19473TIP3    H279911   1.474   3.435  12.898  1.1797 -0.0177 -0.3532
19474TIP3   OH279912   2.259   2.670   1.119 -0.1545 -0.3421  1.0907
19474TIP3    H179913   2.311   2.710   1.189 -0.8709  0.3425  1.2402
19474TIP3    H279914   2.227   2.744   1.067  1.6711 -0.8596 -0.9592
19475TIP3   OH279915   4.695   5.598  16.074 -0.2790 -0.1052  0.0770
19475TIP3    H179916   4.716   5.535  16.004  0.1289  0.1065  0.0043
19475TIP3    H279917   4.601   5.590  16.086 -0.0272 -1.9920  1.2690
19476TIP3   OH279918   4.361   4.343  10.610 -0.2637 -0.1057  0.5484
19476TIP3    H179919   4.348   4.260  10.564 -2.3958  0.7328 -0.4822
19476TIP3    H279920   4.297   4.403  10.572  0.5153  1.7509  1.9659
19477TIP3   OH279921   3.854   2.646   2.865 -0.3258 -0.2193  0.0869
19477TIP3    H179922   3.770   2.685   2.886  0.3367  1.3670 -0.0782
19477TIP3    H279923   3.860   2.649   2.770 -0.7737 -1.8936 -0.0287
19478TIP3   OH279924   0.788   6.037  15.164  0.0817 -0.2114 -0.4727
19478TIP3    H179925   0.858   6.100  15.183 -0.5937  0.6608 -0.7840
19478TIP3    H279926   0.710   6.092  15.153 -0.2906 -0.9944 -1.9566
19479TIP3   OH279927   5.628   2.120   5.141  0.1849 -0.4860 -0.1284
19479TIP3    H179928   5.667   2.143   5.225  1.1669  0.5823 -0.8334
19479TIP3    H279929   5.556   2.183   5.130  0.6312 -0.0235 -0.4729
19480TIP3   OH279930   1.357   2.280  15.416 -0.4179 -0.3072 -0.5305
19480TIP3    H179931   1.432   2.224  15.434  0.8826  1.0580 -1.3786
19480TIP3    H279932   1.331   2.313  15.501 -1.1115 -2.0321 -0.0400
19481TIP3   OH279933   5.272   5.218  13.981  0.4292 -0.4855 -0.3448
19481TIP3    H179934   5.222   5.299  13.966  0.0225 -0.3855  1.3519
19481TIP3    H279935   5.343   5.245  14.039  2.0070 -0.8060 -2.0450
19482TIP3   OH279936   4.619   2.729  16.772 -0.1578 -0.5900 -0.1895
19482TIP3    H179937   4.551   2.661  16.770 -0.3223 -0.4064 -0.7850
19482TIP3    H279938   4.624   2.761  16.683 -0.0904  0.1962  0.0896
19483TIP3   OH279939   1.606   6.641   6.556  0.4191 -0.1924 -0.3329
19483TIP3    H179940   1.585   6.721   6.605  1.2047  0.4443 -0.9963
19483TIP3    H279941   1.629   6.673   6.468  0.7443 -1.1539 -0.6050
19484TIP3   OH279942   6.310   6.373  17.049 -0.4155 -0.3279 -0.2052
19484TIP3    H179943   6.276   6.294  17.007 -0.9469  1.1637 -2.7600
19484TIP3    H279944   6.236   6.435  17.048  0.7008  1.0530 -0.6028
19485TIP3   OH279945   4.600   4.845   4.857 -0.2597 -0.0923  0.1223
19485TIP3    H179946   4.566   4.803   4.777  1.7114  1.3641 -1.5616
19485TIP3    H279947   4.695   4.843   4.847 -0.0129  1.5362  1.7058
19486TIP3   OH279948   4.543   4.020  15.280  0.4257 -0.3630  0.3022
19486TIP3    H179949   4.471   4.074  15.313  2.2183  0.6410  2.9424
19486TIP3    H279950   4.561   4.055  15.193 -3.2340 -1.7773 -1.2723
19487TIP3   OH279951   2.239   4.282   1.319  0.0282 -0.4318 -0.3871
19487TIP3    H179952   2.197   4.367   1.320 -2.8837 -1.7228 -1.3331
19487TIP3    H279953   2.228   4.248   1.408  0.5193 -0.1338 -0.2103
19488TIP3   OH279954   0.168   1.636   4.005 -0.3927  0.0357 -0.0371
19488TIP3    H179955   0.111   1.708   3.976 -1.1902  0.1641  1.6931
19488TIP3    H279956   0.157   1.635   4.100  2.1732 -0.2576  0.3082
19489TIP3   OH279957   3.979   2.983   0.870  0.1456 -0.1973 -0.0050
19489TIP3    H179958   3.983   2.891   0.842  1.6133 -0.9952  2.4806
19489TIP3    H279959   4.051   3.025   0.824 -0.9062 -0.0800 -1.6302
19490TIP3   OH279960   3.965   3.580  16.374  0.9567 -0.0852 -0.3753
19490TIP3    H179961   3.952   3.615  16.462 -0.3363  0.0754 -0.6102
19490TIP3    H279962   3.879   3.586  16.332  1.4204 -0.6626 -1.4715
19491TIP3   OH279963   1.982   3.471   4.409  0.5941  0.2324  0.4847
19491TIP3    H179964   2.029   3.432   4.335 -0.5613 -0.3667  0.0471
19491TIP3    H279965   2.032   3.442   4.486  1.1560 -0.0777  0.0145
19492TIP3   OH279966   4.803   0.473  13.104 -0.0118  0.3386 -0.6665
19492TIP3    H179967   4.721   0.447  13.145  1.1847  0.6560  2.1663
19492TIP3    H279968   4.793   0.567  13.087 -0.7561  0.0764 -1.7841
19493TIP3   OH279969   4.356   4.798  11.068 -0.3642  0.3473 -0.0735
19493TIP3    H179970   4.394   4.770  11.152  1.0327 -0.0018 -0.7827
19493TIP3    H279971   4.269   4.758  11.066  0.6306 -1.9893  0.0263
19494TIP3   OH279972   6.318   3.415   4.237 -0.3173  0.7835  0.0082
19494TIP3    H179973   6.292   3.323   4.238 -2.3531  1.2446 -2.0743
19494TIP3    H279974   6.315   3.441   4.329 -0.9775 -0.8901  0.5116
19495TIP3   OH279975   5.312   6.419  14.257  0.1735 -0.3929 -0.2311
19495TIP3    H179976   5.269   6.405  14.341  2.7654 -1.0453  1.1242
19495TIP3    H279977   5.254   6.380  14.192 -2.2690  0.8009  1.1343
19496TIP3   OH279978   4.430   1.238  15.171  0.4911  0.4464  0.4300
19496TIP3    H179979   4.375   1.164  15.196  0.2865 -0.1661 -1.6375
19496TIP3    H279980   4.370   1.299  15.128  0.6367  1.9232  2.1917
19497TIP3   OH279981   4.374   1.142  16.506  0.4701 -0.0540 -0.1934
19497TIP3    H179982   4.414   1.094  16.433  2.0527 -0.4910  0.9183
19497TIP3    H279983   4.399   1.233  16.491 -1.1437  0.2301 -1.4036
19498TIP3   OH279984   4.716   6.374  13.838  0.2174 -0.7680  0.2614
19498TIP3    H179985   4.695   6.460  13.873  0.2800 -0.4432 -0.4867
19498TIP3    H279986   4.648   6.317  13.873  0.8292 -0.6554  1.6975
19499TIP3   OH279987   5.877   1.744  15.342  0.0206  0.1716  0.3933
19499TIP3    H179988   5.797   1.703  15.375 -0.2469  0.1593 -0.2450
19499TIP3    H279989   5.881   1.828  15.388 -0.4628  0.2545  0.2948
19500TIP3   OH279990   5.424   1.433  16.285  0.0096 -0.0132 -0.8199
19500TIP3    H179991   5.340   1.390  16.300 -0.1992  0.4142 -0.7669
19500TIP3    H279992   5.468   1.429  16.369 -0.3029  0.5114 -0.6275
19501TIP3   OH279993   2.495   0.959   0.012 -0.4049  0.6298  0.2845
19501TIP3    H179994   2.506   1.045  -0.028 -0.2166  0.6115  0.2966
19501TIP3    H279995   2.462   0.978   0.100 -2.2347  0.6204 -0.3546
19502TIP3   OH279996   4.780   0.962  15.337 -0.2124  0.5653 -0.1881
19502TIP3    H179997   4.739   1.046  15.357  1.5919  1.3787  0.3475
19502TIP3    H279998   4.770   0.910  15.416 -1.3266  0.2659 -0.5182
19503TIP3   OH279999   6.096   0.235  15.275  0.1217  0.2284 -0.2644
19503TIP3    H180000   6.028   0.182  15.316  0.9207 -0.4063  0.2726
19503TIP3    H280001   6.108   0.197  15.188 -1.4480  1.4611 -1.0718
19504TIP3   OH280002   0.706   0.065  15.484 -0.4015 -0.2899  0.1554
19504TIP3    H180003   0.695  -0.011  15.428  0.7187 -0.9496  0.8080
19504TIP3    H280004   0.617   0.090  15.508 -0.9646  0.4274 -2.4201
19505TIP3   OH280005   5.656   1.550   0.143  0.5755  0.1797 -0.3671
19505TIP3    H180006   5.668   1.456   0.154  0.8440  0.4020  1.5156
19505TIP3    H280007   5.735   1.579   0.097  1.0664 -0.3304  0.1447
19506TIP3   OH280008   4.417   1.908  10.859 -0.3489  0.3626 -0.0424
19506TIP3    H180009   4.331   1.932  10.895  0.0728  0.0121  1.2819
19506TIP3    H280010   4.404   1.905  10.765 -1.2061  2.5762 -0.0468
19507TIP3   OH280011   4.613   3.012  15.628 -0.1814  0.8983  0.0104
19507TIP3    H180012   4.644   3.005  15.537  2.4655 -1.4747  0.9613
19507TIP3    H280013   4.577   2.926  15.648 -0.7175  1.3848  1.2380
19508TIP3   OH280014   6.247   3.610  14.934 -0.0704 -0.3364  0.1067
19508TIP3    H180015   6.154   3.623  14.917  0.0078 -0.5743 -0.5546
19508TIP3    H280016   6.253   3.596  15.028 -0.8129 -1.1470  0.0483
19509TIP3   OH280017   3.014   2.148  11.990 -0.2298  0.2310 -0.2319
19509TIP3    H180018   3.031   2.205  12.065 -0.5555 -0.3100  0.2586
19509TIP3    H280019   3.101   2.121  11.961 -0.0055  1.8423 -1.1648
19510TIP3   OH280020   0.607   2.338   0.028 -0.8381  0.1153 -0.8604
19510TIP3    H180021   0.531   2.280   0.020 -2.4035  2.2393 -2.3007
19510TIP3    H280022   0.643   2.344  -0.061  0.8003 -0.4997 -0.2838
19511TIP3   OH280023   1.619   5.938  12.553  0.5585 -0.0274  0.1136
19511TIP3    H180024   1.625   6.011  12.491  0.0897 -0.2765 -0.2281
19511TIP3    H280025   1.710   5.922  12.580  0.8303 -0.2229 -0.8673
19512TIP3   OH280026   5.846   2.588  14.214  0.2705  0.3695  0.1853
19512TIP3    H180027   5.879   2.531  14.144 -0.1965  1.2311 -0.7673
19512TIP3    H280028   5.885   2.674  14.194  1.6567  0.2354  2.0754
19513TIP3   OH280029   1.126   4.747  12.702  0.3079  0.0938 -0.2427
19513TIP3    H180030   1.175   4.800  12.765  0.3898  1.3776 -1.3445
19513TIP3    H280031   1.062   4.699  12.755  2.0258 -0.8107  1.1016
19514TIP3   OH280032   6.079   0.860   1.873 -0.3452 -0.5292 -0.5855
19514TIP3    H180033   6.038   0.824   1.794  0.4361  1.7545 -2.1329
19514TIP3    H280034   6.060   0.954   1.869  2.5220  0.1625  0.1750
19515TIP3   OH280035   4.138   5.001   2.263  0.4546  0.3721 -0.9057
19515TIP3    H180036   4.087   4.942   2.318  1.5023  0.3597  0.0947
19515TIP3    H280037   4.174   4.946   2.194 -0.1081  0.2104 -1.0728
19516TIP3   OH280038   0.646   2.459   5.967  0.4979  0.6018 -0.0313
19516TIP3    H180039   0.722   2.406   5.993 -1.0937 -1.5177  0.5709
19516TIP3    H280040   0.672   2.499   5.884  1.8497 -1.0450 -0.4635
19517TIP3   OH280041   4.068   6.786  14.392  0.0835 -0.3837  0.1615
19517TIP3    H180042   4.127   6.752  14.325  0.2617 -0.3603  0.3045
19517TIP3    H280043   4.126   6.823  14.458 -0.1001  0.0072  0.1098
19518TIP3   OH280044   3.564   4.638   4.565  0.2547 -0.7414 -0.1086
19518TIP3    H180045   3.643   4.656   4.514  0.1666 -0.8730 -0.2896
19518TIP3    H280046   3.576   4.688   4.646  1.4012 -2.2527  0.7086
19519TIP3   OH280047   1.269   0.607   3.577  0.2001 -0.4772 -0.3241
19519TIP3    H180048   1.189   0.606   3.525 -0.5321  1.0807  0.6973
19519TIP3    H280049   1.335   0.645   3.520 -0.5119  0.9157 -0.2571
19520TIP3   OH280050   2.949   0.177   3.644  0.6810 -0.6549  0.0339
19520TIP3    H180051   2.902   0.110   3.594 -1.0278 -1.1670  2.1946
19520TIP3    H280052   2.992   0.231   3.577 -1.8664 -0.9833 -2.0184
19521TIP3   OH280053   0.652   5.574   1.315  0.4705 -0.0402 -1.2122
19521TIP3    H180054   0.642   5.655   1.365  0.1101  0.5591 -2.2337
19521TIP3    H280055   0.600   5.509   1.363  0.8057  0.2982 -0.3586
19522TIP3   OH280056   0.172   1.064  15.365  0.1635  0.5537 -0.2767
19522TIP3    H180057   0.188   1.000  15.434  2.0973  3.3375  2.1492
19522TIP3    H280058   0.084   1.096  15.382 -0.0693 -0.0678 -0.2881
19523TIP3   OH280059   3.775   2.581   0.537 -0.1256 -0.0874  0.3084
19523TIP3    H180060   3.805   2.577   0.628 -0.3738 -0.6324  0.3749
19523TIP3    H280061   3.693   2.530   0.537  0.2467 -0.7130 -0.3632
19524TIP3   OH280062   5.285   5.976   2.738  0.4014  0.6789  0.2015
19524TIP3    H180063   5.351   6.024   2.688  0.7397 -1.3291 -1.4271
19524TIP3    H280064   5.323   5.889   2.750 -0.2932  0.6686  2.8136
19525TIP3   OH280065   1.297   4.207  12.468 -0.2579 -0.7690  0.2206
19525TIP3    H180066   1.302   4.151  12.545  0.2214 -0.5036  0.3857
19525TIP3    H280067   1.381   4.195  12.424 -0.7156 -1.2937 -0.5279
19526TIP3   OH280068   3.050   0.992   1.339  0.4974  0.7334 -0.5104
19526TIP3    H180069   3.023   0.901   1.349 -0.4901  1.0663  0.0341
19526TIP3    H280070   3.095   0.996   1.255 -2.8408  0.4923 -2.4879
19527TIP3   OH280071   4.017   5.916  15.086  0.9124  0.1486 -0.5472
19527TIP3    H180072   4.062   5.846  15.039  2.2086 -0.7034  1.8069
19527TIP3    H280073   4.065   5.995  15.061  1.4109 -0.2413 -0.8528
19528TIP3   OH280074   0.620   5.326   0.629  0.4203 -0.2406 -0.3251
19528TIP3    H180075   0.680   5.288   0.565 -1.0066  0.0211 -1.8768
19528TIP3    H280076   0.600   5.413   0.595 -0.9393 -0.3764  0.0800
19529TIP3   OH280077   2.015   2.625   5.468  0.6793  0.5295 -0.9874
19529TIP3    H180078   1.937   2.667   5.432  0.0781 -0.5739 -1.0162
19529TIP3    H280079   2.005   2.634   5.563  0.9306  1.1085 -1.0149
19530TIP3   OH280080   6.415   1.329  14.012 -0.2151  0.6096  0.0099
19530TIP3    H180081   6.334   1.298  14.053 -0.2116  1.2364  0.5182
19530TIP3    H280082   6.485   1.289  14.063 -0.1933 -0.1479 -0.5972
19531TIP3   OH280083   3.703   2.843  14.524  0.2539 -0.2622 -0.4771
19531TIP3    H180084   3.663   2.760  14.498  1.2135 -1.2465  0.9937
19531TIP3    H280085   3.796   2.823  14.534  1.2632  1.9266 -3.7282
19532TIP3   OH280086   4.716   3.195   6.312 -0.0621  0.2853 -0.4739
19532TIP3    H180087   4.672   3.222   6.393 -0.0631  1.6098 -0.8859
19532TIP3    H280088   4.809   3.207   6.331 -0.0583  0.5236 -0.6371
19533TIP3   OH280089   2.631   4.587   0.750  0.1853  0.2020 -0.4101
19533TIP3    H180090   2.581   4.507   0.735  1.1611 -0.2252 -1.6281
19533TIP3    H280091   2.619   4.638   0.670  0.4591  0.7731 -0.0927
19534TIP3   OH280092   1.769   6.500   1.746  0.0482 -0.1118 -0.4067
19534TIP3    H180093   1.751   6.406   1.741 -2.1781  0.1626  1.0829
19534TIP3    H280094   1.863   6.506   1.764  0.4135 -1.9850 -1.3884
19535TIP3   OH280095   1.392   6.459  11.540 -0.3084  0.0532  0.1816
19535TIP3    H180096   1.332   6.487  11.471  2.5396  1.1808 -2.0425
19535TIP3    H280097   1.479   6.478  11.505  1.3842 -1.2000  3.3284
19536TIP3   OH280098   5.891   5.455  15.209  0.0932  0.0238 -0.1670
19536TIP3    H180099   5.848   5.380  15.168 -1.4244  0.5045  0.4806
19536TIP3    H280100   5.820   5.515  15.230  1.2966  1.7939 -0.9166
19537TIP3   OH280101   6.355   6.473   6.086 -0.1839  0.3124 -0.2857
19537TIP3    H180102   6.322   6.467   6.175  0.3797 -0.7611 -0.1359
19537TIP3    H280103   6.426   6.409   6.082 -0.3000  0.2355 -1.5426
19538TIP3   OH280104   1.645   4.636   4.611  0.1016 -0.1446  0.0305
19538TIP3    H180105   1.737   4.662   4.611 -0.2536  1.2326  0.8950
19538TIP3    H280106   1.629   4.602   4.523  1.9190 -2.3252  0.4576
19539TIP3   OH280107   5.690   2.715   2.645  0.1727 -0.6435 -0.3983
19539TIP3    H180108   5.594   2.711   2.643  0.1457 -0.8626  0.9218
19539TIP3    H280109   5.717   2.649   2.581 -0.5526 -1.3200 -0.0328
19540TIP3   OH280110   1.667   1.089  10.873  0.7818  0.4986  0.5696
19540TIP3    H180111   1.721   1.064  10.798  1.9181  1.3666  1.0726
19540TIP3    H280112   1.597   1.141  10.836 -1.9216 -3.4837 -0.5934
19541TIP3   OH280113   4.312   5.328   2.907  0.7038 -0.2570  0.1372
19541TIP3    H180114   4.401   5.340   2.940  0.3443 -3.1188  2.5475
19541TIP3    H280115   4.310   5.238   2.876 -0.7183  0.5474 -2.3660
19542TIP3   OH280116   6.705   3.652   3.543 -0.4602  0.2260  0.0914
19542TIP3    H180117   6.786   3.646   3.493 -0.8908  1.4591 -0.7904
19542TIP3    H280118   6.676   3.561   3.553  1.0390 -0.2383  0.4745
19543TIP3   OH280119   0.465   1.476   3.384  0.8293 -0.1094 -0.2134
19543TIP3    H180120   0.441   1.448   3.295 -0.4253 -0.9092  0.3502
19543TIP3    H280121   0.381   1.485   3.430  1.4579 -3.5857  2.0234
19544TIP3   OH280122   3.550   4.889  14.024 -0.4752  0.2426  0.3570
19544TIP3    H180123   3.562   4.942  14.103  0.9704 -0.6805  0.7852
19544TIP3    H280124   3.501   4.813  14.054  1.7138 -1.0483  0.8172
19545TIP3   OH280125   3.140   5.604  15.678  0.2199  0.1726 -0.3388
19545TIP3    H180126   3.057   5.616  15.724 -0.0041  0.3045 -0.7751
19545TIP3    H280127   3.115   5.572  15.591  0.6790 -0.9402 -0.0854
19546TIP3   OH280128   4.813   5.940   5.669 -0.2888  0.2299  0.4914
19546TIP3    H180129   4.862   5.992   5.605  1.2109 -1.5561  0.0852
19546TIP3    H280130   4.742   5.900   5.617 -1.0637  1.3422  0.6734
19547TIP3   OH280131   0.969   3.034  15.670 -0.2733 -0.2316 -0.0581
19547TIP3    H180132   0.883   3.066  15.697 -0.0993  0.3833 -0.2302
19547TIP3    H280133   0.987   3.079  15.588 -0.1213 -0.9411 -0.4255
19548TIP3   OH280134   0.205   4.224   4.859 -0.0591 -0.2881 -0.3746
19548TIP3    H180135   0.249   4.252   4.940 -0.8541 -0.7482  0.2298
19548TIP3    H280136   0.260   4.153   4.825 -0.0392 -0.4873  0.0713
19549TIP3   OH280137   3.145   4.206   2.380 -0.2913 -0.5768 -0.0972
19549TIP3    H180138   3.151   4.248   2.294  1.4089  3.3350  1.6818
19549TIP3    H280139   3.056   4.224   2.409  0.3077  1.7152  0.4856
19550TIP3   OH280140   3.154   3.594   6.743 -1.0485 -0.5481 -0.8548
19550TIP3    H180141   3.236   3.552   6.768  0.0017  1.0047 -1.5451
19550TIP3    H280142   3.103   3.599   6.824 -0.2513 -1.0234 -0.3111
19551TIP3   OH280143   3.375   3.339  14.357  0.3873 -0.2611  0.2104
19551TIP3    H180144   3.401   3.407  14.296 -1.7823  1.1151  0.6878
19551TIP3    H280145   3.326   3.276  14.304  0.0666 -0.0097  0.2005
19552TIP3   OH280146   0.267   3.409   0.757  0.4406 -0.4092  0.0911
19552TIP3    H180147   0.280   3.503   0.746  0.0660 -0.3171  0.4016
19552TIP3    H280148   0.340   3.369   0.710  0.5852  0.0350 -0.0690
19553TIP3   OH280149   1.903   1.136   0.996  0.6830  0.2972  0.3896
19553TIP3    H180150   1.861   1.127   0.910 -0.2245  2.3969  0.5577
19553TIP3    H280151   1.878   1.056   1.042 -1.1640  0.3659 -0.3742
19554TIP3   OH280152   1.383   1.551   4.962 -0.3379  0.1760 -0.1194
19554TIP3    H180153   1.365   1.557   4.868  0.0353  0.5052 -0.1680
19554TIP3    H280154   1.403   1.458   4.976 -0.8416  0.0348 -0.2807
19555TIP3   OH280155   3.586   2.296  14.252  0.6929  0.6733 -0.7344
19555TIP3    H180156   3.670   2.264  14.286 -0.1000 -0.0429  0.6672
19555TIP3    H280157   3.574   2.249  14.170  1.3396  0.2406 -0.5928
19556TIP3   OH280158   6.186   1.834  16.016  0.0750 -0.1610 -0.1581
19556TIP3    H180159   6.143   1.872  16.092  0.3124  0.2031 -0.2053
19556TIP3    H280160   6.186   1.904  15.951 -0.2206 -0.5036 -0.5329
19557TIP3   OH280161   5.594   3.528  14.019 -0.3816 -0.7036  0.8617
19557TIP3    H180162   5.515   3.507  13.970  0.8936 -0.8666 -1.2214
19557TIP3    H280163   5.607   3.621  14.006  0.7328 -1.0071 -0.3451
19558TIP3   OH280164   1.318   5.950   1.641 -0.3077 -0.4554  0.4216
19558TIP3    H180165   1.240   5.898   1.658 -1.9426  0.9988 -2.0342
19558TIP3    H280166   1.368   5.899   1.577  0.2030 -0.8586  1.1299
19559TIP3   OH280167   4.352   2.102  12.492 -0.2589  0.2476 -0.1855
19559TIP3    H180168   4.447   2.099  12.476 -0.5260 -0.6053 -1.8207
19559TIP3    H280169   4.337   2.032  12.555  0.1715  0.1457 -0.1883
19560TIP3   OH280170   4.054   4.893  14.678  0.1297 -0.1575 -0.3332
19560TIP3    H180171   3.977   4.928  14.634  0.0583  2.5776  1.6574
19560TIP3    H280172   4.028   4.885  14.770  2.0746  0.6685  0.3727
19561TIP3   OH280173   3.613   6.398  12.145 -0.2391 -0.0725 -0.2460
19561TIP3    H180174   3.566   6.394  12.228  1.4950 -0.9098  0.7239
19561TIP3    H280175   3.629   6.307  12.122 -0.2578  0.1647 -1.2751
19562TIP3   OH280176   4.657   0.568  14.618 -0.1904 -0.2952 -0.0829
19562TIP3    H180177   4.614   0.513  14.553  0.6623 -0.8497 -0.1829
19562TIP3    H280178   4.656   0.656  14.579 -0.4659 -0.4596 -0.4545
19563TIP3   OH280179   0.437   6.359  11.256 -0.2249 -0.0478 -0.7601
19563TIP3    H180180   0.373   6.429  11.240 -0.7821  0.1116  1.7764
19563TIP3    H280181   0.408   6.287  11.201 -2.0858  0.3280 -0.3335
19564TIP3   OH280182   2.244   3.108  13.430 -0.0863 -0.0144  0.2167
19564TIP3    H180183   2.292   3.171  13.484  2.3204 -1.0169 -0.6224
19564TIP3    H280184   2.207   3.046  13.492 -1.0512  1.2548  0.9449
19565TIP3   OH280185   4.159   4.663  11.358  1.1852  0.3655  0.6150
19565TIP3    H180186   4.138   4.655  11.265  0.5556  0.8768  0.7060
19565TIP3    H280187   4.089   4.717  11.394  0.8688 -0.6744  1.5970
19566TIP3   OH280188   3.695   2.598  13.467 -0.6076  0.1904 -0.3801
19566TIP3    H180189   3.767   2.588  13.405  2.3159  2.6589  2.2642
19566TIP3    H280190   3.715   2.536  13.537 -0.6939  1.2959  0.6586
19567TIP3   OH280191   3.819   1.643   0.231  0.2798 -0.1384  0.3391
19567TIP3    H180192   3.886   1.679   0.173  0.5272 -0.5682  0.3595
19567TIP3    H280193   3.864   1.630   0.314  0.0490  0.0137  0.4889
19568TIP3   OH280194   0.303   5.538   4.192  0.4841  0.1631  0.3867
19568TIP3    H180195   0.293   5.563   4.283 -1.2240  2.7321 -0.4022
19568TIP3    H280196   0.214   5.526   4.160  0.8985  1.4869 -1.4336
19569TIP3   OH280197   3.481   1.791  12.286 -0.2449  0.7176 -0.2272
19569TIP3    H180198   3.513   1.879  12.309 -0.0055  0.1379  1.8708
19569TIP3    H280199   3.436   1.761  12.365 -1.2120 -0.6801 -1.2578
19570TIP3   OH280200   3.929   3.073  12.323 -0.1910  0.1393 -0.3186
19570TIP3    H180201   3.887   3.121  12.252  0.5333  0.8995 -0.2591
19570TIP3    H280202   3.878   3.095  12.401  1.0172  2.1251 -0.0085
19571TIP3   OH280203   5.643   3.013  15.934 -0.2412  0.0663 -0.0154
19571TIP3    H180204   5.737   3.024  15.945 -0.3414 -1.2299  3.5600
19571TIP3    H280205   5.634   2.947  15.866  1.5171 -0.6433  0.3854
19572TIP3   OH280206   3.128   6.803   3.182  0.5572  0.2416 -0.2310
19572TIP3    H180207   3.076   6.754   3.117  1.4880  0.0222 -0.8246
19572TIP3    H280208   3.183   6.737   3.223  0.2907  0.4553  0.4757
19573TIP3   OH280209   0.142   6.510   2.953 -0.0277 -0.4030 -0.2848
19573TIP3    H180210   0.121   6.579   3.016 -0.1647  0.9557 -1.7637
19573TIP3    H280211   0.238   6.503   2.958  0.5083  2.7553 -2.8535
19574TIP3   OH280212   0.502   0.073   3.152 -0.1980  0.1432  0.2018
19574TIP3    H180213   0.515   0.099   3.061  1.7690  1.6508  0.8466
19574TIP3    H280214   0.532  -0.018   3.156  2.1908  0.8551 -0.1964
19575TIP3   OH280215   5.376   1.693   4.827  0.3325  0.0378  0.0494
19575TIP3    H180216   5.306   1.708   4.890  1.1219  0.0219  0.9516
19575TIP3    H280217   5.427   1.774   4.828  1.9082 -0.8955  1.4838
19576TIP3   OH280218   5.971   5.579  10.629  0.4801  0.6670 -0.1302
19576TIP3    H180219   5.967   5.619  10.716 -0.1707  1.6414 -0.5950
19576TIP3    H280220   5.898   5.517  10.627  1.4009 -0.4867  0.5372
19577TIP3   OH280221   2.745   5.949   0.699  0.4076 -0.5614  0.1976
19577TIP3    H180222   2.701   5.877   0.743  0.6926 -0.9710 -0.1677
19577TIP3    H280223   2.806   5.984   0.764 -0.2436 -0.1739  0.6113
19578TIP3   OH280224   1.651   3.651   4.058  0.1611 -0.4043  0.0045
19578TIP3    H180225   1.592   3.577   4.057 -1.5457  0.7909  2.2596
19578TIP3    H280226   1.698   3.644   4.142  1.7173 -0.1804 -0.8014
19579TIP3   OH280227   2.060   4.144   5.270  0.0678 -0.2248  1.0706
19579TIP3    H180228   2.147   4.130   5.309  1.0652  1.7158 -0.2978
19579TIP3    H280229   2.023   4.217   5.321 -0.9497 -1.2475  1.8562
19580TIP3   OH280230   0.497   3.180   3.695 -0.5724  0.0894 -0.2009
19580TIP3    H180231   0.589   3.202   3.712 -0.8454  1.4335 -0.3308
19580TIP3    H280232   0.461   3.160   3.781 -0.3465  0.3286 -0.0486
19581TIP3   OH280233   3.152   6.418   1.231 -0.0331  0.0066  0.2456
19581TIP3    H180234   3.075   6.368   1.205 -0.6137  0.9896  0.0145
19581TIP3    H280235   3.218   6.352   1.250 -0.9031 -0.8602  0.3671
19582TIP3   OH280236   3.553   6.588   0.495 -0.2846  0.0790  0.5502
19582TIP3    H180237   3.486   6.651   0.471 -0.2900 -0.1401 -0.0185
19582TIP3    H280238   3.528   6.558   0.583 -0.0907  1.1109  0.9766
19583TIP3   OH280239   2.020   3.251   1.048 -0.3340 -0.1354  0.1274
19583TIP3    H180240   2.019   3.222   1.139  1.0204  1.5983  0.7525
19583TIP3    H280241   1.935   3.294   1.036 -0.9857 -1.3561  0.1914
19584TIP3   OH280242   2.956   5.926  14.322  0.0435  0.4379  0.2623
19584TIP3    H180243   2.886   5.960  14.266  1.3137  2.5380 -0.1592
19584TIP3    H280244   3.012   5.877  14.262 -0.1238  0.2599  0.2519
19585TIP3   OH280245   3.056   4.721  15.397  0.1015  0.2539 -0.0450
19585TIP3    H180246   3.024   4.758  15.480  1.2010 -0.0833  0.5463
19585TIP3    H280247   3.077   4.630  15.418 -0.3884 -0.0726 -0.9181
19586TIP3   OH280248   1.183   5.117   4.569 -0.1936 -0.3294  0.2744
19586TIP3    H180249   1.119   5.098   4.501  1.4043  0.7437 -1.6390
19586TIP3    H280250   1.218   5.031   4.593 -1.5383 -0.8167  0.5544
19587TIP3   OH280251   5.178   1.600  16.652  0.0141  0.2993 -0.5493
19587TIP3    H180252   5.138   1.604  16.739  0.1172  1.2094 -0.5350
19587TIP3    H280253   5.105   1.580  16.593 -0.3806  1.4241 -0.4595
19588TIP3   OH280254   0.706   6.352   5.701 -0.1556  0.7333 -0.5800
19588TIP3    H180255   0.624   6.303   5.706  0.3174 -0.1611 -1.1643
19588TIP3    H280256   0.702   6.415   5.773 -0.7050 -0.2932  0.3048
19589TIP3   OH280257   6.072   0.739   1.269  0.6478  0.2291 -0.2605
19589TIP3    H180258   6.030   0.816   1.309 -0.0892 -0.1688 -0.2390
19589TIP3    H280259   6.098   0.685   1.344  0.3610  0.0472 -0.2905
19590TIP3   OH280260   4.272   0.636  16.426 -0.0023 -0.8336  0.2876
19590TIP3    H180261   4.365   0.614  16.415  0.6452 -0.0003  3.1743
19590TIP3    H280262   4.227   0.552  16.417  1.0060 -1.2792 -1.0188
19591TIP3   OH280263   6.659   4.331   1.427 -0.1208  0.3979 -0.2256
19591TIP3    H180264   6.698   4.255   1.384  1.6934  0.7715  0.6459
19591TIP3    H280265   6.582   4.352   1.374 -1.5162 -2.8466  0.2646
19592TIP3   OH280266   0.998   2.840   3.102 -0.2999 -0.2088 -0.2684
19592TIP3    H180267   0.975   2.926   3.065 -1.5210 -0.2772  0.2769
19592TIP3    H280268   0.937   2.829   3.175 -0.4720 -1.7482 -0.6166
19593TIP3   OH280269   0.825   3.394  12.837  0.4211  0.4291 -0.7475
19593TIP3    H180270   0.911   3.364  12.868  0.1707 -0.4080 -0.8217
19593TIP3    H280271   0.836   3.487  12.822  1.4266  0.2700 -1.0873
19594TIP3   OH280272   5.267   3.481  12.522  0.2650  0.4088  0.3243
19594TIP3    H180273   5.187   3.496  12.473  0.4241 -1.3287 -0.5336
19594TIP3    H280274   5.279   3.561  12.574 -2.7417  0.2065  1.5290
19595TIP3   OH280275   0.373   3.871  12.971 -0.0104 -0.6982  0.2856
19595TIP3    H180276   0.429   3.934  12.926 -2.4866  1.5125  0.1163
19595TIP3    H280277   0.348   3.808  12.904  0.2223 -0.2344 -0.2424
19596TIP3   OH280278   3.868   4.830  14.205  0.1538 -0.1440  0.2253
19596TIP3    H180279   3.908   4.756  14.252 -1.3577 -1.2931 -0.1990
19596TIP3    H280280   3.922   4.841  14.127  1.8502  0.8562  1.4988
19597TIP3   OH280281   5.146   2.818   5.289  0.6321 -0.1455  0.4183
19597TIP3    H180282   5.089   2.750   5.326 -0.5486  0.6504  0.1187
19597TIP3    H280283   5.167   2.874   5.364  1.2142 -0.5609  0.5716
19598TIP3   OH280284   2.962   1.521  11.841  0.6240 -0.2134 -0.0972
19598TIP3    H180285   2.994   1.588  11.901 -0.1260  2.0130 -2.0188
19598TIP3    H280286   2.867   1.532  11.840  0.6203 -0.1247 -1.7174
19599TIP3   OH280287   2.815   2.197   4.111  0.0151  0.0224  0.2331
19599TIP3    H180288   2.871   2.126   4.141  1.4345  1.2977  0.6965
19599TIP3    H280289   2.727   2.172   4.140  0.0873 -2.5209 -1.4385
19600TIP3   OH280290   1.603   4.754  16.211  0.1003  0.2856  0.2754
19600TIP3    H180291   1.682   4.719  16.253  0.9737  1.0982 -0.6424
19600TIP3    H280292   1.564   4.809  16.279 -0.1606 -0.7798  1.0234
19601TIP3   OH280293   5.463   5.788  12.068 -0.6272 -0.5623 -0.4052
19601TIP3    H180294   5.436   5.703  12.103  0.4396 -0.9287 -0.4257
19601TIP3    H280295   5.383   5.827  12.034 -1.4441 -0.8158  1.1399
19602TIP3   OH280296   0.502   3.453   6.794  0.1180  0.2805  0.5611
19602TIP3    H180297   0.438   3.399   6.840  1.4826 -0.6301  1.4727
19602TIP3    H280298   0.566   3.391   6.760  0.7999  1.1974  0.1120
19603TIP3   OH280299   5.144   3.901  11.586 -0.3808  0.4263  0.0245
19603TIP3    H180300   5.132   3.809  11.563 -0.5870  0.4786 -0.0853
19603TIP3    H280301   5.077   3.917  11.653  1.3121 -0.1864  1.9790
19604TIP3   OH280302   5.990   4.770  10.611  0.0355  0.7286  0.0547
19604TIP3    H180303   6.013   4.842  10.670  0.9396 -0.1246  0.7744
19604TIP3    H280304   5.960   4.813  10.531  0.1751  1.8997  0.6148
19605TIP3   OH280305   5.113   1.560   0.412  0.1358 -0.6333  0.2388
19605TIP3    H180306   5.072   1.500   0.350  0.8921 -1.0323  0.1035
19605TIP3    H280307   5.137   1.636   0.359  0.0472 -0.6273  0.2076
19606TIP3   OH280308   1.353   5.977   1.970  0.8614  0.1329  0.1403
19606TIP3    H180309   1.277   5.950   2.022  2.3743 -1.6639  1.5717
19606TIP3    H280310   1.397   5.895   1.948  2.0570  1.0861 -1.1969
19607TIP3   OH280311   2.569   1.244   3.493 -0.2330  0.0770 -0.6434
19607TIP3    H180312   2.530   1.311   3.551  0.4354 -0.4272  0.4288
19607TIP3    H280313   2.590   1.292   3.413 -0.5657  0.9618 -0.2231
19608TIP3   OH280314   0.352   1.009   4.047  0.2573  0.0179 -0.4114
19608TIP3    H180315   0.410   1.043   3.978  0.2000  2.5100  0.6765
19608TIP3    H280316   0.383   0.919   4.062  1.7851  0.2223 -2.0311
19609TIP3   OH280317   4.331   0.645  13.480 -0.0222  0.5228  0.2007
19609TIP3    H180318   4.335   0.557  13.517  0.0948  0.7923  0.8423
19609TIP3    H280319   4.422   0.667  13.459  0.1743  1.1058  1.5422
19610TIP3   OH280320   0.593   2.121  13.216 -0.2319  0.2440 -0.2503
19610TIP3    H180321   0.545   2.203  13.231 -2.5830 -1.3630  1.7635
19610TIP3    H280322   0.532   2.052  13.242  2.2112 -2.1177 -0.3511
19611TIP3   OH280323   4.560   3.410   1.188 -0.1093  0.0449  0.1418
19611TIP3    H180324   4.587   3.348   1.256 -1.4214  1.0242  1.6342
19611TIP3    H280325   4.468   3.429   1.208 -0.3292  0.9050 -1.5097
19612TIP3   OH280326   2.788   0.610   0.163  0.6819  0.5396 -0.0900
19612TIP3    H180327   2.818   0.674   0.228  2.1574 -0.5340  0.3458
19612TIP3    H280328   2.761   0.662   0.088 -0.1876  1.7621  1.0356
19613TIP3   OH280329   1.118   6.652   5.799 -0.0948 -0.7887 -0.2241
19613TIP3    H180330   1.133   6.647   5.704 -0.0108 -2.4547 -0.1596
19613TIP3    H280331   1.069   6.572   5.819 -3.3065  1.2522  0.6355
19614TIP3   OH280332   6.554   2.187  15.783  0.8522  0.2003 -0.2575
19614TIP3    H180333   6.516   2.269  15.751  1.2044  1.4234  2.2582
19614TIP3    H280334   6.648   2.206  15.792  1.0153 -0.6412 -0.0915
19615TIP3   OH280335   0.623   1.539  16.937  0.7013 -0.0727 -0.0950
19615TIP3    H180336   0.716   1.515  16.929  0.2347 -1.4930 -2.0341
19615TIP3    H280337   0.607   1.595  16.861 -0.3215 -0.9233 -0.5275
19616TIP3   OH280338   5.881   5.521   1.741 -0.3908 -0.4730  0.3883
19616TIP3    H180339   5.838   5.601   1.772  3.0324  1.6180  0.1963
19616TIP3    H280340   5.892   5.534   1.647  1.0235 -0.6913  0.5020
19617TIP3   OH280341   3.705   0.228   3.085  0.3455 -0.5590 -0.2066
19617TIP3    H180342   3.670   0.141   3.105  1.1098 -1.1150 -1.1985
19617TIP3    H280343   3.657   0.255   3.007  0.0077 -0.0225  0.1847
19618TIP3   OH280344   0.827   2.554   5.182  0.0511  0.1525  0.6652
19618TIP3    H180345   0.793   2.529   5.268 -1.7154  1.4210  0.4065
19618TIP3    H280346   0.833   2.649   5.185 -0.0986  0.2299 -0.6069
19619TIP3   OH280347   2.351   1.866  13.932 -0.0068  0.0468 -0.3151
19619TIP3    H180348   2.333   1.927  14.003  0.0058  0.2638 -0.4949
19619TIP3    H280349   2.333   1.780  13.968  0.9417  0.0724  0.2634
19620TIP3   OH280350   1.585   3.398  15.848 -0.1747 -0.5218  0.1956
19620TIP3    H180351   1.523   3.327  15.868  0.3352 -1.3580 -1.0247
19620TIP3    H280352   1.634   3.365  15.772 -0.2664  1.3544 -0.7210
19621TIP3   OH280353   5.605   5.558   6.125 -0.4300 -0.6171 -0.2230
19621TIP3    H180354   5.666   5.567   6.051  0.4429 -2.3750  0.2342
19621TIP3    H280355   5.644   5.491   6.181 -0.2686  1.7220  2.6838
19622TIP3   OH280356   0.362   0.907  17.218  0.1453  1.0224  0.0212
19622TIP3    H180357   0.429   0.909  17.287  1.5248 -1.4720 -1.1420
19622TIP3    H280358   0.324   0.820  17.224  0.3697  0.6983 -2.4258
19623TIP3   OH280359   6.692   4.667  12.923 -0.1638  0.2016 -0.5959
19623TIP3    H180360   6.727   4.578  12.930 -0.3119  0.2003  0.1729
19623TIP3    H280361   6.597   4.655  12.924 -0.1839  0.3433 -0.8328
19624TIP3   OH280362   0.011   1.052   2.638  0.0590 -0.1075 -0.4324
19624TIP3    H180363   0.065   1.126   2.611 -0.7544  0.9096  0.6387
19624TIP3    H280364  -0.077   1.076   2.609  0.2427 -2.3064 -3.3290
19625TIP3   OH280365   1.226   1.956   4.210  0.2350 -0.1455 -0.2142
19625TIP3    H180366   1.314   1.952   4.247  0.4666  1.1156 -0.5746
19625TIP3    H280367   1.239   1.930   4.118  0.4342  1.0528 -0.5451
19626TIP3   OH280368   2.825   5.579  11.596  0.1515 -0.2067  0.8900
19626TIP3    H180369   2.811   5.636  11.520 -2.1174 -1.6468  0.0941
19626TIP3    H280370   2.885   5.627  11.652  2.3142  0.7637 -1.9878
19627TIP3   OH280371   5.843   0.135   2.040  0.1672 -0.3937  0.2047
19627TIP3    H180372   5.904   0.142   2.113  0.0350 -0.6634  0.3394
19627TIP3    H280373   5.779   0.205   2.056 -0.3283 -0.9741  0.7855
19628TIP3   OH280374   5.805   6.653  13.022  0.1086 -0.4410  0.3046
19628TIP3    H180375   5.778   6.640  12.931 -0.5567 -1.0596  0.5789
19628TIP3    H280376   5.888   6.608  13.029 -0.3557 -1.3244  0.2649
19629TIP3   OH280377   2.754   4.014   0.800  0.1820  0.0233 -0.1862
19629TIP3    H180378   2.742   4.080   0.868 -0.4031  1.2541 -1.4416
19629TIP3    H280379   2.745   3.930   0.846  1.3576  0.7638  1.5180
19630TIP3   OH280380   6.532   1.769   0.200 -0.4923  0.5634 -0.6913
19630TIP3    H180381   6.611   1.819   0.218 -1.0797  0.9951  0.8070
19630TIP3    H280382   6.460   1.827   0.227 -1.2376 -0.5724 -0.1771
19631TIP3   OH280383   5.094   2.727   3.448  0.4465 -0.2461 -0.2784
19631TIP3    H180384   5.136   2.805   3.413  0.5718 -0.9001 -1.6625
19631TIP3    H280385   5.012   2.720   3.400  0.1284 -0.5990  0.3052
19632TIP3   OH280386   1.959   6.493  13.511  0.5538  0.8512 -0.2202
19632TIP3    H180387   1.942   6.587  13.521  0.9912  1.2857 -2.8135
19632TIP3    H280388   1.873   6.455  13.495  0.5421  1.0731 -0.7127
19633TIP3   OH280389   1.152   5.551  11.592  0.6081  0.4190 -0.1950
19633TIP3    H180390   1.159   5.644  11.569  0.5860  0.4154 -0.2156
19633TIP3    H280391   1.062   5.541  11.623 -0.8142 -0.4407 -4.0343
19634TIP3   OH280392   6.703   3.129   0.246 -0.4688  0.0265  0.5174
19634TIP3    H180393   6.666   3.214   0.221 -2.9145 -1.2346 -0.5368
19634TIP3    H280394   6.665   3.111   0.332  1.6553  0.8259  1.6917
19635TIP3   OH280395   0.905   0.083   0.211  0.4713 -0.1147  0.0038
19635TIP3    H180396   0.820   0.121   0.235 -0.1303 -1.2611 -0.2703
19635TIP3    H280397   0.955   0.083   0.293 -0.1641 -0.3794  0.4035
19636TIP3   OH280398   6.624   4.870   3.812  0.0994 -0.4995  0.3149
19636TIP3    H180399   6.566   4.935   3.774 -0.6644 -0.2410  1.8386
19636TIP3    H280400   6.712   4.908   3.802 -0.2793  0.4852  0.6273
19637TIP3   OH280401   3.560   2.116  12.896  0.1147 -0.4222 -0.5637
19637TIP3    H180402   3.559   2.212  12.900 -0.2073 -0.4621  0.5431
19637TIP3    H280403   3.469   2.091  12.908  0.2476 -0.8822 -0.5229
19638TIP3   OH280404   5.693   1.537   1.363 -0.2176 -0.1187  0.0614
19638TIP3    H180405   5.638   1.612   1.339  0.6866  0.8556  0.9463
19638TIP3    H280406   5.766   1.576   1.411 -0.5656 -1.7281  1.9930
19639TIP3   OH280407   5.427   2.107  14.452  0.1349 -0.5531 -0.4623
19639TIP3    H180408   5.471   2.065  14.526  0.5979 -2.0502 -1.5372
19639TIP3    H280409   5.492   2.108  14.382  0.0158  1.6862 -0.6292
19640TIP3   OH280410   3.131   5.870  13.823 -0.5208  0.2517 -0.4888
19640TIP3    H180411   3.041   5.846  13.846 -1.0171  0.5378 -2.0359
19640TIP3    H280412   3.172   5.788  13.796 -0.4214  0.1836 -0.1378
19641TIP3   OH280413   3.006   0.369  17.053 -0.5058 -0.0992 -0.6769
19641TIP3    H180414   3.042   0.446  17.009 -0.8484  0.9095  0.7379
19641TIP3    H280415   3.058   0.296  17.020  1.6830  1.0751  0.0020
19642TIP3   OH280416   3.308   3.444  12.721 -0.2223  0.6159  0.4476
19642TIP3    H180417   3.399   3.413  12.727 -0.6420 -0.4857  1.4095
19642TIP3    H280418   3.301   3.480  12.632  0.9062 -0.0900  0.0551
19643TIP3   OH280419   2.904   2.696   5.586 -0.2546  0.4937 -0.2795
19643TIP3    H180420   2.853   2.668   5.510  0.4473  0.6398 -0.8086
19643TIP3    H280421   2.839   2.703   5.656 -1.2360  2.0522 -1.2643
19644TIP3   OH280422   0.574   1.596  17.230  0.5327 -0.1383  0.5196
19644TIP3    H180423   0.549   1.687  17.247 -0.6046 -0.2909 -0.2385
19644TIP3    H280424   0.620   1.598  17.146  0.0853 -0.3212  0.2659
19645TIP3   OH280425   0.632   4.873  13.179  0.0133 -0.2327  0.5552
19645TIP3    H180426   0.655   4.864  13.086  0.1983  0.8130  0.4887
19645TIP3    H280427   0.714   4.895  13.222 -0.4934  1.9076  0.5542
19646TIP3   OH280428   3.380   3.500   0.710 -0.4326 -0.5261 -0.0647
19646TIP3    H180429   3.427   3.440   0.652  0.9829  0.6234 -0.1761
19646TIP3    H280430   3.448   3.535   0.768 -1.4209  0.1070  0.7533
19647TIP3   OH280431   5.240   0.748   4.935  0.0312  0.1101 -0.2317
19647TIP3    H180432   5.223   0.808   4.862 -0.3210 -1.3714 -1.4290
19647TIP3    H280433   5.315   0.696   4.905 -0.9547 -1.4115 -0.1261
19648TIP3   OH280434   4.068   1.206  14.522 -0.7889  0.9940 -0.0511
19648TIP3    H180435   4.146   1.172  14.565  0.5974  0.3800 -2.8287
19648TIP3    H280436   4.002   1.139  14.535 -0.7782  1.2928  1.9052
19649TIP3   OH280437   3.651   5.899  14.331 -0.7839 -0.8153  0.1377
19649TIP3    H180438   3.691   5.814  14.314  0.5513 -0.1998  0.0894
19649TIP3    H280439   3.721   5.952  14.370 -0.8524  1.0168 -2.0400
19650TIP3   OH280440   0.346   3.234  11.790  0.3938 -0.4233  0.1658
19650TIP3    H180441   0.429   3.257  11.748  0.4920  1.1837  1.1578
19650TIP3    H280442   0.316   3.315  11.829 -1.8583 -0.8800 -0.4706
19651TIP3   OH280443   4.230   2.400  16.662  0.0629 -0.4483  0.3870
19651TIP3    H180444   4.316   2.442  16.655 -1.0639  1.7056 -1.8215
19651TIP3    H280445   4.176   2.443  16.596 -2.7464 -1.7813  1.6352
19652TIP3   OH280446   4.981   5.915  16.003 -0.9767 -0.0063  0.2432
19652TIP3    H180447   5.036   5.994  15.994 -1.8868  0.5516 -0.6124
19652TIP3    H280448   5.014   5.872  16.082  0.7167  0.2949 -0.2427
19653TIP3   OH280449   1.397   0.701  12.520 -0.3243 -0.2771  0.1315
19653TIP3    H180450   1.428   0.769  12.580 -0.3319  1.5416 -1.7816
19653TIP3    H280451   1.474   0.647  12.503  0.3226  0.6749 -0.0646
19654TIP3   OH280452   0.578   5.512   5.473  0.9024 -1.1860 -0.1184
19654TIP3    H180453   0.516   5.446   5.503  1.4581 -0.6731  2.4398
19654TIP3    H280454   0.525   5.574   5.422 -0.4173 -1.4877  0.8447
19655TIP3   OH280455   0.045   0.838   3.430  0.3549 -0.1147  0.5615
19655TIP3    H180456  -0.028   0.800   3.382 -0.1876 -0.7656  1.8669
19655TIP3    H280457   0.011   0.855   3.518  1.7729 -0.4705  1.2207
19656TIP3   OH280458   0.060   5.441  10.340  0.5262  0.0891  0.4034
19656TIP3    H180459   0.101   5.357  10.321  0.9705 -0.1224  2.0905
19656TIP3    H280460   0.117   5.482  10.406  0.7934  2.1217 -0.9934
19657TIP3   OH280461   4.021   4.919  13.966  0.1113  0.9320 -0.0353
19657TIP3    H180462   4.102   4.968  13.983  1.6276 -0.8125 -1.6902
19657TIP3    H280463   4.039   4.871  13.885 -2.5244  0.2640 -0.3206
19658TIP3   OH280464   5.015   5.127   2.719 -0.0551 -0.1386  0.2109
19658TIP3    H180465   5.084   5.176   2.763  0.0531 -1.0144  1.0574
19658TIP3    H280466   4.946   5.191   2.704  0.5069  0.5064  0.3269
19659TIP3   OH280467   1.203   5.442   0.934 -0.1219  0.2511 -0.5713
19659TIP3    H180468   1.187   5.356   0.972  0.4526  0.5204  0.3319
19659TIP3    H280469   1.116   5.477   0.914 -0.4228 -0.0544  0.1748
19660TIP3   OH280470   5.875   5.455   6.178  0.0441 -0.3216  0.1558
19660TIP3    H180471   5.873   5.468   6.083  1.4846  1.0248  0.2637
19660TIP3    H280472   5.967   5.445   6.199 -0.2511 -0.5701  1.4344
19661TIP3   OH280473   0.538   1.695   1.477  0.4293 -0.6936  0.0932
19661TIP3    H180474   0.560   1.723   1.388 -1.1684  1.2142  0.2300
19661TIP3    H280475   0.526   1.600   1.469 -0.8102 -0.4436 -2.0195
19662TIP3   OH280476   2.453   1.562   5.441  0.0717 -0.2986  0.7008
19662TIP3    H180477   2.508   1.500   5.393 -0.5095  0.3181 -0.8562
19662TIP3    H280478   2.368   1.518   5.448 -0.0915 -0.0511  0.3597
19663TIP3   OH280479   4.445   6.143  12.807 -0.0449 -0.3791  0.2737
19663TIP3    H180480   4.523   6.090  12.827  0.2946 -0.6210 -1.5013
19663TIP3    H280481   4.406   6.099  12.731 -0.8737  0.8030 -0.0046
19664TIP3   OH280482   6.621   0.180  16.985 -0.1230 -0.1727 -0.0291
19664TIP3    H180483   6.702   0.226  17.007 -0.3596 -0.0180  0.5377
19664TIP3    H280484   6.587   0.150  17.069 -1.0257  0.3899 -0.1794
19665TIP3   OH280485   3.268   1.482   1.702 -0.4760 -0.3501  0.2426
19665TIP3    H180486   3.223   1.567   1.700 -1.0715 -0.6671 -1.1351
19665TIP3    H280487   3.309   1.479   1.788 -1.0951  0.9998  0.6207
19666TIP3   OH280488   4.252   2.652  12.883  0.5282  0.2425 -0.7890
19666TIP3    H180489   4.344   2.677  12.887 -0.2626  3.4550  0.1742
19666TIP3    H280490   4.219   2.693  12.803 -0.0234 -1.2368 -1.3574
19667TIP3   OH280491   0.430   4.733   6.309 -0.1689  0.1260 -0.7550
19667TIP3    H180492   0.514   4.710   6.268  0.4271 -0.6057  0.8139
19667TIP3    H280493   0.433   4.829   6.316  1.2556  0.0200  0.6953
19668TIP3   OH280494   0.137   0.887  12.634  0.9014  0.3264 -0.4227
19668TIP3    H180495   0.168   0.902  12.723 -0.8602 -1.9131  0.6849
19668TIP3    H280496   0.050   0.927  12.632  0.6648 -0.2020 -0.8983
19669TIP3   OH280497   1.028   0.722   3.110  0.0396 -0.3058 -0.2657
19669TIP3    H180498   0.977   0.696   3.034 -0.0699 -0.8460 -0.0139
19669TIP3    H280499   1.041   0.817   3.100 -1.6125 -0.0269  0.0370
19670TIP3   OH280500   0.741   3.777  11.971 -0.0835 -0.0372  0.5715
19670TIP3    H180501   0.689   3.761  12.050 -0.1666 -0.6440  0.3992
19670TIP3    H280502   0.683   3.753  11.899 -0.6165  2.1113  0.2148
19671TIP3   OH280503   2.856   6.421   5.415 -0.0860  0.4023 -0.0935
19671TIP3    H180504   2.877   6.479   5.342 -0.2810  0.5559 -0.0291
19671TIP3    H280505   2.851   6.334   5.377 -0.5911  0.5362 -0.3321
19672TIP3   OH280506   2.772   0.868  13.206  0.3958 -0.2471 -0.3000
19672TIP3    H180507   2.770   0.860  13.111  0.5945 -0.0562 -0.3229
19672TIP3    H280508   2.854   0.915  13.224 -0.2979  0.9505 -0.1373
19673TIP3   OH280509   2.931   3.773  12.654 -0.0883 -0.3534  0.0308
19673TIP3    H180510   2.937   3.689  12.610  1.4807  0.0524 -0.5841
19673TIP3    H280511   2.861   3.761  12.719 -0.2687 -1.9343 -0.4118
19674TIP3   OH280512   2.213   6.372   5.973 -0.2822  0.3803 -0.5739
19674TIP3    H180513   2.228   6.353   6.066 -1.2451  0.3476 -0.4142
19674TIP3    H280514   2.216   6.286   5.931 -0.4300  0.3304 -0.4836
19675TIP3   OH280515   2.948   6.389  13.166 -0.1256  0.5057  0.1240
19675TIP3    H180516   2.874   6.445  13.191 -0.4085 -0.2821  1.1119
19675TIP3    H280517   2.996   6.440  13.101 -0.4164  1.8737  0.9422
19676TIP3   OH280518   1.631   1.767  16.475 -0.4261  0.0781  0.0486
19676TIP3    H180519   1.702   1.722  16.429  0.9235  2.1564 -0.0117
19676TIP3    H280520   1.671   1.797  16.556 -1.1976  1.3719 -0.0305
19677TIP3   OH280521   2.395   3.861   3.810 -0.2518 -0.1880 -0.3465
19677TIP3    H180522   2.466   3.799   3.795  2.1128  1.8265  1.5889
19677TIP3    H280523   2.387   3.910   3.728  0.3169 -0.6692 -0.6918
19678TIP3   OH280524   0.732   5.120   3.040 -0.6159 -0.8678  0.1341
19678TIP3    H180525   0.740   5.181   2.967 -0.2281 -3.5948 -2.2409
19678TIP3    H280526   0.685   5.045   3.004 -0.5615 -2.2735  2.7696
19679TIP3   OH280527   0.661   4.942  12.704 -0.0924 -0.1588 -0.4617
19679TIP3    H180528   0.576   4.911  12.673  0.9396 -1.1804 -2.4410
19679TIP3    H280529   0.649   5.036  12.719 -2.0683 -0.6221  1.2708
19680TIP3   OH280530   4.745   6.277   2.947 -0.2709  0.1735 -0.3156
19680TIP3    H180531   4.752   6.323   3.031 -0.8937 -1.1388  0.4989
19680TIP3    H280532   4.817   6.311   2.894  0.7151  0.3508  1.0876
19681TIP3   OH280533   0.872   5.396  14.657 -0.1684 -0.5349  0.0409
19681TIP3    H180534   0.904   5.401  14.748  0.3894 -0.3264 -0.1602
19681TIP3    H280535   0.945   5.356  14.609 -0.8477 -1.5886 -0.1352
19682TIP3   OH280536   5.538   4.318   1.674  0.2548 -0.6841  0.4231
19682TIP3    H180537   5.543   4.335   1.580 -0.4807  0.7987  0.6151
19682TIP3    H280538   5.517   4.225   1.681 -0.8755 -0.5546 -0.9084
19683TIP3   OH280539   3.368   6.426  13.305  0.1343  0.5346 -0.5651
19683TIP3    H180540   3.412   6.406  13.388 -0.9150  0.5502  0.0078
19683TIP3    H280541   3.296   6.363  13.300 -1.2790  2.0513 -0.2746
19684TIP3   OH280542   3.147   4.320  14.541 -0.2523 -0.2194 -0.1742
19684TIP3    H180543   3.212   4.389  14.526 -0.6743 -0.3751 -3.5485
19684TIP3    H280544   3.197   4.248  14.578  0.6679  0.9914  1.0526
19685TIP3   OH280545   3.689   1.411  16.022 -0.3182 -0.0605  0.2720
19685TIP3    H180546   3.764   1.404  15.964 -1.4654  0.8332 -1.3945
19685TIP3    H280547   3.688   1.328  16.070  0.3272 -1.0952 -1.4077
19686TIP3   OH280548   1.450   5.776  12.677  0.4942  0.3671  0.2361
19686TIP3    H180549   1.375   5.793  12.621  0.8998  1.0277 -0.1173
19686TIP3    H280550   1.515   5.842  12.652  1.2384 -0.2620  0.4547
19687TIP3   OH280551   0.226   3.740   1.548 -0.0228  0.0428  0.3515
19687TIP3    H180552   0.203   3.792   1.471  0.9747  1.3805  0.9075
19687TIP3    H280553   0.306   3.694   1.522 -1.1288 -1.5793 -0.2783
19688TIP3   OH280554   3.641   2.472   3.702 -0.0203  0.5623  0.0036
19688TIP3    H180555   3.703   2.448   3.771  0.8296  0.0026 -0.9288
19688TIP3    H280556   3.605   2.556   3.731 -0.3823 -0.0888  1.5712
19689TIP3   OH280557   3.602   3.843  13.712 -0.2289  0.0795 -0.4250
19689TIP3    H180558   3.526   3.872  13.662 -2.0034  0.9617  2.5453
19689TIP3    H280559   3.607   3.904  13.786  1.4345 -1.8732  1.1983
19690TIP3   OH280560   5.452   6.307   0.040 -0.3586  0.4945 -0.5878
19690TIP3    H180561   5.480   6.393   0.074 -1.8996  1.0263 -0.5727
19690TIP3    H280562   5.358   6.305   0.056 -0.4907 -0.8485 -1.4062
19691TIP3   OH280563   4.568   6.604  14.826 -0.1702 -0.0753  0.8569
19691TIP3    H180564   4.592   6.606  14.919  1.5381  1.9434  0.4405
19691TIP3    H280565   4.651   6.610  14.780 -1.0775  0.2171 -0.7983
19692TIP3   OH280566   1.829   3.039  17.102  0.2777  0.1308 -0.3828
19692TIP3    H180567   1.780   2.976  17.050  1.7054 -0.9682 -0.4822
19692TIP3    H280568   1.776   3.119  17.101 -1.8228 -1.1842  0.1400
19693TIP3   OH280569   1.745   4.705  11.749  0.4971  0.5279  0.1312
19693TIP3    H180570   1.802   4.771  11.785 -0.0550  2.1657 -1.7975
19693TIP3    H280571   1.778   4.690  11.660  1.4739 -2.8970  0.9170
19694TIP3   OH280572   5.414   4.475   2.277 -0.2772  0.7137  0.3277
19694TIP3    H180573   5.508   4.491   2.262 -0.1081 -1.8020 -2.0466
19694TIP3    H280574   5.402   4.490   2.371  2.1629  2.4505  0.4715
19695TIP3   OH280575   3.656   0.299  11.353  0.2138  0.1153  0.5837
19695TIP3    H180576   3.658   0.223  11.294  1.5017  0.9481 -0.5216
19695TIP3    H280577   3.747   0.311  11.378  0.4529  2.6198 -1.1014
19696TIP3   OH280578   2.901   1.887  12.120 -0.7265  0.1920 -0.1303
19696TIP3    H180579   2.926   1.955  12.058  1.2635  1.4827  1.9029
19696TIP3    H280580   2.947   1.911  12.201 -1.9428 -2.2325  1.3959
19697TIP3   OH280581   1.278   2.256  14.771 -0.2305  0.1284 -0.1366
19697TIP3    H180582   1.295   2.185  14.709  2.8889 -0.4268  1.1696
19697TIP3    H280583   1.209   2.221  14.828 -0.3532 -0.9196 -0.9020
19698TIP3   OH280584   2.590   2.569   4.630 -0.1054 -0.3974  0.1400
19698TIP3    H180585   2.655   2.538   4.693 -0.2096  0.3692  0.6436
19698TIP3    H280586   2.530   2.623   4.682  0.0498  0.6027 -0.6803
19699TIP3   OH280587   6.031   4.817  11.218  0.2783 -0.4551 -0.6818
19699TIP3    H180588   6.033   4.904  11.179  0.4533  0.1488  0.6310
19699TIP3    H280589   6.083   4.825  11.298  1.8912 -2.2383 -1.4704
19700TIP3   OH280590   2.255   0.342  12.986  0.0680  0.4868 -1.0377
19700TIP3    H180591   2.294   0.428  13.001 -1.6089  0.9770  1.1207
19700TIP3    H280592   2.167   0.361  12.954 -0.9250 -0.2894  1.0329
19701TIP3   OH280593   3.543   0.358   5.661  0.4909  0.2773 -0.5178
19701TIP3    H180594   3.493   0.401   5.730 -0.8425  1.3623 -2.0630
19701TIP3    H280595   3.604   0.426   5.630  2.4835 -0.8107  0.8602
19702TIP3   OH280596   4.901   6.152   0.206  0.4584  0.5639 -0.7996
19702TIP3    H180597   4.904   6.137   0.301 -0.0499 -0.2809 -0.9100
19702TIP3    H280598   4.823   6.206   0.193 -0.3515 -0.5878 -0.8837
19703TIP3   OH280599   6.401   4.185  13.434  0.5174 -0.3987  0.1481
19703TIP3    H180600   6.472   4.212  13.377  0.2819  0.6990  0.3418
19703TIP3    H280601   6.409   4.242  13.511 -2.2658  1.9218 -1.0629
19704TIP3   OH280602   2.174   4.749   2.336  0.6713 -0.6579  0.5799
19704TIP3    H180603   2.196   4.720   2.425 -0.6506 -0.8711  0.8603
19704TIP3    H280604   2.229   4.695   2.279  1.9879 -0.0853  1.2804
19705TIP3   OH280605   6.436   2.479  11.642  0.0330  0.6481 -0.0222
19705TIP3    H180606   6.460   2.471  11.550 -0.2693 -0.2667 -0.0274
19705TIP3    H280607   6.391   2.564  11.647 -1.7396 -0.1652 -1.1303
19706TIP3   OH280608   5.381   6.627   1.391  0.0504  0.3256  0.5168
19706TIP3    H180609   5.363   6.721   1.380 -1.6522  0.0965  1.0935
19706TIP3    H280610   5.378   6.613   1.486  0.2187 -0.3309  0.4296
19707TIP3   OH280611   2.275   4.829  11.725  0.6535 -0.3632  0.1085
19707TIP3    H180612   2.312   4.862  11.643  0.4843  3.2091  1.3141
19707TIP3    H280613   2.337   4.857  11.792 -0.4354 -1.0684  1.4623
19708TIP3   OH280614   5.878   2.288  11.489  0.0564 -0.0719 -0.2996
19708TIP3    H180615   5.804   2.249  11.443 -0.4611 -0.2304  0.6608
19708TIP3    H280616   5.940   2.310  11.419 -0.6682 -0.4062 -1.0630
19709TIP3   OH280617   1.685   1.519  12.217  0.6577 -0.1261 -0.0169
19709TIP3    H180618   1.605   1.483  12.257 -0.0071 -0.2885 -1.4362
19709TIP3    H280619   1.736   1.551  12.291 -1.6382  1.8717  0.8557
19710TIP3   OH280620   3.325   1.955  12.848 -0.0618 -0.2629 -0.1626
19710TIP3    H180621   3.358   1.969  12.759 -0.4722  1.1536 -0.1117
19710TIP3    H280622   3.230   1.955  12.839 -0.1007 -0.3336  0.2472
19711TIP3   OH280623   3.996   3.727  16.940  0.5939  0.2937  0.0004
19711TIP3    H180624   3.985   3.786  17.015  2.4619  0.7739 -0.0669
19711TIP3    H280625   3.907   3.694  16.923 -0.0706  1.0916  1.6554
19712TIP3   OH280626   4.258   3.629   5.191  0.2517 -0.2681 -0.2375
19712TIP3    H180627   4.319   3.702   5.198  0.1823 -0.2057 -0.2799
19712TIP3    H280628   4.226   3.616   5.280  1.1415 -1.0094 -0.0067
19713TIP3   OH280629   3.373   4.178  13.411  0.6624 -0.5551 -0.0363
19713TIP3    H180630   3.415   4.262  13.390 -1.9887  0.9964  0.4323
19713TIP3    H280631   3.298   4.173  13.352 -2.2933  0.0409  3.3350
19714TIP3   OH280632   0.229   3.397   3.564  0.3382  0.0105  0.1257
19714TIP3    H180633   0.278   3.347   3.499 -1.5794 -1.4247 -0.2935
19714TIP3    H280634   0.266   3.485   3.559  1.4395 -0.5008 -1.6345
19715TIP3   OH280635   0.192   2.791  15.465 -0.2313  0.3991 -0.1541
19715TIP3    H180636   0.285   2.805  15.446  0.5926 -2.1209  1.4758
19715TIP3    H280637   0.160   2.877  15.492  1.9759  1.0869  0.4999
19716TIP3   OH280638   3.925   0.178   3.483  0.3598  0.0065  0.0232
19716TIP3    H180639   3.846   0.125   3.493  1.0374 -1.2105 -0.8323
19716TIP3    H280640   3.897   0.253   3.431  0.0854 -1.2157 -1.6635
19717TIP3   OH280641   5.150   0.252  14.071  0.0572 -0.2902  0.1810
19717TIP3    H180642   5.137   0.157  14.071  0.6634 -0.3968 -1.6147
19717TIP3    H280643   5.143   0.278  13.980  3.0807  0.9272  0.1565
19718TIP3   OH280644   1.781   2.632   5.687 -0.4079  0.1076  0.5324
19718TIP3    H180645   1.733   2.608   5.608 -0.4919  0.2766  0.5308
19718TIP3    H280646   1.777   2.728   5.689 -0.4075  0.1041  0.7423
19719TIP3   OH280647   2.201   0.283  14.608  0.2214  0.1638 -0.0445
19719TIP3    H180648   2.144   0.212  14.577  0.4904  0.5814 -1.5955
19719TIP3    H280649   2.278   0.278  14.552  1.6810 -0.2837  1.9323
19720TIP3   OH280650   1.912   4.652   2.258  0.2420 -0.1161  0.1024
19720TIP3    H180651   2.004   4.628   2.246 -0.1126 -1.2294 -0.5185
19720TIP3    H280652   1.892   4.709   2.184  0.0116 -1.1798 -0.6812
19721TIP3   OH280653   1.277   0.289  16.142  0.2127 -0.7491 -0.2079
19721TIP3    H180654   1.188   0.316  16.166  0.6004  0.9306 -0.5749
19721TIP3    H280655   1.315   0.256  16.224 -0.0228  0.6024  0.4698
19722TIP3   OH280656   4.606   4.349  15.250  0.0464  0.2948 -0.2453
19722TIP3    H180657   4.688   4.397  15.260 -0.4096  1.2639 -1.0012
19722TIP3    H280658   4.596   4.336  15.156  0.3959 -1.7634 -0.0409
19723TIP3   OH280659   3.263   3.178   1.809  0.0390  0.2288 -0.4662
19723TIP3    H180660   3.194   3.135   1.859 -0.6301 -1.2229 -2.5051
19723TIP3    H280661   3.337   3.185   1.870 -0.3378 -2.4826  0.4132
19724TIP3   OH280662   2.245   0.195  15.175  0.5515 -0.5901  0.2971
19724TIP3    H180663   2.237   0.204  15.080  1.7360 -2.8595 -0.1035
19724TIP3    H280664   2.266   0.283  15.206  2.1827 -0.1588 -1.8159
19725TIP3   OH280665   0.886   3.922   1.684  0.3196  0.1195 -0.3212
19725TIP3    H180666   0.841   4.006   1.678  1.6644  1.2679  3.1847
19725TIP3    H280667   0.972   3.938   1.645  0.1542 -0.0279 -0.7564
19726TIP3   OH280668   4.284   6.035  10.654  0.2389 -0.0942  0.2290
19726TIP3    H180669   4.275   6.090  10.732  1.0445  3.4201 -1.9249
19726TIP3    H280670   4.194   6.022  10.623  0.0469  0.2056  0.6645
19727TIP3   OH280671   6.198   2.258  14.225  0.1239  0.5020 -0.5715
19727TIP3    H180672   6.211   2.226  14.136  4.1905  0.9190 -0.3119
19727TIP3    H280673   6.188   2.353  14.215  0.7066  0.5641 -0.6135
19728TIP3   OH280674   5.619   5.841   0.026 -0.3478 -0.1310 -0.3967
19728TIP3    H180675   5.689   5.805  -0.029  1.2329  0.8512  0.8941
19728TIP3    H280676   5.663   5.869   0.106 -2.1097  1.2227  0.1645
19729TIP3   OH280677   5.946   5.690  14.472 -0.0260  0.0986 -0.1985
19729TIP3    H180678   5.931   5.679  14.378  1.0802  0.2996 -0.4045
19729TIP3    H280679   5.872   5.645  14.513 -0.6403  0.2013 -1.1622
19730TIP3   OH280680   2.265   1.232  12.743 -0.8646 -0.0130 -0.1890
19730TIP3    H180681   2.318   1.195  12.671 -0.2052  0.6369 -0.0491
19730TIP3    H280682   2.262   1.162  12.808  1.7893  0.6752  0.8046
19731TIP3   OH280683   0.853   3.902   2.303  0.4017 -0.0150 -0.3341
19731TIP3    H180684   0.761   3.873   2.312  0.1886  1.0355  1.2829
19731TIP3    H280685   0.855   3.949   2.220 -0.0203 -1.7343 -1.3860
19732TIP3   OH280686   2.963   1.096  14.223  0.3392 -0.2476 -0.0888
19732TIP3    H180687   2.886   1.084  14.167  0.6891  0.0903 -0.6404
19732TIP3    H280688   3.037   1.071  14.168  0.6350 -0.5606  0.4386
19733TIP3   OH280689   0.988   2.731  15.601  0.2624 -0.8712 -0.1703
19733TIP3    H180690   0.955   2.762  15.517  0.5881  1.4913  0.5028
19733TIP3    H280691   1.053   2.665  15.578 -0.1343 -0.7523 -1.7411
19734TIP3   OH280692   0.201   4.220  16.070 -0.4224 -0.1573  0.2700
19734TIP3    H180693   0.295   4.207  16.064 -0.1492  1.8685 -0.6908
19734TIP3    H280694   0.170   4.210  15.980 -0.9235  0.4462  0.3698
19735TIP3   OH280695   6.600   4.284  10.864 -0.1736  0.0507  0.5300
19735TIP3    H180696   6.690   4.264  10.839 -0.7528 -1.2880 -0.6239
19735TIP3    H280697   6.591   4.252  10.953 -0.8605 -4.7548 -0.9572
19736TIP3   OH280698   5.282   2.676  16.037  0.1918  0.6007  0.0947
19736TIP3    H180699   5.207   2.633  16.078  1.8116 -0.9301  1.6682
19736TIP3    H280700   5.245   2.747  15.986 -2.2301  0.5524  1.6575
19737TIP3   OH280701   4.806   0.462  12.083 -0.5076  0.2301  0.5741
19737TIP3    H180702   4.809   0.557  12.081  1.7459  0.1945 -0.2406
19737TIP3    H280703   4.782   0.436  11.994 -0.9230  0.0263  0.7425
19738TIP3   OH280704   1.126   5.742  15.355  0.0190  0.1550 -0.0573
19738TIP3    H180705   1.188   5.669  15.351 -1.4778 -1.2511  1.0063
19738TIP3    H280706   1.088   5.746  15.267  0.5834  0.0887 -0.3057
19739TIP3   OH280707   3.072   1.703  12.009 -0.0201 -0.2881 -0.6933
19739TIP3    H180708   3.140   1.742  12.064  0.7146  0.4042 -2.0223
19739TIP3    H280709   2.992   1.749  12.033  0.3574  0.2573 -0.4673
19740TIP3   OH280710   6.634   2.890  15.903 -0.1615  0.2782  0.6486
19740TIP3    H180711   6.689   2.959  15.867  0.3503 -0.6635 -0.4474
19740TIP3    H280712   6.691   2.842  15.963  0.9603 -1.8831 -1.8928
19741TIP3   OH280713   6.764   0.095  16.412 -0.1545 -0.3468 -0.4128
19741TIP3    H180714   6.670   0.104  16.395 -0.2007 -1.5662 -0.8799
19741TIP3    H280715   6.769   0.040  16.490  0.1701 -0.1976 -0.3292
19742TIP3   OH280716   0.821   3.570   1.256  0.1269 -0.1693  0.8254
19742TIP3    H180717   0.912   3.539   1.257 -0.0861 -0.8113  0.5479
19742TIP3    H280718   0.809   3.611   1.342  0.7502  0.1412  0.7719
19743TIP3   OH280719   0.705   3.766   3.730  0.0346  0.2757 -0.1899
19743TIP3    H180720   0.731   3.692   3.784  0.0682  1.2745  1.2337
19743TIP3    H280721   0.610   3.771   3.740  0.1365  0.9885  0.5102
19744TIP3   OH280722   2.366   4.038  16.160 -0.2150 -0.1702 -0.0784
19744TIP3    H180723   2.308   3.974  16.118 -1.9410  0.6919  0.8478
19744TIP3    H280724   2.349   4.026  16.254 -0.1829  1.2835  0.1275
19745TIP3   OH280725   4.658   5.097  15.721 -0.3007  0.3334 -0.1450
19745TIP3    H180726   4.613   5.128  15.799  0.3157  2.0289 -0.4010
19745TIP3    H280727   4.751   5.095  15.746 -0.2836 -1.0158 -0.2640
19746TIP3   OH280728   3.535   2.711   0.673 -0.0116  0.4064  0.0581
19746TIP3    H180729   3.450   2.670   0.654 -0.1800  0.8614 -0.1676
19746TIP3    H280730   3.548   2.774   0.602 -0.8068  2.3904  1.5719
19747TIP3   OH280731   0.716   4.718  17.305  0.5133  0.6367 -0.2257
19747TIP3    H180732   0.677   4.802  17.279  0.8766  0.8840  0.0240
19747TIP3    H280733   0.691   4.658  17.235  0.5465  1.0359 -0.5857
19748TIP3   OH280734   2.326   5.271  16.697 -0.0129 -0.2207  0.4036
19748TIP3    H180735   2.305   5.280  16.604 -1.8537  0.2107  0.8344
19748TIP3    H280736   2.261   5.324  16.742  0.4921 -0.8869  1.9883
19749TIP3   OH280737   1.281   5.288  14.989 -0.1043  0.2686  0.2699
19749TIP3    H180738   1.340   5.310  14.916 -0.1280  0.2416  0.2426
19749TIP3    H280739   1.209   5.351  14.981  0.7217  1.3896  1.2893
19750TIP3   OH280740   4.598   2.142  13.668  0.1581 -0.1201 -0.3225
19750TIP3    H180741   4.612   2.125  13.575  0.1087 -0.2126 -0.3130
19750TIP3    H280742   4.679   2.183  13.698  0.2779 -0.3435 -0.3421
19751TIP3   OH280743   3.151   6.107  11.335 -0.1549 -0.1318  0.4088
19751TIP3    H180744   3.058   6.129  11.326  0.1583  0.6378 -1.3670
19751TIP3    H280745   3.154   6.012  11.329 -0.6717 -0.0555 -1.5150
19752TIP3   OH280746   5.441   0.009  16.601 -0.5425 -0.1872  0.3981
19752TIP3    H180747   5.411  -0.077  16.574 -2.4204  0.3793  0.5600
19752TIP3    H280748   5.402   0.070  16.537 -0.1367  0.6422  0.9168
19753TIP3   OH280749   3.488   3.754   2.179  0.0317 -0.0757 -0.2116
19753TIP3    H180750   3.576   3.725   2.155 -0.4452 -3.0264  1.2359
19753TIP3    H280751   3.500   3.801   2.262  0.3915  1.0047 -0.8502
19754TIP3   OH280752   6.041   1.447   2.191 -0.2082 -0.2153 -0.8281
19754TIP3    H180753   6.006   1.394   2.120  0.1622  0.6513 -1.6890
19754TIP3    H280754   5.971   1.510   2.210  0.6470  1.2409 -2.2560
19755TIP3   OH280755   1.447   4.588  13.270 -0.0731 -0.0706 -0.4752
19755TIP3    H180756   1.510   4.536  13.320 -1.5952 -0.9365  0.6243
19755TIP3    H280757   1.395   4.524  13.223 -1.8203  0.4132  0.7157
19756TIP3   OH280758   2.204   5.101  11.248 -0.2354  0.3014  0.4310
19756TIP3    H180759   2.208   5.014  11.288 -1.0925  1.4300  3.2820
19756TIP3    H280760   2.286   5.110  11.200 -0.4079 -2.2767 -0.4469
19757TIP3   OH280761   6.471   2.619   3.460 -0.7422  0.2411  0.3444
19757TIP3    H180762   6.490   2.624   3.367 -3.1272  1.2269 -0.1664
19757TIP3    H280763   6.445   2.708   3.484 -0.2742 -0.0223  1.9311
19758TIP3   OH280764   1.932   1.117  13.515 -0.9550  0.5399 -0.0999
19758TIP3    H180765   1.900   1.096  13.427 -1.6557 -0.5100  0.3846
19758TIP3    H280766   1.872   1.071  13.574  1.5767 -1.8265  0.8511
19759TIP3   OH280767   2.868   2.598   1.451 -0.0234  0.4246  0.4433
19759TIP3    H180768   2.822   2.540   1.512 -0.0589 -1.1638 -1.0121
19759TIP3    H280769   2.959   2.568   1.454  0.0108  0.4647 -0.1126
19760TIP3   OH280770   0.056   5.141   1.674  0.3397 -0.2163  0.1769
19760TIP3    H180771   0.003   5.205   1.722  0.2250 -0.6029  0.5747
19760TIP3    H280772   0.108   5.194   1.614 -1.0442  0.1130 -0.7745
19761TIP3   OH280773   4.942   3.847  12.753 -0.4805  0.1360  0.0860
19761TIP3    H180774   4.997   3.918  12.720 -2.4819  2.1328  0.7708
19761TIP3    H280775   4.857   3.888  12.769 -1.7978 -2.4767  0.3908
19762TIP3   OH280776   2.083   0.014  13.004  0.2123  0.3788 -0.2431
19762TIP3    H180777   2.169  -0.015  12.976  1.3125  0.9051  2.2651
19762TIP3    H280778   2.096   0.042  13.095 -2.0632  2.8632 -0.5540
19763TIP3   OH280779   5.238   2.120   5.223  0.3809  0.0159 -0.3643
19763TIP3    H180780   5.213   2.160   5.306 -0.5712 -0.6450 -0.3243
19763TIP3    H280781   5.307   2.178   5.189  0.3298  0.6484  0.5688
19764TIP3   OH280782   6.799   6.455   5.022 -0.1160 -0.1111 -0.0159
19764TIP3    H180783   6.838   6.510   4.953  1.5379 -1.1425  0.0604
19764TIP3    H280784   6.826   6.498   5.103 -2.2922  1.2598  0.0635
19765TIP3   OH280785   1.332   4.259   5.469 -0.4222 -0.1175 -0.0445
19765TIP3    H180786   1.319   4.184   5.410  0.6268 -0.0114 -0.4392
19765TIP3    H280787   1.278   4.328   5.432 -0.3354 -0.2769 -0.4818
19766TIP3   OH280788   2.973   0.873   6.591 -0.0654  0.1084  0.3073
19766TIP3    H180789   2.900   0.929   6.566 -0.3957  0.6781  2.3955
19766TIP3    H280790   3.029   0.928   6.646  2.1162 -0.2371 -1.4080
19767TIP3   OH280791   4.553   5.983   0.129 -0.1566 -0.8570  0.0037
19767TIP3    H180792   4.567   5.909   0.189  0.2602 -1.2510 -0.5585
19767TIP3    H280793   4.636   5.990   0.082 -0.2032 -0.0316  0.0445
19768TIP3   OH280794   4.100   1.445  15.361 -0.6851  0.1994  0.5367
19768TIP3    H180795   4.031   1.470  15.422 -0.4751  0.6672  0.5816
19768TIP3    H280796   4.176   1.428  15.417 -0.4228  0.8689  0.3851
19769TIP3   OH280797   4.329   1.269  15.851 -0.0541  0.3997  0.1746
19769TIP3    H180798   4.250   1.234  15.810 -0.7612  1.8818  0.1906
19769TIP3    H280799   4.386   1.291  15.777  0.2906 -0.5408  0.1569
19770TIP3   OH280800   1.376   3.730  14.078  0.1235  0.6103 -0.2185
19770TIP3    H180801   1.385   3.793  14.006 -0.7286 -1.0703 -1.8748
19770TIP3    H280802   1.307   3.670  14.049  0.9372 -1.1307  1.2551
19771TIP3   OH280803   3.732   2.787   5.754  0.8099 -0.5741 -0.3352
19771TIP3    H180804   3.790   2.809   5.827  1.1461  1.5614 -1.1522
19771TIP3    H280805   3.683   2.868   5.738 -0.7956 -1.6535 -1.1094
19772TIP3   OH280806   6.426   6.252  15.384 -0.0296 -0.0915  0.7086
19772TIP3    H180807   6.454   6.211  15.466  1.0825 -1.9008 -0.4996
19772TIP3    H280808   6.377   6.184  15.339 -1.9021  1.3535  0.4538
19773TIP3   OH280809   3.484   1.965   1.945 -0.3893 -0.0392  0.3539
19773TIP3    H180810   3.499   1.897   1.880 -1.0622 -1.2318  1.3941
19773TIP3    H280811   3.566   2.014   1.948  0.3677 -1.2529  0.0818
19774TIP3   OH280812   2.788   2.708   2.607  0.2278  0.0731  0.3403
19774TIP3    H180813   2.863   2.721   2.665  1.4977 -0.3575 -1.1563
19774TIP3    H280814   2.814   2.637   2.549 -1.7903 -0.8650  0.4889
19775TIP3   OH280815   2.499   0.768   2.062 -0.5649 -0.0901 -0.4002
19775TIP3    H180816   2.476   0.737   2.149 -0.6748 -0.4111 -0.5403
19775TIP3    H280817   2.562   0.838   2.077  0.3431 -0.9362 -0.0955
19776TIP3   OH280818   0.256   6.200   0.624  0.3428  0.8409  0.3841
19776TIP3    H180819   0.268   6.233   0.713  0.4984  1.0173  0.2984
19776TIP3    H280820   0.318   6.250   0.571  0.5741  0.4219  0.2497
19777TIP3   OH280821   4.674   2.070  16.694  0.0832  0.7317 -0.4506
19777TIP3    H180822   4.663   2.084  16.788 -2.7503 -1.0970 -0.3994
19777TIP3    H280823   4.723   1.988  16.687  1.1313  1.3536 -0.6186
19778TIP3   OH280824   1.891   2.846   5.321  1.1756  0.1240  0.0591
19778TIP3    H180825   1.964   2.836   5.259  0.0116 -1.7588 -1.0788
19778TIP3    H280826   1.855   2.932   5.300  2.2360  0.5158 -0.2661
19779TIP3   OH280827   1.439   6.430   3.704 -0.0772 -0.0693 -0.0995
19779TIP3    H180828   1.380   6.506   3.702  0.2246  0.1950  0.5990
19779TIP3    H280829   1.406   6.372   3.635 -0.5541  0.5180 -0.3737
19780TIP3   OH280830   1.796   0.312   0.315 -0.6616  0.7667 -0.3016
19780TIP3    H180831   1.852   0.240   0.285 -1.0803  0.0860  0.5158
19780TIP3    H280832   1.853   0.363   0.373 -0.5760  0.6817 -0.3093
19781TIP3   OH280833   4.473   3.217  17.006 -0.1213  0.0614 -0.0172
19781TIP3    H180834   4.510   3.283  17.065 -0.1291 -0.7931  0.9690
19781TIP3    H280835   4.425   3.158  17.063 -2.1331  0.5077 -1.1448
19782TIP3   OH280836   2.161   6.619  15.897 -0.2821  0.0399  0.1797
19782TIP3    H180837   2.187   6.682  15.964  2.1188  0.0454 -0.6673
19782TIP3    H280838   2.079   6.653  15.862  0.7392  2.5661  0.0033
19783TIP3   OH280839   4.665   5.041   2.031 -0.0877  0.0618 -0.6604
19783TIP3    H180840   4.675   4.995   2.114  3.0224  0.7900 -0.4933
19783TIP3    H280841   4.700   5.129   2.048 -1.4358  0.9443 -2.1897
19784TIP3   OH280842   6.267   2.613  12.799  0.9919  0.2020  0.0227
19784TIP3    H180843   6.223   2.532  12.826  0.3603  0.1894 -1.0125
19784TIP3    H280844   6.231   2.680  12.858 -1.1686  0.3708 -1.3854
19785TIP3   OH280845   4.538   3.980   1.192  0.1722 -0.5645  0.0664
19785TIP3    H180846   4.599   3.971   1.265 -0.4792  0.7726  0.8233
19785TIP3    H280847   4.536   4.074   1.174 -0.5559 -0.7531 -0.9132
19786TIP3   OH280848   0.592   4.216   4.638 -0.3673 -0.1082  0.3455
19786TIP3    H180849   0.668   4.247   4.687 -1.3803  1.3043  1.1001
19786TIP3    H280850   0.585   4.276   4.564  0.4924 -1.5552 -0.9681
19787TIP3   OH280851   1.148   1.845  15.978 -0.0103 -0.2990 -0.0088
19787TIP3    H180852   1.065   1.843  15.930  0.3548 -0.5194 -0.6438
19787TIP3    H280853   1.190   1.761  15.957  2.0738  1.2643 -2.7515
19788TIP3   OH280854   5.656   6.239  17.198 -0.1158  0.0934  0.3538
19788TIP3    H180855   5.692   6.321  17.165  1.0482  0.2185  1.8487
19788TIP3    H280856   5.574   6.265  17.241 -0.0984  0.3553  0.2335
19789TIP3   OH280857   2.501   2.482   3.448  0.0163  0.2318  0.1779
19789TIP3    H180858   2.562   2.408   3.440 -0.3485  0.1134 -2.0187
19789TIP3    H280859   2.482   2.507   3.358 -2.6353  0.7305  0.8096
19790TIP3   OH280860   3.194   5.723   0.560  0.1020  0.2554  0.0036
19790TIP3    H180861   3.171   5.812   0.587  1.1891  0.7396 -0.6197
19790TIP3    H280862   3.285   5.712   0.589 -0.6578 -1.4460  2.0174
19791TIP3   OH280863   1.321   3.451  13.820  0.4567  0.0388 -0.0891
19791TIP3    H180864   1.349   3.423  13.733  2.4632 -1.0717  0.8368
19791TIP3    H280865   1.226   3.458  13.814  0.6774  2.7577 -3.1126
19792TIP3   OH280866   1.556   0.702   2.065  0.0242 -0.3050 -0.0001
19792TIP3    H180867   1.531   0.752   1.987 -0.9943 -0.4499  0.2105
19792TIP3    H280868   1.538   0.611   2.042  1.8076 -0.5950 -0.3560
19793TIP3   OH280869   0.544   3.377  15.733  0.1465 -0.0767  0.2230
19793TIP3    H180870   0.566   3.469  15.747 -1.7582  0.8009 -1.9255
19793TIP3    H280871   0.466   3.363  15.786  0.3011 -0.3780  0.3684
19794TIP3   OH280872   0.385   0.126  17.185 -0.5333 -0.0959 -0.0987
19794TIP3    H180873   0.381   0.137  17.280 -1.1898 -0.6104 -0.0636
19794TIP3    H280874   0.294   0.120  17.158 -0.3345 -0.3123 -0.7187
19795TIP3   OH280875   4.312   4.273   1.899 -0.0677  0.0396 -0.1479
19795TIP3    H180876   4.252   4.286   1.826 -1.2499  0.8712  0.9173
19795TIP3    H280877   4.390   4.233   1.860 -0.9558 -0.2393 -1.7211
19796TIP3   OH280878   6.607   3.552  17.245 -0.1597 -0.5361  0.3372
19796TIP3    H180879   6.677   3.519  17.302 -0.7519 -0.9553  0.8462
19796TIP3    H280880   6.577   3.632  17.289  1.0079  0.5069 -0.6860
19797TIP3   OH280881   3.628   6.738  16.378  0.8702  0.3486 -0.0408
19797TIP3    H180882   3.533   6.736  16.389  0.7665  1.1188 -0.6775
19797TIP3    H280883   3.641   6.749  16.283  1.5693  1.1436  0.1350
19798TIP3   OH280884   0.801   3.083   1.705  0.4101  0.4718 -0.3895
19798TIP3    H180885   0.786   3.080   1.800 -0.5443  0.9745 -0.5198
19798TIP3    H280886   0.839   2.998   1.685  0.6155  0.3521  0.4441
19799TIP3   OH280887   3.486   5.045   1.303  0.3398  0.0669  0.1037
19799TIP3    H180888   3.400   5.046   1.346 -0.3749  0.3509 -1.2845
19799TIP3    H280889   3.547   5.071   1.372 -0.6220 -0.5659  1.2334
19800TIP3   OH280890   6.763   6.395   3.139  0.2425 -0.2426  0.2254
19800TIP3    H180891   6.693   6.341   3.102  2.0713 -2.6117 -0.0798
19800TIP3    H280892   6.820   6.416   3.065  1.4992 -1.0884  0.9016
19801TIP3   OH280893   4.118   6.271   4.282 -0.3174 -0.1555  0.1000
19801TIP3    H180894   4.213   6.274   4.276 -0.3169  1.2303  0.4874
19801TIP3    H280895   4.089   6.236   4.198  0.5384 -0.9869  0.1338
19802TIP3   OH280896   0.526   2.479  12.899  0.1286  0.0593  0.2652
19802TIP3    H180897   0.470   2.513  12.829  0.3464 -0.4955 -0.1931
19802TIP3    H280898   0.481   2.400  12.929  0.3244 -0.0205  0.3529
19803TIP3   OH280899   4.284   2.243   2.026 -0.1216  0.3939 -0.2716
19803TIP3    H180900   4.369   2.287   2.029 -0.3333  0.8830 -1.2191
19803TIP3    H280901   4.293   2.178   1.956 -1.2238  1.9891 -1.9642
19804TIP3   OH280902   0.245   6.731   0.233  0.2808  0.5963  0.1179
19804TIP3    H180903   0.224   6.824   0.220 -0.1069  0.3393 -1.3454
19804TIP3    H280904   0.312   6.712   0.167  0.2806 -0.1796  0.3273
19805TIP3   OH280905   1.992   4.108  13.400  0.4519  0.4547 -0.2027
19805TIP3    H180906   1.926   4.146  13.341 -0.9380 -3.5634 -1.5896
19805TIP3    H280907   2.074   4.112  13.351  0.4624  1.9684 -0.0999
19806TIP3   OH280908   5.283   4.628   2.491 -0.1815  0.5375  0.4531
19806TIP3    H180909   5.231   4.665   2.562 -2.1970 -0.7041 -0.2958
19806TIP3    H280910   5.247   4.667   2.412 -0.0208 -0.3832 -0.0880
19807TIP3   OH280911   6.776   2.580   5.337 -0.3962  0.3327  0.5298
19807TIP3    H180912   6.689   2.587   5.376 -0.6800 -1.1134  0.1876
19807TIP3    H280913   6.764   2.610   5.247 -0.7736 -0.8367  0.1820
19808TIP3   OH280914   3.188   4.987  16.598 -0.1233 -0.7865  0.3225
19808TIP3    H180915   3.267   4.995  16.651  0.9525 -0.0548 -1.3182
19808TIP3    H280916   3.207   5.038  16.519 -2.8269  0.7332  0.5405
19809TIP3   OH280917   0.892   1.677  17.288 -0.0790 -0.7981  0.4274
19809TIP3    H180918   0.972   1.626  17.300 -1.2505 -2.8507 -0.0128
19809TIP3    H280919   0.824   1.626  17.333 -1.6917 -0.7384 -1.7908
19810TIP3   OH280920   0.327   5.773  11.467 -0.3343  0.3333  0.0376
19810TIP3    H180921   0.275   5.743  11.393  0.0884 -0.7601  0.1659
19810TIP3    H280922   0.332   5.868  11.456 -1.2408  0.3113 -0.6915
19811TIP3   OH280923   5.814   6.720   6.196 -0.3396  0.1267  0.2219
19811TIP3    H180924   5.909   6.705   6.191 -0.1110  1.6688 -0.7743
19811TIP3    H280925   5.777   6.662   6.130 -0.1919 -1.0131  1.1030
19812TIP3   OH280926   3.284   4.545  15.302 -0.2594  0.6949  0.0923
19812TIP3    H180927   3.295   4.639  15.289  0.3189  0.6050 -0.0667
19812TIP3    H280928   3.268   4.510  15.214 -1.2167  0.7365  0.2363
19813TIP3   OH280929   0.552   6.255   5.356  0.1333 -0.1591  0.3002
19813TIP3    H180930   0.548   6.347   5.379  1.1161  0.2654 -1.0749
19813TIP3    H280931   0.642   6.229   5.374 -0.3967 -1.1526  1.6704
19814TIP3   OH280932   1.022   0.076   4.865  0.2821 -0.3997  0.1685
19814TIP3    H180933   0.957   0.008   4.884  0.5603 -0.7710 -0.1804
19814TIP3    H280934   0.999   0.149   4.923  0.4142 -1.0676  1.0813
19815TIP3   OH280935   3.804   6.438   0.500  0.1682 -0.2744  1.1242
19815TIP3    H180936   3.717   6.477   0.505 -0.0375 -0.4676 -0.4384
19815TIP3    H280937   3.844   6.479   0.424 -0.2603 -3.4393 -0.9745
19816TIP3   OH280938   6.122   2.946   1.335  0.6617  0.3615 -0.3688
19816TIP3    H180939   6.185   2.896   1.388  1.7985 -0.6356 -2.5233
19816TIP3    H280940   6.067   2.878   1.294  0.7106  1.0142 -1.5359
19817TIP3   OH280941   2.323   5.665  16.301  0.8267 -0.7293  0.3073
19817TIP3    H180942   2.364   5.600  16.243  0.2806 -0.1090 -0.7968
19817TIP3    H280943   2.397   5.707  16.345  1.2855 -0.9224 -0.2612
19818TIP3   OH280944   2.520   0.903  11.747 -0.1202  0.4081 -0.2585
19818TIP3    H180945   2.556   0.886  11.834  2.2496  1.9821 -0.8380
19818TIP3    H280946   2.538   0.823  11.697  2.0917  0.8922 -0.3239
19819TIP3   OH280947   1.281   1.209   3.896  0.3919 -0.1133 -0.1025
19819TIP3    H180948   1.227   1.206   3.817  0.2886 -0.4424 -0.0228
19819TIP3    H280949   1.359   1.257   3.870  0.5483 -0.5891 -0.5213
19820TIP3   OH280950   5.150   3.678  10.939  0.5131  0.2732  0.1665
19820TIP3    H180951   5.157   3.669  10.844 -2.8537 -0.5871 -0.1217
19820TIP3    H280952   5.108   3.762  10.953 -0.3399 -0.2347  0.7756
19821TIP3   OH280953   3.929   3.146   2.059 -0.0126  0.7100  0.5237
19821TIP3    H180954   3.937   3.150   1.964  1.8882  0.5508  0.6373
19821TIP3    H280955   3.849   3.194   2.079  0.0627  1.5476 -1.0925
19822TIP3   OH280956   3.897   0.965  14.258 -0.7438  0.3818  0.2050
19822TIP3    H180957   3.905   1.011  14.342  0.0195  2.2336 -0.8294
19822TIP3    H280958   3.805   0.977  14.233 -0.7018  0.8169  0.2453
19823TIP3   OH280959   3.078   6.734   3.936 -0.3233  0.2195 -0.7007
19823TIP3    H180960   3.110   6.735   3.845 -1.3507  2.3105 -1.1194
19823TIP3    H280961   3.132   6.800   3.980 -0.7151  0.1721 -0.1494
19824TIP3   OH280962   4.509   3.759   3.989  0.7242 -0.0530  0.3780
19824TIP3    H180963   4.516   3.691   4.057  1.4286  0.5328  0.9058
19824TIP3    H280964   4.530   3.713   3.908 -0.8270 -0.9310  0.4206
19825TIP3   OH280965   0.445   0.672   1.051 -0.0617  0.6829  0.3402
19825TIP3    H180966   0.389   0.674   0.974  0.9982 -0.2212 -0.4809
19825TIP3    H280967   0.485   0.759   1.054 -1.8005  1.5130  1.2083
19826TIP3   OH280968   6.356   6.328  11.335 -0.1980  0.1220 -0.1786
19826TIP3    H180969   6.311   6.413  11.331  1.0007  0.8551  1.1875
19826TIP3    H280970   6.317   6.277  11.264  0.3456  2.4497 -2.2702
19827TIP3   OH280971   0.529   5.580   0.606  0.4201 -0.4086 -0.6306
19827TIP3    H180972   0.444   5.572   0.651  1.0589  1.3389  1.0478
19827TIP3    H280973   0.578   5.642   0.660  2.2522 -0.2600 -2.3655
19828TIP3   OH280974   2.977   1.966  17.004 -0.4287 -0.5242  0.1901
19828TIP3    H180975   2.995   1.883  17.049 -1.3701 -0.2747  1.0516
19828TIP3    H280976   2.881   1.970  16.998 -0.3818  0.3596 -0.1227
19829TIP3   OH280977   4.649   0.747  12.031 -0.2576  0.2970  0.1838
19829TIP3    H180978   4.696   0.779  12.108  0.6525 -0.6580  0.0472
19829TIP3    H280979   4.578   0.693  12.066  0.2208 -0.2231  0.3545
19830TIP3   OH280980   3.734   5.467   2.817 -0.1804  0.3570  0.3796
19830TIP3    H180981   3.796   5.452   2.745  0.5484 -0.0530  1.0841
19830TIP3    H280982   3.773   5.422   2.892 -0.5853  1.3600  1.2128
19831TIP3   OH280983   4.285   0.376  13.581  0.7023 -0.0349 -0.0871
19831TIP3    H180984   4.267   0.358  13.673  0.2024  1.1735  0.0806
19831TIP3    H280985   4.263   0.295  13.535 -2.4455  0.3620  0.4713
19832TIP3   OH280986   1.375   2.455  11.362  0.0897 -0.6368  1.0607
19832TIP3    H180987   1.426   2.377  11.340  1.2902  0.5173 -0.5313
19832TIP3    H280988   1.396   2.517  11.292 -0.8834  1.0860  2.2262
19833TIP3   OH280989   3.267   4.359   5.429 -0.3280 -0.2149  0.0375
19833TIP3    H180990   3.182   4.355   5.474  0.1708 -1.8723  0.9116
19833TIP3    H280991   3.254   4.308   5.349 -1.3165  3.0125 -2.0632
19834TIP3   OH280992   2.067   5.978   1.023 -0.2167 -0.2016 -0.6699
19834TIP3    H180993   2.162   5.994   1.017 -0.2532  1.6244  1.9954
19834TIP3    H280994   2.059   5.883   1.027  1.9896 -0.4300  3.1358
19835TIP3   OH280995   3.031   3.919   0.154  0.0634  0.3810 -0.1842
19835TIP3    H180996   3.062   3.829   0.153 -0.3824  0.2273 -0.2402
19835TIP3    H280997   3.027   3.942   0.247  1.8085  0.9197 -0.1997
19836TIP3   OH280998   2.815   0.938  14.027 -0.1966 -0.7814 -0.3248
19836TIP3    H180999   2.881   0.942  13.958  0.6202 -2.4375  0.2912
19836TIP3    H281000   2.732   0.955  13.983  0.4956  0.0201 -1.3560
19837TIP3   OH281001   0.774   5.523  14.447  0.3122 -0.7654  0.0353
19837TIP3    H181002   0.801   5.494  14.534  0.1748 -0.0810  0.3155
19837TIP3    H281003   0.815   5.609  14.437 -1.2588  0.0562  0.2447
19838TIP3   OH281004   4.341   6.308  16.979 -0.0912 -0.2942  0.5398
19838TIP3    H181005   4.248   6.285  16.967  0.2875 -1.9278  0.4164
19838TIP3    H281006   4.362   6.276  17.067  0.3896 -0.0627  0.5090
19839TIP3   OH281007   6.591   1.444  14.884 -0.6664  0.0306  0.1467
19839TIP3    H181008   6.554   1.428  14.797 -0.7420 -1.1866  0.3862
19839TIP3    H281009   6.685   1.448  14.870 -0.3480 -3.5966  0.4134
19840TIP3   OH281010   1.606   3.335   3.572  0.0460 -0.2921 -0.2159
19840TIP3    H181011   1.576   3.327   3.663  0.9786  3.3890  0.5992
19840TIP3    H281012   1.529   3.368   3.525  0.0072 -0.6473 -0.4005
19841TIP3   OH281013   0.754   4.716  14.398 -0.4778  0.7591  0.5293
19841TIP3    H181014   0.810   4.788  14.370 -0.7769  1.2958  1.2793
19841TIP3    H281015   0.688   4.757  14.454  1.0384 -0.4077  3.4136
19842TIP3   OH281016   2.950   5.255  14.039 -0.1434  0.8065 -0.3435
19842TIP3    H181017   3.009   5.207  13.981  0.5671 -1.9440  2.3486
19842TIP3    H281018   2.864   5.217  14.022  0.1360 -0.3226  0.5623
19843TIP3   OH281019   1.920   4.670  11.182 -0.0871  0.4735  0.3196
19843TIP3    H181020   1.861   4.723  11.235 -0.5420 -1.2413  1.5913
19843TIP3    H281021   1.940   4.594  11.236  1.2477 -0.2404 -1.1028
19844TIP3   OH281022   6.267   2.148   3.412 -0.2046 -0.1076  0.0595
19844TIP3    H181023   6.191   2.183   3.458 -1.0609 -1.7748  0.0051
19844TIP3    H281024   6.291   2.069   3.461  3.6671  2.0129  2.1350
19845TIP3   OH281025   1.838   2.017   1.035  0.6176 -0.5853  0.4040
19845TIP3    H181026   1.914   1.961   1.019 -0.0672 -1.3075 -0.4771
19845TIP3    H281027   1.772   1.958   1.071 -0.1708 -0.4102 -0.6860
19846TIP3   OH281028   0.831   4.811  15.955 -0.4297 -0.3481 -0.4777
19846TIP3    H181029   0.854   4.871  15.885 -0.5779  0.5536  0.2311
19846TIP3    H281030   0.902   4.747  15.957  0.6054  0.7680 -0.1533
19847TIP3   OH281031   5.034   4.944  10.565  0.2232 -0.3716 -0.7622
19847TIP3    H181032   5.068   4.858  10.589 -0.5254 -0.1668  1.1944
19847TIP3    H281033   4.939   4.935  10.571  0.0671  0.1998 -2.0381
19848TIP3   OH281034   3.602   6.030  16.237 -0.7939 -0.3861 -0.6030
19848TIP3    H181035   3.683   6.014  16.188 -0.5130  0.1214 -0.3159
19848TIP3    H281036   3.565   6.108  16.197  0.4627  1.2404  1.2306
19849TIP3   OH281037   3.211   6.157   1.043 -0.4318 -0.0756 -0.3113
19849TIP3    H181038   3.229   6.218   0.972 -0.7352 -0.2805 -0.5641
19849TIP3    H281039   3.296   6.140   1.082 -0.2718  0.0763 -0.5943
19850TIP3   OH281040   6.065   4.426  16.207  0.5783 -0.3937  0.0063
19850TIP3    H181041   6.146   4.451  16.251  0.7839  0.3056 -0.7444
19850TIP3    H281042   6.087   4.426  16.114 -0.0762 -0.9891 -0.1590
19851TIP3   OH281043   0.558   6.669  15.292 -0.3621 -0.1266  0.5538
19851TIP3    H181044   0.535   6.671  15.199 -1.4965  2.1532  0.8112
19851TIP3    H281045   0.648   6.638  15.294 -0.1913  0.1306 -1.3504
19852TIP3   OH281046   1.308   0.079   5.111  0.0578  0.4351 -0.2291
19852TIP3    H181047   1.279   0.024   5.039  0.0019  0.2477 -0.0635
19852TIP3    H281048   1.229   0.097   5.161  0.4712 -1.6750  1.3347
19853TIP3   OH281049   3.545   6.752   2.695 -0.5039  0.0604 -0.2954
19853TIP3    H181050   3.620   6.785   2.646  0.9538 -0.7411  1.2897
19853TIP3    H281051   3.532   6.663   2.661 -1.0563  0.3733 -0.9096
19854TIP3   OH281052   4.560   5.115   5.751  0.0474  0.4024 -0.0217
19854TIP3    H181053   4.528   5.204   5.743 -1.5478  0.1719  2.7033
19854TIP3    H281054   4.655   5.124   5.762  0.3258  1.4773 -2.6163
19855TIP3   OH281055   5.265   6.147   3.874 -0.0685  0.1418 -0.6183
19855TIP3    H181056   5.326   6.167   3.803  0.4596  1.2005  0.0959
19855TIP3    H281057   5.273   6.222   3.934 -0.4115 -0.7612  0.6015
19856TIP3   OH281058   6.279   2.734  11.251 -0.0475 -0.1938  0.3564
19856TIP3    H181059   6.318   2.814  11.215  1.8546 -0.8569  0.7839
19856TIP3    H281060   6.267   2.677  11.175  0.3839 -0.1888  0.2800
19857TIP3   OH281061   5.835   2.562  15.341  0.5847 -0.9683 -0.1230
19857TIP3    H181062   5.860   2.612  15.263 -0.1157  2.1687  1.5008
19857TIP3    H281063   5.789   2.486  15.306  0.6620  0.0634 -2.7748
19858TIP3   OH281064   4.750   5.661   0.312 -0.3743  0.2555  0.1477
19858TIP3    H181065   4.660   5.686   0.294 -0.2488  1.3455  0.9566
19858TIP3    H281066   4.799   5.743   0.307  0.4618 -0.2170  0.4140
19859TIP3   OH281067   3.038   3.979  16.523 -0.3471 -0.5054 -0.4010
19859TIP3    H181068   3.016   4.026  16.603  0.1159 -0.4307 -0.3096
19859TIP3    H281069   2.984   3.900  16.524 -0.7213 -0.2477 -0.2765
19860TIP3   OH281070   4.207   4.100   5.925  0.3432  0.1917 -0.1076
19860TIP3    H181071   4.133   4.039   5.928 -0.3924  0.9947 -1.4511
19860TIP3    H281072   4.217   4.129   6.016 -0.8424 -0.0841  0.1230
19861TIP3   OH281073   5.807   3.655   1.116  0.3279 -0.3321  0.2330
19861TIP3    H181074   5.845   3.741   1.135 -1.2292  0.5969 -0.6717
19861TIP3    H281075   5.851   3.596   1.177  2.1122  0.9289  0.2488
19862TIP3   OH281076   0.328   6.298   0.865 -0.0503  0.0032  0.1900
19862TIP3    H181077   0.395   6.317   0.930 -1.1845  0.4803  1.2454
19862TIP3    H281078   0.334   6.369   0.801 -0.2886  0.6655  0.8938
19863TIP3   OH281079   3.404   4.255   1.119 -0.2402  0.0716 -0.1183
19863TIP3    H181080   3.489   4.214   1.134 -0.8030 -0.7469  1.0107
19863TIP3    H281081   3.344   4.207   1.178 -1.2491  1.3934 -0.0330
19864TIP3   OH281082   3.770   5.143  15.021 -0.0868  0.3619 -0.0825
19864TIP3    H181083   3.679   5.164  14.999 -0.0430  0.8358  0.1826
19864TIP3    H281084   3.819   5.159  14.940 -0.2584 -0.0284 -0.2648
19865TIP3   OH281085   4.800   6.685  11.978  0.5300  0.2540  0.0985
19865TIP3    H181086   4.816   6.654  12.067 -1.5220 -0.0709  0.3872
19865TIP3    H281087   4.825   6.777  11.980 -1.0708  0.6895  1.4902
19866TIP3   OH281088   4.154   3.699   1.332 -0.6395  0.1161 -0.7666
19866TIP3    H181089   4.213   3.675   1.402 -1.3083 -1.1019 -0.5830
19866TIP3    H281090   4.067   3.702   1.373 -0.9655 -0.0644 -1.4199
19867TIP3   OH281091   5.643   1.096  12.612 -0.9455 -0.3533  0.1709
19867TIP3    H181092   5.736   1.078  12.616 -0.1162  3.3642  0.8477
19867TIP3    H281093   5.602   1.025  12.663  1.7866 -0.4218  2.4914
19868TIP3   OH281094   6.555   6.683   4.360 -0.2083 -0.3865  0.3236
19868TIP3    H181095   6.595   6.769   4.351  1.2577 -0.8806  1.6777
19868TIP3    H281096   6.461   6.701   4.368  0.0293  1.0384  0.2029
19869TIP3   OH281097   1.050   1.516   5.032 -0.4837 -0.2598 -0.3297
19869TIP3    H181098   1.069   1.517   4.938 -2.2557  1.0030 -0.7084
19869TIP3    H281099   1.006   1.432   5.046 -1.8122  0.2969 -0.9973
19870TIP3   OH281100   2.448   0.638   4.601 -0.4056 -0.7842 -0.6130
19870TIP3    H181101   2.390   0.712   4.617 -0.0181 -0.5698 -0.1762
19870TIP3    H281102   2.407   0.591   4.528 -1.0879 -0.6045 -0.3549
19871TIP3   OH281103   6.287   3.806  11.661  0.1479  0.2909  0.4788
19871TIP3    H181104   6.314   3.872  11.725  2.2016 -1.3249  1.3623
19871TIP3    H281105   6.364   3.792  11.607 -1.1626  0.6784 -1.6278
19872TIP3   OH281106   5.773   2.515   0.669  0.1498 -0.3666  0.4614
19872TIP3    H181107   5.860   2.532   0.707  0.2295 -3.2333  1.8013
19872TIP3    H281108   5.712   2.552   0.732  0.3418  0.2446  0.3034
19873TIP3   OH281109   2.133   0.018  16.081 -0.0549  0.4065 -0.1037
19873TIP3    H181110   2.083   0.027  16.000 -0.0483  0.1343 -0.1367
19873TIP3    H281111   2.097  -0.059  16.124 -0.2546  0.7162  0.2939
19874TIP3   OH281112   3.882   0.360   1.975  0.0136  0.4484  0.3395
19874TIP3    H181113   3.936   0.360   2.054 -0.7041 -1.4671  0.8933
19874TIP3    H281114   3.793   0.352   2.008 -0.3161 -0.0981 -0.6706
19875TIP3   OH281115   1.895   4.393   1.301  0.2255  0.3328 -0.2658
19875TIP3    H181116   1.820   4.437   1.341  0.8498  0.4454  0.8203
19875TIP3    H281117   1.887   4.413   1.207  0.2294  2.4060  0.1230
19876TIP3   OH281118   6.424   5.336  12.240 -0.4386 -0.4400  0.7390
19876TIP3    H181119   6.486   5.264  12.254  0.9415  0.1899 -1.6175
19876TIP3    H281120   6.468   5.413  12.275 -0.5443 -0.2533  0.4689
19877TIP3   OH281121   6.634   5.790  14.620  0.0783  0.3213 -0.2450
19877TIP3    H181122   6.662   5.699  14.609  1.4947  0.8211 -0.9829
19877TIP3    H281123   6.687   5.822  14.693  0.0440  0.7407 -0.4074
19878TIP3   OH281124   6.556   5.900   4.716 -0.5977 -0.3069 -0.5506
19878TIP3    H181125   6.624   5.835   4.698  1.1766  1.0539  0.7808
19878TIP3    H281126   6.587   5.979   4.671 -1.1616  0.4037  0.2759
19879TIP3   OH281127   6.132   3.066   4.615  0.4585  0.4221  0.7483
19879TIP3    H181128   6.071   3.108   4.676  1.5450  1.3173  1.2674
19879TIP3    H281129   6.081   2.998   4.573 -0.2641 -0.4547  2.9009
19880TIP3   OH281130   6.367   0.924  15.551 -0.4378  0.2650 -0.0964
19880TIP3    H181131   6.437   0.918  15.616 -0.8926  2.0007  0.6198
19880TIP3    H281132   6.400   0.986  15.487 -1.3487  1.2196  0.3302
19881TIP3   OH281133   1.143   2.972  12.229 -0.0261 -0.0001 -0.4186
19881TIP3    H181134   1.088   2.958  12.307  0.5321  0.9429  0.1691
19881TIP3    H281135   1.082   2.965  12.156 -0.5415 -1.0678  0.0773
19882TIP3   OH281136   2.127   3.112  11.431 -0.5267 -1.4573  0.1300
19882TIP3    H181137   2.207   3.156  11.460 -0.6004 -1.7130  0.7503
19882TIP3    H281138   2.111   3.046  11.499 -2.4181 -0.0447  1.1339
19883TIP3   OH281139   5.527   6.563   0.093  0.1354 -0.4335 -0.5330
19883TIP3    H181140   5.622   6.549   0.102  0.5404  1.0500 -2.0321
19883TIP3    H281141   5.514   6.655   0.118 -1.0885 -0.8982  0.6506
19884TIP3   OH281142   6.734   4.499   5.562 -0.3438 -0.3560  0.0621
19884TIP3    H181143   6.811   4.475   5.511 -0.9578 -0.6832 -0.7453
19884TIP3    H281144   6.666   4.436   5.534 -0.7893 -0.3294  1.0451
19885TIP3   OH281145   4.434   4.957   1.938  0.1304  0.5290  0.0407
19885TIP3    H181146   4.379   5.012   1.881 -2.1017  1.1392  2.5575
19885TIP3    H281147   4.501   5.017   1.971 -0.0162  0.7771 -0.1073
19886TIP3   OH281148   2.285   0.291   3.366 -0.2553  0.3120 -0.4164
19886TIP3    H181149   2.219   0.293   3.296 -1.7640  0.7285  0.9778
19886TIP3    H281150   2.263   0.213   3.416  2.0216 -1.1030 -1.4618
19887TIP3   OH281151   2.483   1.623   5.803  0.1453 -0.2641 -0.7175
19887TIP3    H181152   2.439   1.688   5.747 -0.0151  0.2703  0.0084
19887TIP3    H281153   2.417   1.555   5.816 -0.4766  0.4915  0.2936
19888TIP3   OH281154   1.925   1.498  11.446  0.1965  0.2964  0.9910
19888TIP3    H181155   1.942   1.488  11.540 -0.7725  2.1957  1.4176
19888TIP3    H281156   2.007   1.534  11.411  0.5665 -0.4327  1.0951
19889TIP3   OH281157   4.472   4.810   0.867 -0.5661 -0.3611  0.1125
19889TIP3    H181158   4.452   4.718   0.848 -0.2744 -0.3033 -0.4987
19889TIP3    H281159   4.546   4.831   0.811  0.1837 -0.1044  1.1739
19890TIP3   OH281160   4.909   3.403   0.598  0.0034 -0.1105  0.7269
19890TIP3    H181161   4.828   3.424   0.551 -0.8440  0.5033  2.3596
19890TIP3    H281162   4.979   3.421   0.535 -1.1333 -2.1443 -1.2514
19891TIP3   OH281163   4.031   3.843   5.925 -0.0840 -0.3487 -0.0185
19891TIP3    H181164   3.966   3.858   5.856 -0.1603 -1.3145 -0.1773
19891TIP3    H281165   3.979   3.831   6.005  0.0065  0.8157  0.2318
19892TIP3   OH281166   4.522   4.580   5.185 -0.5806  0.0981 -0.3786
19892TIP3    H181167   4.551   4.665   5.153 -2.4802  0.5784 -0.9838
19892TIP3    H281168   4.427   4.579   5.168 -0.7130 -1.8856  0.1792
19893TIP3   OH281169   6.473   1.323   2.817 -0.7766  0.0260 -0.6987
19893TIP3    H181170   6.409   1.343   2.748 -1.3558  1.3806  0.1902
19893TIP3    H281171   6.557   1.343   2.777 -0.9411 -0.9744 -1.6082
19894TIP3   OH281172   3.342   6.479  15.214 -0.4474 -0.4252 -0.3373
19894TIP3    H181173   3.267   6.539  15.216 -0.6436 -0.6738  0.5020
19894TIP3    H281174   3.379   6.490  15.127 -0.5467  0.8314 -0.2471
19895TIP3   OH281175   2.728   5.484   5.058  0.0823 -0.0569  0.2955
19895TIP3    H181176   2.676   5.437   5.122  1.0879  0.0883  1.2514
19895TIP3    H281177   2.817   5.448   5.068  0.4706  0.6977 -0.2963
19896TIP3   OH281178   5.963   3.669   2.001 -0.3768  0.0512 -0.0394
19896TIP3    H181179   5.958   3.577   1.976 -0.6429 -0.4501  1.7043
19896TIP3    H281180   5.983   3.667   2.095 -0.8558  1.7713  0.1332
19897TIP3   OH281181   2.479   6.453  15.336  0.4131 -0.3614  0.2356
19897TIP3    H181182   2.480   6.385  15.403  1.2555  0.2399  0.8546
19897TIP3    H281183   2.407   6.510  15.360  0.4987 -0.3371  0.4326
19898TIP3   OH281184   3.413   4.139  14.387 -0.9976 -0.3144 -0.3498
19898TIP3    H181185   3.429   4.226  14.422  0.0076  0.6578 -2.9760
19898TIP3    H281186   3.467   4.081  14.441 -0.3398  0.9354  0.3830
19899TIP3   OH281187   4.555   5.240  13.662  0.2711  0.4205  0.0132
19899TIP3    H181188   4.524   5.329  13.642 -1.0613  0.1793  0.9177
19899TIP3    H281189   4.520   5.221  13.748  1.2015 -0.7167  0.1637
19900TIP3   OH281190   3.621   1.108  13.383  0.0780  0.2716  0.5648
19900TIP3    H181191   3.607   1.189  13.334  0.6567 -0.2994 -0.5924
19900TIP3    H281192   3.699   1.124  13.435 -0.3326  0.7648  1.0313
19901TIP3   OH281193   1.210   4.565  14.087  0.3436 -0.4720 -0.4074
19901TIP3    H181194   1.257   4.517  14.156 -1.4216 -2.1960 -0.3313
19901TIP3    H281195   1.236   4.521  14.006 -1.3923 -1.7672 -0.3242
19902TIP3   OH281196   3.476   6.747   4.050  0.1503  0.3340  0.2953
19902TIP3    H181197   3.392   6.785   4.074 -0.5951 -1.3461  0.4730
19902TIP3    H281198   3.462   6.713   3.961  0.1742 -1.1914  0.8461
19903TIP3   OH281199   4.594   1.306   6.640  0.0454  0.3203 -0.4094
19903TIP3    H181200   4.506   1.341   6.626 -0.6027 -1.0114  0.1128
19903TIP3    H281201   4.616   1.330   6.730 -0.6825 -1.1163  0.1860
19904TIP3   OH281202   4.177   5.587   0.473  0.1451  0.1279 -0.2387
19904TIP3    H181203   4.099   5.588   0.528  1.1968 -0.9607  1.3582
19904TIP3    H281204   4.201   5.679   0.462 -0.7375  0.4121  0.1403
19905TIP3   OH281205   5.465   3.033   6.645 -0.6376 -0.4424 -0.1488
19905TIP3    H181206   5.433   3.044   6.735 -0.7538  0.3692 -0.2896
19905TIP3    H281207   5.387   3.031   6.591 -0.4908  1.6111 -0.4999
19906TIP3   OH281208   1.474   4.977  12.186  0.2542 -0.0186  0.3692
19906TIP3    H181209   1.543   4.910  12.185  1.3978  1.1098  1.4234
19906TIP3    H281210   1.394   4.928  12.201  0.2218 -1.8125 -4.0700
19907TIP3   OH281211   0.553   5.350  15.840 -0.2244  0.0183  0.6015
19907TIP3    H181212   0.641   5.368  15.874  0.2677  0.2099 -0.7127
19907TIP3    H281213   0.539   5.257  15.858  0.4374 -0.1227  0.4189
19908TIP3   OH281214   6.348   6.295   4.796  0.3414 -0.1033  0.1437
19908TIP3    H181215   6.391   6.359   4.852  0.4192 -0.6463  0.7188
19908TIP3    H281216   6.352   6.213   4.846 -1.1066 -0.2263  0.0864
19909TIP3   OH281217   4.896   1.096   0.932 -0.0079  0.0264  0.2350
19909TIP3    H181218   4.894   1.113   0.837 -1.1328 -0.1433  0.2050
19909TIP3    H281219   4.810   1.059   0.950  0.3962 -0.4293  1.2453
19910TIP3   OH281220   4.957   4.480   3.308 -0.0951 -0.5780 -0.0635
19910TIP3    H181221   4.873   4.469   3.352  0.7193 -0.1738  1.6538
19910TIP3    H281222   4.948   4.562   3.259 -0.4503 -0.1391  0.7205
19911TIP3   OH281223   1.168   3.097  13.290  0.9178 -0.0477 -0.0733
19911TIP3    H181224   1.246   3.057  13.251  0.6097 -2.0224  1.1869
19911TIP3    H281225   1.106   3.103  13.218  1.0015 -1.8766 -0.3365
19912TIP3   OH281226   6.547   1.353   6.017  0.0276 -0.3302 -0.2490
19912TIP3    H181227   6.607   1.336   5.944 -0.2591 -0.8786 -0.3570
19912TIP3    H281228   6.475   1.403   5.978  0.8158  1.1083  0.0478
19913TIP3   OH281229   6.001   4.513  14.160 -0.2093 -0.1042 -0.6327
19913TIP3    H181230   6.061   4.440  14.175 -0.2712 -0.0987 -0.3617
19913TIP3    H281231   5.946   4.515  14.238  0.5437  0.9622 -0.1056
19914TIP3   OH281232   3.047   4.555   0.485  0.6118 -0.2163 -0.3580
19914TIP3    H181233   3.051   4.496   0.561  2.0034  0.0631 -0.1796
19914TIP3    H281234   3.107   4.626   0.508  1.3572 -0.3195 -1.8655
19915TIP3   OH281235   3.737   2.745  15.107 -1.1152 -0.0148  0.0812
19915TIP3    H181236   3.705   2.739  15.197  0.2599 -1.1916  0.5290
19915TIP3    H281237   3.668   2.793  15.060 -2.2125 -0.0652  1.5731
19916TIP3   OH281238   4.415   2.001   1.517  0.4157 -0.0860 -0.7734
19916TIP3    H181239   4.428   1.907   1.529  0.5965  0.0209 -0.1536
19916TIP3    H281240   4.479   2.026   1.450  1.4393 -0.1085  0.1780
19917TIP3   OH281241   4.023   2.314   0.276  0.2462  0.0421 -0.2263
19917TIP3    H181242   4.050   2.405   0.285  0.0308  0.1857 -0.9303
19917TIP3    H281243   4.083   2.277   0.212  0.0913 -0.2026 -0.2331
19918TIP3   OH281244   3.785   5.571  13.195  0.1223  0.1842  0.3246
19918TIP3    H181245   3.838   5.511  13.142  1.7312  0.6600  1.3114
19918TIP3    H281246   3.712   5.595  13.138  1.4759  0.2465 -1.4838
19919TIP3   OH281247   4.598   0.445  15.222 -0.0486  0.0311  0.2797
19919TIP3    H181248   4.661   0.516  15.232 -0.0116  0.0844 -0.3284
19919TIP3    H281249   4.542   0.452  15.299  0.2251  0.4471  0.4434
19920TIP3   OH281250   6.642   3.202   3.306 -0.2258 -0.0619 -0.5243
19920TIP3    H181251   6.726   3.234   3.272  0.1456 -1.4901 -1.0401
19920TIP3    H281252   6.585   3.198   3.229  0.0362 -1.4934 -0.6758
19921TIP3   OH281253   1.450   5.663   0.448  0.0378  0.1951 -0.6389
19921TIP3    H181254   1.388   5.629   0.513  0.4176  2.2679  0.9132
19921TIP3    H281255   1.534   5.623   0.472  0.2367  1.1698  0.3982
19922TIP3   OH281256   0.083   6.798   2.518 -0.1845 -0.3312  0.3204
19922TIP3    H181257   0.103   6.887   2.547  0.2915 -0.3056 -0.0617
19922TIP3    H281258   0.037   6.758   2.591  2.0890 -0.6674  1.6616
19923TIP3   OH281259   1.222   6.706   3.999  0.5931  0.2596 -0.7921
19923TIP3    H181260   1.275   6.707   4.078  0.9896  1.6029 -1.0535
19923TIP3    H281261   1.132   6.692   4.030  0.9347 -0.8040 -0.2553
19924TIP3   OH281262   0.455   6.476   3.868  0.2618  0.4565  0.1929
19924TIP3    H181263   0.471   6.386   3.839  2.3068 -0.1450  2.8232
19924TIP3    H281264   0.382   6.469   3.930  3.4274 -0.4432  4.2256
19925TIP3   OH281265   6.110   2.982  13.313  0.1472 -0.3801 -0.2665
19925TIP3    H181266   6.041   2.949  13.256 -0.4253 -0.3419  0.3971
19925TIP3    H281267   6.103   2.930  13.392 -0.3917  0.9111  0.5703
19926TIP3   OH281268   0.753   2.052   3.449  0.4207 -0.3149  0.1557
19926TIP3    H181269   0.796   1.982   3.399 -1.6574 -0.5094 -1.5177
19926TIP3    H281270   0.677   2.010   3.489 -0.9984  0.9523 -1.0619
19927TIP3   OH281271   5.723   3.720  16.093 -1.0269  0.4386 -0.5460
19927TIP3    H181272   5.771   3.639  16.108 -0.7801  0.4983 -0.9903
19927TIP3    H281273   5.735   3.771  16.173  0.3486  0.7994 -0.9486
19928TIP3   OH281274   4.385   3.650  13.757  0.5801  0.3010 -0.1030
19928TIP3    H181275   4.334   3.626  13.835  2.3313 -1.6170  0.5690
19928TIP3    H281276   4.476   3.643  13.786  1.3981 -2.6748 -2.8192
19929TIP3   OH281277   0.560   2.021  11.885  0.7621 -0.0286 -0.6773
19929TIP3    H181278   0.643   1.979  11.860  1.8037 -0.1749  2.4664
19929TIP3    H281279   0.515   1.954  11.937 -1.4596  0.0157 -2.4192
19930TIP3   OH281280   6.390   5.794   0.062 -0.2152  0.3015 -0.1811
19930TIP3    H181281   6.369   5.850   0.137  0.1647 -0.7984  0.7753
19930TIP3    H281282   6.482   5.770   0.075 -0.0760  0.2995 -1.1419
19931TIP3   OH281283   5.525   0.834   0.041  0.0045 -0.0735 -0.1447
19931TIP3    H181284   5.521   0.860   0.133  1.0586  0.5162 -0.2423
19931TIP3    H281285   5.534   0.916  -0.006  1.6960 -0.4876 -0.5984
19932TIP3   OH281286   5.312   2.425   4.946  0.1517 -0.0224  0.2667
19932TIP3    H181287   5.280   2.513   4.926  0.0253 -0.4498 -1.5055
19932TIP3    H281288   5.239   2.382   4.990 -2.0364 -1.0793 -3.9336
19933TIP3   OH281289   0.494   2.883  12.978 -0.3267 -0.2859  0.3970
19933TIP3    H181290   0.494   2.927  13.063  2.6130  1.9981 -0.6261
19933TIP3    H281291   0.488   2.954  12.914  2.2866 -1.4742 -1.3364
19934TIP3   OH281292   0.087   6.146   2.070  0.5698 -0.2856 -0.5730
19934TIP3    H181293   0.175   6.110   2.084  0.7522 -0.1654 -1.3700
19934TIP3    H281294   0.045   6.084   2.011  0.3448 -0.0080 -0.7052
19935TIP3   OH281295   4.225   1.685   3.770  0.3208 -0.3837 -0.4157
19935TIP3    H181296   4.173   1.622   3.719 -0.7498 -0.8144  1.1509
19935TIP3    H281297   4.302   1.700   3.716  0.1530 -2.2892 -1.2961
19936TIP3   OH281298   1.334   5.508  11.801 -0.6662 -0.1882 -0.6729
19936TIP3    H181299   1.296   5.502  11.713 -1.4226 -0.8608 -0.3145
19936TIP3    H281300   1.273   5.459  11.856  0.7412 -1.3275 -0.0734
19937TIP3   OH281301   3.471   5.125  15.035 -0.0347 -0.7963  0.4771
19937TIP3    H181302   3.420   5.203  15.011 -0.8581 -1.2841  0.6048
19937TIP3    H281303   3.492   5.137  15.127 -0.6980 -0.9984  0.6664
19938TIP3   OH281304   1.090   2.589  16.393 -0.4884  0.1047  0.0024
19938TIP3    H181305   1.110   2.517  16.333  0.7629  0.9639 -0.6719
19938TIP3    H281306   1.102   2.552  16.480 -1.5432 -0.9508 -0.2875
19939TIP3   OH281307   1.798   5.476   0.826 -0.9016 -0.3675  0.1815
19939TIP3    H181308   1.780   5.532   0.902 -0.5429 -1.2464  0.9295
19939TIP3    H281309   1.792   5.535   0.751  3.1089  1.6103  1.1333
19940TIP3   OH281310   1.333   2.695  11.467 -0.0152 -0.1768  0.3342
19940TIP3    H181311   1.355   2.613  11.422 -0.2377  0.2849 -0.6244
19940TIP3    H281312   1.261   2.671  11.526 -0.4981 -0.5467 -0.3925
19941TIP3   OH281313   2.590   0.361  15.242 -0.2900 -0.7251 -0.0298
19941TIP3    H181314   2.629   0.445  15.267 -1.4976 -0.2626  0.3794
19941TIP3    H281315   2.625   0.299  15.306 -1.5476  0.0182  1.4579
19942TIP3   OH281316   1.501   0.415  15.916  0.3381 -0.3641  0.3550
19942TIP3    H181317   1.442   0.393  15.844 -1.3774  0.5540  1.4099
19942TIP3    H281318   1.477   0.354  15.985  1.2074 -0.5117  0.5366
19943TIP3   OH281319   1.422   4.144  14.628  0.3690  0.1320  0.2803
19943TIP3    H181320   1.333   4.147  14.593  0.3226  1.8038  0.4487
19943TIP3    H281321   1.411   4.161  14.722  0.6969 -1.9145  0.7288
19944TIP3   OH281322   1.264   4.497   3.226  0.3417  0.1863 -0.0138
19944TIP3    H181323   1.299   4.584   3.243  2.0083 -0.1217 -1.6729
19944TIP3    H281324   1.309   4.467   3.147  2.4746 -3.5930  2.3335
19945TIP3   OH281325   2.878   2.400   3.467 -0.0872 -0.6805  0.3843
19945TIP3    H181326   2.917   2.379   3.382 -1.3485 -0.4252 -0.2816
19945TIP3    H281327   2.793   2.355   3.466 -0.9307  0.8385  0.7208
19946TIP3   OH281328   2.335   3.133   1.044 -0.4485  0.1763 -0.5429
19946TIP3    H181329   2.244   3.107   1.058 -0.2229 -0.4473 -0.1570
19946TIP3    H281330   2.368   3.068   0.981  0.2108 -0.7021  0.6612
19947TIP3   OH281331   0.875   2.399   3.564 -0.2515  0.0084 -0.5042
19947TIP3    H181332   0.797   2.397   3.509 -0.1482  0.7447 -0.7010
19947TIP3    H281333   0.897   2.307   3.579  0.0557 -0.2284 -2.2022
19948TIP3   OH281334   3.326   2.593  16.853  0.0867  0.5097 -0.9494
19948TIP3    H181335   3.405   2.539  16.852 -0.1745  0.0087  0.9397
19948TIP3    H281336   3.353   2.676  16.814  1.2615 -0.0047 -1.2612
19949TIP3   OH281337   3.199   4.079  15.562  0.0344  0.7177  0.4288
19949TIP3    H181338   3.223   4.166  15.530  0.1431  0.9467  1.1102
19949TIP3    H281339   3.158   4.036  15.487  1.2866  0.8287 -0.3427
19950TIP3   OH281340   4.603   3.053   3.700 -0.2457 -0.3858  0.5399
19950TIP3    H181341   4.509   3.044   3.715  0.1051 -1.4355  2.4144
19950TIP3    H281342   4.628   2.970   3.658  0.0937 -0.8612  1.6359
19951TIP3   OH281343   1.148   0.229   1.547  0.2333 -0.1060  0.5217
19951TIP3    H181344   1.114   0.268   1.627 -2.6583  0.3172 -0.7966
19951TIP3    H281345   1.139   0.135   1.560  0.0011 -0.0497  0.7650
19952TIP3   OH281346   3.804   0.483   3.832 -0.1919  0.9239 -0.4166
19952TIP3    H181347   3.739   0.413   3.833 -0.0057  0.7501 -0.3002
19952TIP3    H281348   3.844   0.478   3.745 -0.2589  0.9603 -0.4495
19953TIP3   OH281349   4.453   2.425   4.553  0.2869  0.8591 -0.3420
19953TIP3    H181350   4.379   2.442   4.611  0.9628 -2.0280  1.5865
19953TIP3    H281351   4.487   2.512   4.531 -1.7423  2.1535  1.2855
19954TIP3   OH281352   2.246   0.677   6.858 -0.4934 -0.3932 -0.4992
19954TIP3    H181353   2.216   0.743   6.795 -0.6190 -0.3991 -0.4469
19954TIP3    H281354   2.292   0.727   6.926 -1.3948 -0.2537  0.0251
19955TIP3   OH281355   3.666   3.529  15.667  0.2402 -0.1342  0.1822
19955TIP3    H181356   3.610   3.578  15.727 -0.0166 -1.7223  1.3191
19955TIP3    H281357   3.607   3.494  15.601  0.3148  0.4595 -0.2036
19956TIP3   OH281358   5.269   3.032   1.732 -0.0434 -0.0445  0.2673
19956TIP3    H181359   5.236   3.107   1.782 -1.0067  0.6950 -1.3910
19956TIP3    H281360   5.356   3.059   1.703 -0.8783  1.0132 -1.3909
19957TIP3   OH281361   2.934   6.055  17.093 -0.6116 -0.0653 -0.1158
19957TIP3    H181362   2.903   5.967  17.116  0.4877 -0.1893  0.9990
19957TIP3    H281363   2.939   6.054  16.998  1.8177 -2.1247 -0.0586
19958TIP3   OH281364   4.108   2.973   4.796  0.2735 -0.0594 -1.0644
19958TIP3    H181365   4.180   2.999   4.853 -0.4626 -0.2520 -0.0137
19958TIP3    H281366   4.143   2.900   4.745  0.3510 -1.2702  0.6117
19959TIP3   OH281367   0.196   3.237  10.641 -0.3521  0.9181 -0.2680
19959TIP3    H181368   0.288   3.245  10.619  0.3592 -0.7683  1.7516
19959TIP3    H281369   0.168   3.156  10.597  0.0221 -0.2808  1.6036
19960TIP3   OH281370   3.595   3.341   1.697 -0.0588 -0.5243  0.1918
19960TIP3    H181371   3.636   3.255   1.706  0.7300 -0.1399  0.3423
19960TIP3    H281372   3.556   3.358   1.783  1.1707 -0.0426  0.6729
19961TIP3   OH281373   4.830   3.688  11.221 -0.1404 -0.3078  0.1565
19961TIP3    H181374   4.805   3.780  11.212  0.7677 -0.1349 -0.8908
19961TIP3    H281375   4.764   3.640  11.172 -0.8892 -0.2687  1.1083
19962TIP3   OH281376   5.813   4.365  11.448  0.0167 -0.0241 -0.2741
19962TIP3    H181377   5.823   4.326  11.535 -3.0897  0.8242  0.5907
19962TIP3    H281378   5.875   4.438  11.447  0.5795 -0.4562  0.9690
19963TIP3   OH281379   5.282   0.875  11.614  0.1060  0.0364 -0.5081
19963TIP3    H181380   5.334   0.845  11.539  1.4084  1.2797 -0.1621
19963TIP3    H281381   5.235   0.797  11.643  2.4374 -1.4374 -0.3562
19964TIP3   OH281382   2.663   0.511  16.230  0.5390 -0.5198  0.5169
19964TIP3    H181383   2.569   0.522  16.214  0.7600 -0.1758 -0.6320
19964TIP3    H281384   2.704   0.583  16.183  1.4513 -1.3189  0.0611
19965TIP3   OH281385   0.190   3.358  11.136 -0.2143  0.4105  0.0959
19965TIP3    H181386   0.131   3.351  11.211  0.2281  2.3724  0.6925
19965TIP3    H281387   0.132   3.356  11.059 -1.1221  2.3115  0.6640
19966TIP3   OH281388   5.480   1.576   2.063 -0.0255  0.3847 -0.3457
19966TIP3    H181389   5.445   1.613   2.144 -0.1262  0.4005 -0.3976
19966TIP3    H281390   5.454   1.637   1.995 -0.4071  0.0913 -0.4655
19967TIP3   OH281391   2.298   2.035  14.124  0.0180 -0.1706  0.0624
19967TIP3    H181392   2.324   2.113  14.173 -1.8893 -0.2179  1.2877
19967TIP3    H281393   2.202   2.038  14.124 -0.1021 -0.4026 -3.3867
19968TIP3   OH281394   5.484   4.417   3.681  1.0100 -0.2881  0.5155
19968TIP3    H181395   5.481   4.479   3.754  1.1884 -0.2661  0.5057
19968TIP3    H281396   5.548   4.454   3.620 -1.0833  1.0819 -0.9535
19969TIP3   OH281397   0.671   2.537   5.410 -0.3476  0.0264 -0.1903
19969TIP3    H181398   0.596   2.486   5.379 -0.7062  0.0520  0.5942
19969TIP3    H281399   0.649   2.627   5.388  0.5169 -0.1677 -2.0389
19970TIP3   OH281400   1.999   2.461  11.510  0.1669 -0.9998 -0.0879
19970TIP3    H181401   2.041   2.399  11.569 -0.9439 -0.9421  0.7854
19970TIP3    H281402   2.071   2.508  11.469  0.9706 -1.6159  0.5998
19971TIP3   OH281403   3.933   1.377  12.699 -0.3221  0.2127  0.1337
19971TIP3    H181404   3.927   1.423  12.783  0.1939  0.9039 -0.2012
19971TIP3    H281405   4.000   1.424  12.650 -1.2580  0.3917 -1.0275
19972TIP3   OH281406   3.213   5.576   5.409 -0.0808  0.0271 -0.1782
19972TIP3    H181407   3.177   5.531   5.332  0.5539  0.4687 -0.7380
19972TIP3    H281408   3.255   5.507   5.460 -0.2003 -0.2081 -0.3969
19973TIP3   OH281409   5.834   3.320   1.662 -0.2045  0.1677 -0.2401
19973TIP3    H181410   5.797   3.402   1.629  0.1811 -0.1300 -1.4629
19973TIP3    H281411   5.769   3.253   1.641  0.9394 -0.3516 -2.3716
19974TIP3   OH281412   5.837   1.408  15.987  0.1953 -0.0332 -0.2270
19974TIP3    H181413   5.923   1.447  15.971  0.0557  0.1392 -0.5551
19974TIP3    H281414   5.777   1.458  15.932  0.0629 -0.9530 -0.9432
19975TIP3   OH281415   3.648   3.725   4.013 -0.1750 -0.0901 -0.4974
19975TIP3    H181416   3.663   3.656   3.948  0.2478 -0.0552 -0.4412
19975TIP3    H281417   3.732   3.735   4.057 -0.1082  0.7619 -0.7967
19976TIP3   OH281418   4.476   6.759  16.393  0.3068 -0.4912 -0.4352
19976TIP3    H181419   4.533   6.692  16.432 -1.2624 -1.1397  0.8443
19976TIP3    H281420   4.493   6.838  16.445  0.1748 -0.6277 -0.1866
19977TIP3   OH281421   4.567   0.518   1.276 -0.1990  0.2150  0.0740
19977TIP3    H181422   4.557   0.498   1.183  0.0514  2.5796 -0.5261
19977TIP3    H281423   4.528   0.444   1.321 -0.2097 -1.0526 -1.9047
19978TIP3   OH281424   3.189   5.543  15.321 -0.2511 -0.0565 -0.3997
19978TIP3    H181425   3.175   5.598  15.244  0.8738  0.9390  0.0884
19978TIP3    H281426   3.259   5.484  15.297  0.0532  0.2075 -0.1701
19979TIP3   OH281427   6.313   5.308   4.397 -0.3055 -0.2281  0.4067
19979TIP3    H181428   6.372   5.285   4.325 -0.3888  0.4928  0.0950
19979TIP3    H281429   6.367   5.363   4.455 -0.9197  1.3096 -0.4027
19980TIP3   OH281430   2.512   0.414   1.257 -0.2046  0.3834  0.0569
19980TIP3    H181431   2.577   0.357   1.297 -0.7470  0.2788  0.8229
19980TIP3    H281432   2.546   0.503   1.273  0.1994  0.3078 -0.3584
19981TIP3   OH281433   0.076   1.888   1.323  0.1884 -0.0618 -0.3610
19981TIP3    H181434   0.161   1.923   1.297 -0.3405  0.9425 -0.8106
19981TIP3    H281435   0.096   1.822   1.389  1.3398 -0.1592 -0.7874
19982TIP3   OH281436   4.294   6.779  12.364  0.5575  0.6549 -0.2431
19982TIP3    H181437   4.383   6.757  12.335  0.8571  0.5106  0.7292
19982TIP3    H281438   4.262   6.698  12.403  0.4634  1.0494  0.5131
19983TIP3   OH281439   1.714   2.320  12.315  0.0611  0.0006  0.3782
19983TIP3    H181440   1.770   2.297  12.240 -0.4826 -0.2621  0.0441
19983TIP3    H281441   1.775   2.333  12.387  0.7289  1.6566 -0.4295
19984TIP3   OH281442   2.119   6.637  16.763 -0.2694 -0.0152  0.7360
19984TIP3    H181443   2.168   6.658  16.842  0.8127  3.0968 -0.5926
19984TIP3    H281444   2.163   6.687  16.693 -2.1973 -1.2424 -1.5080
19985TIP3   OH281445   2.835   4.375   3.697  0.1235  0.0680 -0.0001
19985TIP3    H181446   2.785   4.296   3.680 -1.7543  0.7892  1.7445
19985TIP3    H281447   2.914   4.366   3.643 -0.5378 -2.4467 -0.6730
19986TIP3   OH281448   4.998   2.017  14.806 -0.1695 -0.3710  0.4623
19986TIP3    H181449   4.921   2.040  14.753  1.2298  1.1522 -1.0541
19986TIP3    H281450   4.962   1.991  14.891 -2.4868 -2.1708 -0.9392
19987TIP3   OH281451   4.544   1.443  13.106  0.3804  0.6015 -0.0932
19987TIP3    H181452   4.619   1.503  13.099  0.9775  0.0888  1.4636
19987TIP3    H281453   4.556   1.400  13.191 -0.6627 -0.8901 -0.6687
19988TIP3   OH281454   2.122   3.942  17.284 -0.0492  0.0645  0.0826
19988TIP3    H181455   2.195   3.986  17.327 -0.2884 -0.9903  1.6549
19988TIP3    H281456   2.046   3.998  17.301  0.0707  0.2509  0.0025
19989TIP3   OH281457   4.000   6.079  17.119  0.1642 -0.1869 -0.4663
19989TIP3    H181458   3.976   5.989  17.100 -1.6551  0.0505  0.4973
19989TIP3    H281459   4.036   6.112  17.036  0.2974 -1.6018 -0.9959
19990TIP3   OH281460   1.917   1.545   3.009 -0.2251  0.5774 -0.5227
19990TIP3    H181461   1.929   1.627   3.056 -0.9565  0.0535  0.6158
19990TIP3    H281462   1.830   1.553   2.969 -0.2801  0.3806 -0.4442
19991TIP3   OH281463   6.175   5.451   2.154  0.0846 -0.2097  0.8421
19991TIP3    H181464   6.174   5.519   2.086  0.4701  0.6456  1.6643
19991TIP3    H281465   6.258   5.405   2.140  0.1508 -0.0563  0.7133
19992TIP3   OH281466   5.188   6.390   4.590  0.1578 -0.3215  0.0083
19992TIP3    H181467   5.113   6.353   4.543 -0.4305 -0.7297  1.2406
19992TIP3    H281468   5.187   6.483   4.566 -1.0111 -0.2275  0.3549
19993TIP3   OH281469   1.760   4.270  11.261  0.1469  0.4592  0.1910
19993TIP3    H181470   1.718   4.356  11.259  0.4605  0.6566  1.3515
19993TIP3    H281471   1.808   4.265  11.179 -0.6236  1.0073 -0.3003
19994TIP3   OH281472   6.725   6.556  13.029 -0.3983 -0.0122 -0.0722
19994TIP3    H181473   6.778   6.526  12.955  1.8612  1.0678  1.0104
19994TIP3    H281474   6.712   6.649  13.012  1.5656  0.6416  1.5871
19995TIP3   OH281475   6.820   3.947   2.412 -0.6105  0.0764  0.2328
19995TIP3    H181476   6.794   3.891   2.485 -3.0971  1.0204  0.1595
19995TIP3    H281477   6.913   3.929   2.400  0.6154  1.7105  5.2250
19996TIP3   OH281478   0.212   5.718   4.829  0.1348  0.5655 -0.4413
19996TIP3    H181479   0.243   5.805   4.806 -0.1683  1.0204  0.7883
19996TIP3    H281480   0.141   5.733   4.891 -1.1902 -0.5083 -1.6136
19997TIP3   OH281481   4.680   5.917  15.337 -0.6980 -0.3645  0.1179
19997TIP3    H181482   4.599   5.931  15.385 -1.4121  0.1111 -1.1691
19997TIP3    H281483   4.652   5.906  15.246  0.6840 -0.1827 -0.3461
19998TIP3   OH281484   6.308   6.777   4.424  0.3605 -0.4128  0.8222
19998TIP3    H181485   6.241   6.771   4.492 -2.2686 -0.9574 -1.6340
19998TIP3    H281486   6.293   6.863   4.384  1.8034 -0.1361  0.8258
19999TIP3   OH281487   1.361   0.542  16.488 -0.0981 -0.3175 -0.6882
19999TIP3    H181488   1.352   0.603  16.415  1.3153 -1.8318 -2.2411
19999TIP3    H281489   1.430   0.481  16.459 -0.2859 -1.6440  1.4582
20000TIP3   OH281490   3.655   3.807  12.168  0.2307 -0.6096 -0.3161
20000TIP3    H181491   3.700   3.886  12.199  0.8287  0.1040 -2.7536
20000TIP3    H281492   3.575   3.803  12.220  0.0192  1.8116 -0.3174
20001TIP3   OH281493   0.245   1.538   2.271  0.2921 -0.2144 -0.1195
20001TIP3    H181494   0.338   1.521   2.287  0.5211 -0.5136 -1.6341
20001TIP3    H281495   0.220   1.474   2.204 -0.7291  0.5626 -0.5070
20002TIP3   OH281496   1.510   5.435  11.128 -0.5233  0.0676 -0.4830
20002TIP3    H181497   1.524   5.529  11.115  2.4353 -0.3841 -1.5120
20002TIP3    H281498   1.565   5.394  11.061  0.1657 -2.4055  1.4440
20003TIP3   OH281499   5.974   2.908   2.460  0.3224 -0.0300 -0.9984
20003TIP3    H181500   6.068   2.924   2.463  0.6814 -1.9657 -0.5395
20003TIP3    H281501   5.966   2.821   2.422 -0.9591 -1.9689  3.1309
20004TIP3   OH281502   3.548   5.041  14.634 -0.0258  0.2174  0.3332
20004TIP3    H181503   3.473   5.029  14.692 -0.6738  1.2169 -0.2695
20004TIP3    H281504   3.527   4.988  14.557 -0.0752  0.4140  0.2089
20005TIP3   OH281505   1.908   3.108   2.143  0.7243  0.0867 -0.1730
20005TIP3    H181506   1.815   3.086   2.147  0.9240 -0.6108  1.5071
20005TIP3    H281507   1.917   3.159   2.063 -1.4813  1.9465  0.6595
20006TIP3   OH281508   4.546   0.515  15.497 -0.2634  0.2894  0.2622
20006TIP3    H181509   4.481   0.451  15.528 -0.1794  0.0947  0.0423
20006TIP3    H281510   4.627   0.465  15.491 -0.1700  0.4499  0.2123
20007TIP3   OH281511   5.060   2.601   2.368 -0.1697  0.4704 -0.1962
20007TIP3    H181512   5.019   2.582   2.283  1.7716 -1.6372 -0.7706
20007TIP3    H281513   5.098   2.688   2.357  0.9252 -0.1773 -1.9087
20008TIP3   OH281514   4.187   0.021   3.817 -0.3780  0.1242  0.1556
20008TIP3    H181515   4.167  -0.033   3.740  1.6937  1.9518 -1.8227
20008TIP3    H281516   4.267  -0.018   3.853 -0.1662  0.5018  0.0979
20009TIP3   OH281517   2.715   4.235   3.005 -0.6257  0.1530 -0.1613
20009TIP3    H181518   2.705   4.147   2.968  0.7664  0.0887 -0.4622
20009TIP3    H281519   2.810   4.248   3.010 -0.7934  1.7500 -0.4059
20010TIP3   OH281520   6.820   0.312  14.744 -0.2597 -0.2391  0.3828
20010TIP3    H181521   6.769   0.380  14.699  0.8610 -0.2291 -0.9287
20010TIP3    H281522   6.779   0.230  14.717 -0.4424 -0.1750  0.4597
20011TIP3   OH281523   3.582   1.575   2.210  0.1992  0.1461  0.5863
20011TIP3    H181524   3.588   1.517   2.134 -0.7052 -0.1552  0.7321
20011TIP3    H281525   3.665   1.563   2.255  0.2298 -0.6598  0.3429
20012TIP3   OH281526   4.673   0.920  12.860  0.8724 -0.1882  0.1271
20012TIP3    H181527   4.641   0.957  12.777  0.9627 -0.8233 -0.1953
20012TIP3    H281528   4.713   0.994  12.905  2.8883 -0.2641 -1.3971
20013TIP3   OH281529   1.375   3.274  15.641  0.0241  0.4828  0.2707
20013TIP3    H181530   1.316   3.261  15.567  0.1461  1.3489  0.0085
20013TIP3    H281531   1.334   3.226  15.713  0.0487 -0.6065 -0.4146
20014TIP3   OH281532   4.779   0.668   1.102 -0.9861 -0.4457  0.0336
20014TIP3    H181533   4.803   0.690   1.192 -2.0866 -0.6953  0.3958
20014TIP3    H281534   4.817   0.582   1.088 -1.3621 -0.6908  0.4866
20015TIP3   OH281535   4.468   2.090  15.947 -0.1653  0.1520  0.3358
20015TIP3    H181536   4.460   2.003  15.909 -0.4330  0.0025  0.7349
20015TIP3    H281537   4.416   2.087  16.027 -0.9707  0.9629 -0.1330
20016TIP3   OH281538   0.010   5.053  16.694  0.5346 -0.2307 -0.7041
20016TIP3    H181539   0.008   4.974  16.641  1.0421  0.0727 -1.1856
20016TIP3    H281540   0.094   5.050  16.740  1.0317  0.5296 -1.5247
20017TIP3   OH281541   1.897   3.232   0.684  0.9385 -1.3893 -0.4245
20017TIP3    H181542   1.805   3.254   0.690  0.9364 -1.2337 -0.9580
20017TIP3    H281543   1.907   3.153   0.738  0.9821 -0.0490  1.6323
20018TIP3   OH281544   1.781   1.985  14.425  0.3780 -0.1393  0.0314
20018TIP3    H181545   1.764   2.056  14.363 -0.2109 -0.8459 -0.6394
20018TIP3    H281546   1.806   2.029  14.506  0.8432  0.8070 -0.6169
20019TIP3   OH281547   4.749   6.063  11.304  0.5843 -0.2564  0.0826
20019TIP3    H181548   4.825   6.121  11.310  1.0245 -0.2149 -3.4134
20019TIP3    H281549   4.784   5.981  11.269 -0.8790 -0.3633 -1.2579
20020TIP3   OH281550   0.100   3.819   1.269 -0.3635 -0.2933  0.6607
20020TIP3    H181551   0.096   3.791   1.178 -0.7528 -0.2397  0.6630
20020TIP3    H281552   0.062   3.746   1.318 -0.5972 -0.1166  0.7408
20021TIP3   OH281553   3.305   6.179   2.649  0.3687 -0.1641  0.6574
20021TIP3    H181554   3.357   6.224   2.583 -1.0739 -0.4951 -0.7670
20021TIP3    H281555   3.308   6.087   2.623 -1.5239 -0.0999  0.0649
20022TIP3   OH281556   4.726   5.516   1.097 -0.6314  0.0958 -0.4757
20022TIP3    H181557   4.769   5.489   1.016  0.3286 -0.2130  0.1152
20022TIP3    H281558   4.634   5.493   1.084  0.0631 -3.4773 -0.0838
20023TIP3   OH281559   2.823   0.038  16.431 -0.4347  0.6322  0.7658
20023TIP3    H181560   2.840  -0.035  16.491 -0.2718 -0.1289 -0.1874
20023TIP3    H281561   2.735   0.067  16.453 -0.0720  0.9282  1.9410
20024TIP3   OH281562   3.821   5.104   6.451 -0.3941  0.5415 -0.2563
20024TIP3    H181563   3.886   5.034   6.447 -1.5090 -0.5668  0.3223
20024TIP3    H281564   3.806   5.127   6.359  2.1383  2.1602 -0.3596
20025TIP3   OH281565   2.937   2.149  12.582  0.4305  0.3142 -0.6178
20025TIP3    H181566   2.905   2.232  12.619  0.4557  0.3951 -0.7800
20025TIP3    H281567   3.032   2.151  12.596  0.4106  0.2326 -0.4607
20026TIP3   OH281568   2.607   0.887  15.254 -0.3491 -0.3394 -0.1937
20026TIP3    H181569   2.651   0.861  15.173 -1.7889  0.8823 -1.4327
20026TIP3    H281570   2.525   0.836  15.254 -1.3831  1.2315 -0.6886
20027TIP3   OH281571   4.851   3.163  16.388 -0.2502 -0.3974  0.4861
20027TIP3    H181572   4.863   3.083  16.336  0.0211  1.0731 -1.8541
20027TIP3    H281573   4.936   3.178  16.429 -0.3240 -1.3118  1.0005
20028TIP3   OH281574   0.906   3.671   5.783 -0.1982  0.4289  0.5112
20028TIP3    H181575   0.908   3.763   5.808  0.8013  0.5169  0.1377
20028TIP3    H281576   0.972   3.663   5.714  1.0901 -0.9453  1.8430
20029TIP3   OH281577   2.142   0.601  14.209 -0.3833 -0.2088  0.1341
20029TIP3    H181578   2.050   0.619  14.228 -0.6121 -1.9695  0.9826
20029TIP3    H281579   2.148   0.505  14.208  1.5749 -0.1502  0.8587
20030TIP3   OH281580   3.968   4.097  13.695  0.3147  0.8509  0.0820
20030TIP3    H181581   3.877   4.090  13.668 -0.4409  0.8063  2.4494
20030TIP3    H281582   4.017   4.105  13.613 -1.7976  0.9034 -1.2343
20031TIP3   OH281583   4.502   2.936   1.624  0.0225  0.0614  0.7615
20031TIP3    H181584   4.508   3.000   1.695 -0.0427  1.0752 -0.1220
20031TIP3    H281585   4.440   2.975   1.562 -1.6506 -1.7988  1.1380
20032TIP3   OH281586   6.011   6.686   1.460  0.2542 -0.5128  0.3381
20032TIP3    H181587   6.035   6.654   1.373  0.9407  0.1421  0.2705
20032TIP3    H281588   5.987   6.778   1.445 -0.2626 -0.5809  0.7425
20033TIP3   OH281589   2.054   3.743  10.938  0.3364  0.2454 -0.3245
20033TIP3    H181590   2.144   3.733  10.908  0.4171 -0.5107  0.1458
20033TIP3    H281591   2.054   3.823  10.990  0.5368  0.7172 -1.0388
20034TIP3   OH281592   0.149   1.387   4.881 -0.2889  0.3128  0.0497
20034TIP3    H181593   0.092   1.395   4.957 -1.2196  0.9267 -0.6802
20034TIP3    H281594   0.112   1.314   4.831 -0.7184  0.9687 -0.6294
20035TIP3   OH281595   1.906   3.900  16.863 -0.0132 -0.3054 -0.2177
20035TIP3    H181596   1.880   3.923  16.773  1.1286  0.1532 -0.4470
20035TIP3    H281597   2.001   3.895  16.860  0.2085  1.5743  1.3876
20036TIP3   OH281598   5.196   4.298   6.704 -0.7173 -0.7827  0.2331
20036TIP3    H181599   5.289   4.321   6.696 -0.5771 -1.6015 -0.7784
20036TIP3    H281600   5.150   4.380   6.693 -0.1478 -0.5836 -0.8532
20037TIP3   OH281601   4.850   6.325   2.096  0.2694 -0.4184  0.1813
20037TIP3    H181602   4.766   6.340   2.052  0.0564 -0.2741  0.6314
20037TIP3    H281603   4.847   6.383   2.172 -0.2084 -2.0972  1.5027
20038TIP3   OH281604   6.624   1.578  13.073 -0.1798 -0.3860 -0.4531
20038TIP3    H181605   6.578   1.653  13.035 -0.9264 -0.1171  0.9015
20038TIP3    H281606   6.696   1.560  13.012  0.1015  1.5169 -0.7400
20039TIP3   OH281607   5.465   6.088   2.575 -0.4660  0.2959 -0.0271
20039TIP3    H181608   5.559   6.071   2.567 -0.3799  0.7492 -0.0285
20039TIP3    H281609   5.440   6.122   2.489 -0.6064  0.2948  0.0128
20040TIP3   OH281610   5.151   5.880  10.307  0.2966  0.3736  0.1100
20040TIP3    H181611   5.108   5.804  10.346 -0.0658  0.7866  0.5278
20040TIP3    H281612   5.242   5.853  10.295 -0.3202 -1.0091 -2.0731
20041TIP3   OH281613   1.221   2.123   1.357  0.3800  0.2416  0.6895
20041TIP3    H181614   1.239   2.217   1.357  1.6183  0.0368  1.7046
20041TIP3    H281615   1.239   2.095   1.267  0.7700  0.8510  0.5734
20042TIP3   OH281616   1.787   2.491   2.040 -0.0028  0.0614 -0.4032
20042TIP3    H181617   1.821   2.419   2.093 -0.0233  0.4156  0.1051
20042TIP3    H281618   1.819   2.474   1.952 -0.6331 -0.9721 -0.4491
20043TIP3   OH281619   2.708   5.166   0.046  0.3173  0.2670  0.0711
20043TIP3    H181620   2.774   5.228   0.078  1.9405 -0.8939 -0.8958
20043TIP3    H281621   2.728   5.154  -0.047  0.3894 -2.0573  0.3141
20044TIP3   OH281622   0.961   6.499  15.951 -0.1183  0.2790 -0.3272
20044TIP3    H181623   1.013   6.467  16.024  0.2731  2.1776  0.2848
20044TIP3    H281624   0.875   6.459  15.963  1.1366 -3.1119 -1.4894
20045TIP3   OH281625   2.228   0.924  11.283 -0.0906 -0.1149 -0.1499
20045TIP3    H181626   2.231   0.880  11.199  1.9260  0.7959 -0.6229
20045TIP3    H281627   2.295   0.992  11.277  0.8051 -0.6340  2.5138
20046TIP3   OH281628   1.048   2.101  14.077  0.5564  0.1608  0.2111
20046TIP3    H181629   0.983   2.086  14.007  2.3920 -1.2815 -1.2827
20046TIP3    H281630   0.995   2.112  14.156 -1.5472 -0.4197 -1.0252
20047TIP3   OH281631   2.090   2.441   5.732 -0.1678 -0.5459 -0.2556
20047TIP3    H181632   2.124   2.530   5.734  1.3716 -1.0759 -1.1496
20047TIP3    H281633   2.007   2.446   5.780  0.3142  1.1734  0.4899
20048TIP3   OH281634   0.143   3.764   5.094 -0.4257  0.5894  0.1909
20048TIP3    H181635   0.076   3.825   5.063  0.9079  1.6656 -0.6962
20048TIP3    H281636   0.226   3.811   5.083  0.6942 -1.4532 -0.7335
20049TIP3   OH281637   6.335   3.689   1.186  0.0935  0.0385 -0.1745
20049TIP3    H181638   6.273   3.695   1.113 -0.1293 -0.5412 -0.0378
20049TIP3    H281639   6.285   3.717   1.262 -0.1363 -0.8442  0.0075
20050TIP3   OH281640   3.224   2.829  13.276  0.2660  0.0734  0.1716
20050TIP3    H181641   3.136   2.860  13.253  0.6255 -0.0809 -1.5532
20050TIP3    H281642   3.208   2.764  13.345 -0.9174  0.4615  0.2965
20051TIP3   OH281643   1.659   5.547   2.678 -0.2099 -0.2664 -0.0919
20051TIP3    H181644   1.672   5.637   2.708 -1.6378 -0.1867  0.3728
20051TIP3    H281645   1.696   5.492   2.747 -0.2555 -0.0459  0.1070
20052TIP3   OH281646   5.192   4.376  13.071  0.2609  0.4329  0.2219
20052TIP3    H181647   5.238   4.386  12.988 -0.7012 -0.4623 -0.4490
20052TIP3    H281648   5.218   4.291  13.104  0.5456  0.7326  0.7923
20053TIP3   OH281649   6.291   5.128  11.597  0.1601 -0.1457 -0.4335
20053TIP3    H181650   6.313   5.148  11.688  0.6058  1.1926 -0.8121
20053TIP3    H281651   6.198   5.149  11.589  0.2303  0.1892 -0.3939
20054TIP3   OH281652   6.330   2.851  13.164  0.0381 -0.0553 -0.7379
20054TIP3    H181653   6.422   2.825  13.171 -0.3476 -1.8186 -1.6438
20054TIP3    H281654   6.322   2.925  13.224  1.8113 -0.5075  0.1462
20055TIP3   OH281655   6.368   4.699  11.780  0.3232 -0.4704 -0.0397
20055TIP3    H181656   6.376   4.663  11.692  1.2291  0.9950 -0.5976
20055TIP3    H281657   6.457   4.729  11.802 -0.5587  2.4857 -0.1307
20056TIP3   OH281658   2.934   2.268   2.279 -0.0628  0.6118  0.0019
20056TIP3    H181659   2.976   2.185   2.257  0.0710  1.1735 -2.1085
20056TIP3    H281660   3.007   2.329   2.288 -0.2055  0.6773  0.7483
20057TIP3   OH281661   5.784   2.571   2.864 -1.1072 -0.1210  0.0085
20057TIP3    H181662   5.764   2.595   2.774 -0.2955 -1.5803 -0.5896
20057TIP3    H281663   5.714   2.512   2.889 -0.8484 -0.4260  0.0189
20058TIP3   OH281664   0.421   0.641   4.119 -0.3275 -0.1612 -0.7176
20058TIP3    H181665   0.387   0.680   4.038 -0.0737  0.0348 -0.7343
20058TIP3    H281666   0.344   0.626   4.173 -0.7109 -1.9835 -1.6991
20059TIP3   OH281667   4.957   2.975   1.374 -0.2314 -0.2110 -0.1031
20059TIP3    H181668   4.952   3.070   1.373 -1.0486 -0.2534 -0.7224
20059TIP3    H281669   4.992   2.954   1.461 -0.1405  0.6426  0.0750
20060TIP3   OH281670   5.798   5.039  14.862 -0.4023  0.3293  0.3463
20060TIP3    H181671   5.746   5.003  14.790  0.1871 -0.3317  0.2401
20060TIP3    H281672   5.884   5.056  14.823 -0.1395  0.1540  0.8463
20061TIP3   OH281673   2.861   3.459  12.967  0.3309 -0.1715 -0.1957
20061TIP3    H181674   2.879   3.379  12.918  0.8368  0.8467 -1.7787
20061TIP3    H281675   2.943   3.508  12.963 -0.7142  1.5963 -1.6818
20062TIP3   OH281676   6.590   0.100   3.791  0.4527 -0.2521 -0.1185
20062TIP3    H181677   6.652   0.136   3.728 -1.1985 -0.3795 -1.9306
20062TIP3    H281678   6.563   0.175   3.844  2.1542 -0.2146  0.7544
20063TIP3   OH281679   3.698   4.016  15.793 -0.1023 -0.2116  0.2746
20063TIP3    H181680   3.713   3.925  15.816 -0.3062 -0.5638 -0.9450
20063TIP3    H281681   3.783   4.058  15.806  0.0125 -0.5898  0.7602
20064TIP3   OH281682   0.495   3.727  13.173  0.0834  0.3410 -0.0830
20064TIP3    H181683   0.426   3.769  13.122  0.3861  1.0721  0.0928
20064TIP3    H281684   0.569   3.788  13.169  0.9445 -0.7182 -0.7957
20065TIP3   OH281685   6.094   1.338   3.844  0.0717 -0.3090 -0.1388
20065TIP3    H181686   6.163   1.292   3.795  0.9505  2.3231 -1.5980
20065TIP3    H281687   6.013   1.297   3.815  0.7470 -0.3614 -2.1190
20066TIP3   OH281688   3.756   3.111   6.679  0.2332 -0.1602 -0.0715
20066TIP3    H181689   3.779   3.065   6.760  4.4015  1.4835 -0.0722
20066TIP3    H281690   3.748   3.042   6.614 -1.7877 -1.3860  1.3489
20067TIP3   OH281691   1.297   1.889   3.904 -0.4084 -0.2627 -0.1255
20067TIP3    H181692   1.298   1.881   3.809 -1.6150  1.2615 -0.3142
20067TIP3    H281693   1.381   1.930   3.926  0.0152 -0.9231 -0.4782
20068TIP3   OH281694   3.923   3.107  16.377 -0.2885 -0.0806 -0.7893
20068TIP3    H181695   3.880   3.096  16.293 -0.3133 -1.4554 -0.6160
20068TIP3    H281696   3.852   3.103  16.441 -0.0670 -0.9068 -0.5914
20069TIP3   OH281697   0.073   4.408  16.759 -0.2121 -0.3406 -0.2966
20069TIP3    H181698   0.031   4.491  16.735 -0.7384 -0.0867  1.4178
20069TIP3    H281699   0.053   4.350  16.685 -0.2388  0.8936 -1.3083
20070TIP3   OH281700   1.733   3.983   3.402  0.0230 -0.3982 -0.2284
20070TIP3    H181701   1.707   4.012   3.314 -1.2093  0.0494  0.2662
20070TIP3    H281702   1.729   3.888   3.398 -0.3052 -0.3701 -0.5683
20071TIP3   OH281703   6.679   6.662  10.417  0.1143 -0.1131  0.6943
20071TIP3    H181704   6.747   6.619  10.365  0.3979 -0.6165  1.4506
20071TIP3    H281705   6.597   6.640  10.373  0.2881 -1.1380  0.8527
20072TIP3   OH281706   2.093   3.672  17.225 -0.4146  0.0135 -0.2932
20072TIP3    H181707   2.121   3.756  17.262  1.5744 -0.4081 -0.7087
20072TIP3    H281708   2.039   3.695  17.150 -2.7691  0.8817  1.5257
20073TIP3   OH281709   6.225   3.210   0.342  0.1042  0.0174  0.4180
20073TIP3    H181710   6.133   3.234   0.357 -0.1771 -1.3908  1.1031
20073TIP3    H281711   6.226   3.174   0.253  0.2345  1.0947 -0.0313
20074TIP3   OH281712   5.656   0.076  13.803  0.1140  0.1631  0.1568
20074TIP3    H181713   5.564   0.098  13.810 -0.0546  0.9745 -3.0788
20074TIP3    H281714   5.703   0.151  13.840 -0.3699 -1.3482  4.2828
20075TIP3   OH281715   4.626   6.735   0.232 -0.2737  0.3992 -0.5788
20075TIP3    H181716   4.675   6.814   0.254  1.3902 -0.0790 -2.2679
20075TIP3    H281717   4.548   6.768   0.186 -0.3221  1.0944 -0.0213
20076TIP3   OH281718   6.093   2.600  14.458 -0.1423  0.0987 -0.3302
20076TIP3    H181719   6.016   2.657  14.464  0.2131  0.6475 -0.8514
20076TIP3    H281720   6.058   2.514  14.437 -0.6450  0.2423 -0.1158
20077TIP3   OH281721   3.078   4.672  11.941  0.1980  0.3640 -0.2167
20077TIP3    H181722   3.064   4.767  11.942  0.7120  0.4588 -1.1878
20077TIP3    H281723   3.173   4.662  11.932  0.0310 -0.2396 -1.3996
20078TIP3   OH281724   5.092   2.723  15.141 -0.0764  0.5374  0.3762
20078TIP3    H181725   5.186   2.711  15.125 -0.1054  0.0239  0.5702
20078TIP3    H281726   5.084   2.722  15.237 -0.5440 -1.6484  0.3548
20079TIP3   OH281727   4.921   3.975   0.197  0.0393 -0.4191 -0.1974
20079TIP3    H181728   4.850   4.039   0.201  0.6512  0.2944 -0.5226
20079TIP3    H281729   4.905   3.926   0.116 -0.1994 -0.3990 -0.1618
20080TIP3   OH281730   6.600   4.380   4.896 -0.7357 -0.0762  0.0999
20080TIP3    H181731   6.595   4.474   4.884  2.0019  0.0617 -0.4495
20080TIP3    H281732   6.510   4.354   4.916 -2.1585  2.2239 -2.6068
20081TIP3   OH281733   1.732   2.448  12.781  0.3107 -0.2285 -0.0203
20081TIP3    H181734   1.796   2.380  12.802  0.6436  0.4192  1.1840
20081TIP3    H281735   1.678   2.410  12.711  1.8100 -0.8907 -0.8561
20082TIP3   OH281736   0.426   4.221  16.762  0.1964 -0.0327  0.2891
20082TIP3    H181737   0.496   4.171  16.719  1.0331 -0.1240  1.6613
20082TIP3    H281738   0.352   4.160  16.766  0.5117 -0.4351  0.0561
20083TIP3   OH281739   3.337   4.490   3.380 -0.1848  0.6434 -0.3067
20083TIP3    H181740   3.249   4.470   3.413  0.0194 -0.5598 -0.4280
20083TIP3    H281741   3.393   4.487   3.457  0.3319 -2.4095 -0.6677
20084TIP3   OH281742   0.208   2.552   3.094  0.0461  0.1309 -0.1306
20084TIP3    H181743   0.205   2.458   3.115  0.4326 -0.0271 -0.7635
20084TIP3    H281744   0.126   2.569   3.048  0.4100 -0.1187 -0.8907
20085TIP3   OH281745   4.901   3.692  16.055  0.6277  0.3560 -0.0778
20085TIP3    H181746   4.937   3.699  16.143 -0.2804 -1.9024  0.5441
20085TIP3    H281747   4.879   3.599  16.045 -1.9049  1.0251 -1.6275
20086TIP3   OH281748   3.823   3.076  16.132  0.6163  0.1058 -0.0657
20086TIP3    H181749   3.828   3.114  16.044  0.6524 -1.1376 -0.6292
20086TIP3    H281750   3.732   3.047  16.140  0.7036 -0.1024  0.1622
20087TIP3   OH281751   1.866   6.334  12.501 -0.4113  0.4372 -0.0573
20087TIP3    H181752   1.832   6.304  12.585 -0.6252  1.2519  0.1578
20087TIP3    H281753   1.790   6.338  12.444 -0.5118  1.2050  0.1126
20088TIP3   OH281754   3.875   6.670   0.705  0.3620 -0.1673 -0.1696
20088TIP3    H181755   3.863   6.718   0.623 -2.3043  0.0822  0.2748
20088TIP3    H281756   3.930   6.595   0.681 -0.6043 -0.2864 -2.3086
20089TIP3   OH281757   4.474   3.779  11.773 -0.1982  0.1987  0.1182
20089TIP3    H181758   4.527   3.730  11.710 -1.0473 -0.1600 -0.3381
20089TIP3    H281759   4.529   3.854  11.798  0.0580  0.4858 -1.2367
20090TIP3   OH281760   0.462   4.626  12.840  0.0924  0.2685  0.2895
20090TIP3    H181761   0.553   4.600  12.831 -0.2057 -0.5978 -0.3510
20090TIP3    H281762   0.444   4.679  12.762 -0.3026 -0.6545 -0.2614
20091TIP3   OH281763   3.345   0.310   6.328 -0.8858 -0.1474 -0.4399
20091TIP3    H181764   3.324   0.402   6.310 -0.4765  0.1311  0.4502
20091TIP3    H281765   3.263   0.272   6.356 -0.4235  0.8438  2.6623
20092TIP3   OH281766   0.871   4.287   1.700 -0.0658 -0.1279  0.0734
20092TIP3    H181767   0.881   4.273   1.794  0.4500 -1.0864 -0.1062
20092TIP3    H281768   0.948   4.338   1.674 -0.7249  1.0340  0.3251
20093TIP3   OH281769   2.577   2.818   6.329 -0.0945 -0.0900 -0.7247
20093TIP3    H181770   2.488   2.853   6.340 -0.3683 -0.4408 -1.7465
20093TIP3    H281771   2.617   2.827   6.416 -1.0645  0.2369 -0.2984
20094TIP3   OH281772   5.825   1.626   5.480 -0.0620  0.5524  0.1633
20094TIP3    H181773   5.905   1.594   5.521  1.5169  1.2602 -2.1474
20094TIP3    H281774   5.835   1.721   5.479 -1.6037  0.7540  1.0472
20095TIP3   OH281775   0.856   1.445  13.826  0.4463  0.6026 -0.0817
20095TIP3    H181776   0.822   1.488  13.904  0.0619  0.8313 -0.3689
20095TIP3    H281777   0.951   1.443  13.838  0.3059 -0.5457  0.9932
20096TIP3   OH281778   6.639   3.241  17.130  0.0416 -0.1840 -0.7205
20096TIP3    H181779   6.724   3.285  17.137 -0.4085  0.6275 -0.2596
20096TIP3    H281780   6.596   3.258  17.214  0.9501 -3.8744  0.7116
20097TIP3   OH281781   6.329   4.990  16.927 -0.1195  0.4659 -0.3153
20097TIP3    H181782   6.258   5.041  16.967  0.4618  1.1762 -0.1546
20097TIP3    H281783   6.299   4.900  16.930 -1.2177  0.8051 -0.6746
20098TIP3   OH281784   1.376   5.407   0.005 -0.1083 -0.2065 -0.3550
20098TIP3    H181785   1.432   5.338   0.041 -1.6393 -1.1285  0.3812
20098TIP3    H281786   1.340   5.450   0.083 -0.5448  0.2474 -0.8059
20099TIP3   OH281787   6.679   2.546  15.740  0.2747  0.0643  0.1020
20099TIP3    H181788   6.702   2.615  15.677 -0.3319 -0.3530 -0.5997
20099TIP3    H281789   6.742   2.477  15.722  0.3749  0.1166  0.2519
20100TIP3   OH281790   1.065   1.840  13.815  0.7206 -0.0352 -0.3437
20100TIP3    H181791   0.989   1.885  13.854  0.1599 -2.1480  1.2162
20100TIP3    H281792   1.111   1.909  13.767 -1.4003  1.6381 -0.1777
20101TIP3   OH281793   5.244   1.314  17.235 -0.5656  0.0949 -0.1861
20101TIP3    H181794   5.253   1.399  17.278 -0.7619  0.3101 -0.5673
20101TIP3    H281795   5.221   1.335  17.145  1.3348 -0.2843 -0.8207
20102TIP3   OH281796   0.713   0.691   4.497  0.3265  0.0888 -0.1401
20102TIP3    H181797   0.620   0.693   4.518  0.1007 -1.4114 -0.8250
20102TIP3    H281798   0.757   0.707   4.580 -0.5033  2.7088 -0.1259
20103TIP3   OH281799   4.395   1.708  14.361  0.4254  0.1076  0.3066
20103TIP3    H181800   4.489   1.719  14.380  0.6072 -0.7673 -0.0807
20103TIP3    H281801   4.374   1.620  14.391  0.1341 -0.3636 -1.2146
20104TIP3   OH281802   4.889   1.099   5.762  0.3185  0.6686  0.5671
20104TIP3    H181803   4.960   1.154   5.795  1.8889 -0.6457 -0.4735
20104TIP3    H281804   4.874   1.036   5.832  1.2362  0.0242  0.1929
20105TIP3   OH281805   4.243   5.851   3.168  0.7088  0.0264 -0.3279
20105TIP3    H181806   4.172   5.873   3.107  0.5233  0.5380  0.0678
20105TIP3    H281807   4.219   5.894   3.249 -0.7947 -3.2970  1.1935
20106TIP3   OH281808   3.450   4.292  13.916 -0.3682 -0.3318  0.6772
20106TIP3    H181809   3.526   4.297  13.859 -0.8918  1.3398  0.0727
20106TIP3    H281810   3.483   4.314  14.003 -0.5189  3.1431 -0.0041
20107TIP3   OH281811   0.129   1.314  17.001  0.1866  0.7711  0.3961
20107TIP3    H181812   0.201   1.275  17.050  1.6501  1.4924 -1.0886
20107TIP3    H281813   0.149   1.407  16.998 -0.7896  0.9897 -0.0913
20108TIP3   OH281814   6.073   3.072  15.442 -0.2326  0.4128 -0.1460
20108TIP3    H181815   6.133   3.000  15.424 -0.7674 -0.2943  0.7932
20108TIP3    H281816   5.995   3.052  15.389 -1.3574 -1.0674  1.8890
20109TIP3   OH281817   0.150   5.362  16.744 -0.5863  0.0033 -0.1478
20109TIP3    H181818   0.121   5.400  16.662 -1.9502 -0.6836 -0.0093
20109TIP3    H281819   0.170   5.270  16.723  0.0133  0.0766  0.0856
20110TIP3   OH281820   4.592   5.477   1.399 -0.5750 -0.5949 -0.1801
20110TIP3    H181821   4.636   5.395   1.373  1.0627  0.5111 -1.0711
20110TIP3    H281822   4.553   5.510   1.318  0.6284  0.5774 -0.3052
20111TIP3   OH281823   1.090   4.988   1.951 -0.7011  0.0989  0.1965
20111TIP3    H181824   1.103   4.908   2.001  0.0677 -0.3428 -0.6912
20111TIP3    H281825   1.177   5.014   1.922 -0.7308  2.0670  1.6430
20112TIP3   OH281826   1.706   0.155  15.462  0.1768  0.6174  0.1397
20112TIP3    H181827   1.646   0.217  15.419  0.2459 -0.4026 -1.4917
20112TIP3    H281828   1.791   0.198  15.457 -0.2077  1.6010  1.5155
20113TIP3   OH281829   2.207   4.673  14.164 -0.0769  0.1836  0.7714
20113TIP3    H181830   2.235   4.676  14.255  0.5828 -0.6439  0.6058
20113TIP3    H281831   2.265   4.734  14.118 -0.6506  0.8854  0.9477
20114TIP3   OH281832   2.572   1.928  14.954 -0.1567 -0.0391  0.0781
20114TIP3    H181833   2.658   1.966  14.968 -0.3355  0.8026 -0.9352
20114TIP3    H281834   2.512   1.982  15.006  0.0877 -1.6748  2.1874
20115TIP3   OH281835   0.980   5.661   3.424  0.9207 -0.1328 -0.7289
20115TIP3    H181836   0.895   5.628   3.397  1.3592 -1.0942 -0.9757
20115TIP3    H281837   0.979   5.754   3.398  0.2623 -0.3410 -1.4865
20116TIP3   OH281838   0.863   6.296  12.620 -0.0813  0.3593 -0.1519
20116TIP3    H181839   0.957   6.278  12.617 -0.3378 -1.7161  1.4998
20116TIP3    H281840   0.848   6.332  12.708 -0.9987 -0.8489  0.2178
20117TIP3   OH281841   6.624   0.666  17.292  0.0083  0.0198 -0.5763
20117TIP3    H181842   6.676   0.743  17.269 -0.9800  1.0699  0.5165
20117TIP3    H281843   6.643   0.651  17.385 -1.0339 -0.0386 -0.3604
20118TIP3   OH281844   1.128   3.370   2.980 -0.4438 -0.9178  0.1544
20118TIP3    H181845   1.107   3.366   2.886  0.0872  1.4813 -0.1396
20118TIP3    H281846   1.107   3.460   3.005  4.0766  0.1136  1.0929
20119TIP3   OH281847   6.561   5.064   4.709 -0.5902  0.1276  0.3940
20119TIP3    H181848   6.520   4.978   4.714 -0.9662  0.0928 -2.0165
20119TIP3    H281849   6.491   5.126   4.730 -1.1216 -0.0697 -0.7023
20120TIP3   OH281850   2.854   6.268   1.476 -0.0735 -0.1461  0.2220
20120TIP3    H181851   2.915   6.213   1.428  1.0737  0.5135  0.8644
20120TIP3    H281852   2.778   6.212   1.492  0.1211 -0.8131 -1.0736
20121TIP3   OH281853   1.349   0.021  14.203  0.3710 -0.0267  0.8557
20121TIP3    H181854   1.372   0.097  14.257  0.7512 -0.2432  1.0040
20121TIP3    H281855   1.351  -0.053  14.264 -0.8071 -0.0501  0.8989
20122TIP3   OH281856   6.019   5.905   4.614 -0.8044  0.1073  0.1129
20122TIP3    H181857   6.087   5.973   4.604 -1.2993  0.6643  0.4703
20122TIP3    H281858   6.021   5.857   4.531 -0.2081  0.3376 -0.0128
20123TIP3   OH281859   2.942   6.717   5.339 -0.2983 -0.2460 -0.2628
20123TIP3    H181860   2.981   6.798   5.372 -0.3059 -0.3215 -0.0702
20123TIP3    H281861   3.005   6.649   5.361 -0.3358 -0.3057 -0.3414
20124TIP3   OH281862   3.336   4.426  16.068  0.5624 -0.0475  1.1571
20124TIP3    H181863   3.394   4.356  16.037  1.9125  1.1081  0.9656
20124TIP3    H281864   3.281   4.446  15.992  1.7969  0.6982  0.4269
20125TIP3   OH281865   0.831   2.349   0.184  0.0528 -0.2309 -0.4512
20125TIP3    H181866   0.851   2.261   0.216 -1.5231 -0.8186 -0.9880
20125TIP3    H281867   0.750   2.338   0.134 -1.9894  2.0479  2.0769
20126TIP3   OH281868   0.866   6.273  13.943  0.1140  0.0812  0.5141
20126TIP3    H181869   0.829   6.246  13.858  2.2130 -1.2150 -0.0766
20126TIP3    H281870   0.894   6.191  13.983 -0.1705  0.7618  2.1670
20127TIP3   OH281871   6.307   0.610   3.967 -0.3823  0.8764 -0.2785
20127TIP3    H181872   6.292   0.639   4.057  0.4803 -0.7521  0.4447
20127TIP3    H281873   6.226   0.567   3.941 -1.2235  2.7371 -0.9171
20128TIP3   OH281874   6.667   1.120   0.142  0.2627 -0.1469  0.6371
20128TIP3    H181875   6.735   1.076   0.091 -1.0018 -0.0618 -1.1924
20128TIP3    H281876   6.684   1.213   0.130 -1.4545 -0.0620 -1.7667
20129TIP3   OH281877   3.307   5.541  12.730  0.3205  0.0706  0.0104
20129TIP3    H181878   3.271   5.616  12.683  1.6879  0.5024 -0.3986
20129TIP3    H281879   3.387   5.575  12.771  1.2354 -1.2725 -0.5990
20130TIP3   OH281880   5.033   1.257   1.105 -0.3311 -0.1443  0.4152
20130TIP3    H181881   4.992   1.211   1.031  1.4715 -1.0148 -0.1105
20130TIP3    H281882   5.079   1.331   1.064 -0.5952  0.2649  0.8597
20131TIP3   OH281883   0.935   4.890  13.669 -0.1142 -0.3578 -0.4245
20131TIP3    H181884   1.013   4.846  13.701  0.8120  0.0597 -1.9569
20131TIP3    H281885   0.865   4.866  13.730  1.1699 -0.8938  0.8670
20132TIP3   OH281886   3.302   0.754  11.045  0.0801 -0.4833  0.3415
20132TIP3    H181887   3.253   0.834  11.027  1.3567  0.4921  1.0473
20132TIP3    H281888   3.301   0.706  10.962 -1.8513 -0.4123  0.2708
20133TIP3   OH281889   4.503   0.639  14.855  0.0511 -0.3170 -0.1516
20133TIP3    H181890   4.497   0.550  14.888 -0.7094 -0.7992 -1.5373
20133TIP3    H281891   4.569   0.635  14.786  0.6762  0.4103  0.3693
20134TIP3   OH281892   1.009   5.958  11.253 -0.7408 -0.1256 -0.1336
20134TIP3    H181893   0.980   5.902  11.181 -0.5455  0.0695 -0.3610
20134TIP3    H281894   1.100   5.976  11.234  0.0645 -2.1162  1.4361
20135TIP3   OH281895   6.466   5.730   4.923 -0.0711 -0.7149 -0.1741
20135TIP3    H181896   6.489   5.802   4.865  0.0864 -0.8254 -0.2510
20135TIP3    H281897   6.391   5.688   4.880 -1.1539  0.3231  0.6416
20136TIP3   OH281898   3.966   3.367   3.130  0.4094  0.0531 -0.7592
20136TIP3    H181899   3.950   3.335   3.041 -1.2611 -0.6354 -0.2554
20136TIP3    H281900   4.057   3.343   3.148 -0.7058 -5.0012 -0.3032
20137TIP3   OH281901   4.131   4.793   3.345  0.4636 -0.1999 -0.2295
20137TIP3    H181902   4.226   4.800   3.334  0.3379 -0.2149 -1.4591
20137TIP3    H281903   4.110   4.705   3.313  0.3759 -1.3922  2.7852
20138TIP3   OH281904   6.511   4.906  10.322 -0.4381  0.1693 -0.8403
20138TIP3    H181905   6.416   4.914  10.315 -0.4050  0.3701 -1.0833
20138TIP3    H281906   6.529   4.914  10.415 -0.5095  1.8644 -0.9354
20139TIP3   OH281907   0.967   3.506   1.732 -0.0531 -0.0729 -0.0650
20139TIP3    H181908   0.883   3.535   1.694 -0.2054 -0.2411  0.1440
20139TIP3    H281909   0.944   3.473   1.818  0.1388 -0.7390 -0.2683
20140TIP3   OH281910   0.945   5.773   6.337 -0.6059 -0.0596 -0.0615
20140TIP3    H181911   0.932   5.697   6.393  2.6690 -0.8144 -0.1130
20140TIP3    H281912   1.013   5.746   6.276 -1.1472  2.1151 -1.7468
20141TIP3   OH281913   4.078   5.133  11.484  0.2580 -0.3052 -0.3033
20141TIP3    H181914   4.042   5.108  11.568  1.2485 -1.8008 -0.2787
20141TIP3    H281915   4.168   5.100  11.486  1.0369  1.6023 -1.0844
20142TIP3   OH281916   1.464   4.241  10.702  0.0391  0.8913 -0.4720
20142TIP3    H181917   1.525   4.168  10.700  0.3353  1.1451 -1.3833
20142TIP3    H281918   1.487   4.294  10.625  0.6111  2.5793  0.7994
20143TIP3   OH281919   2.433   3.191   4.669 -0.0589 -0.7814  0.1312
20143TIP3    H181920   2.415   3.196   4.763  1.0372  1.2325  0.3024
20143TIP3    H281921   2.529   3.190   4.663 -0.1195 -1.4623 -0.9544
20144TIP3   OH281922   0.744   0.097   1.879 -0.1247 -0.3538 -0.4896
20144TIP3    H181923   0.687   0.055   1.944 -2.2732 -0.1867 -2.1586
20144TIP3    H281924   0.832   0.064   1.900 -1.1282 -2.4379  0.8184
20145TIP3   OH281925   1.004   3.243  16.232  0.0515 -0.6166 -0.9435
20145TIP3    H181926   0.935   3.284  16.181 -0.2540 -0.2216 -0.2295
20145TIP3    H281927   1.023   3.305  16.302  0.6261 -1.0403 -0.7109
20146TIP3   OH281928   2.188   4.623   3.044  0.0782  0.0409  0.0594
20146TIP3    H181929   2.271   4.587   3.012 -1.3599 -1.8921 -1.8491
20146TIP3    H281930   2.197   4.718   3.034  1.9374 -0.1480 -0.3482
20147TIP3   OH281931   1.826   0.254   2.838  0.2986 -0.2529 -0.0125
20147TIP3    H181932   1.784   0.253   2.925  0.5856 -2.6881  0.1715
20147TIP3    H281933   1.803   0.169   2.800  0.1606  0.7758 -2.3722
20148TIP3   OH281934   0.157   5.633  12.009  0.4038  0.3316 -0.5140
20148TIP3    H181935   0.124   5.558  12.058  0.9785  0.4044 -0.0036
20148TIP3    H281936   0.110   5.708  12.045  0.0421  0.2598 -0.8247
20149TIP3   OH281937   5.984   6.245  11.918 -0.7241 -0.1311  0.4240
20149TIP3    H181938   6.000   6.187  11.993 -0.8131 -0.7503 -0.0359
20149TIP3    H281939   5.947   6.188  11.851  1.5759 -0.1145 -0.9805
20150TIP3   OH281940   4.298   5.336  12.105 -0.5168  0.1026 -0.0033
20150TIP3    H181941   4.344   5.419  12.111 -0.2690 -0.1309  1.6262
20150TIP3    H281942   4.211   5.360  12.072 -1.3278  1.3956  2.8230
20151TIP3   OH281943   4.643   3.491  15.706 -0.6814 -0.6923 -0.0212
20151TIP3    H181944   4.728   3.454  15.730 -0.8244 -0.1893  1.3691
20151TIP3    H281945   4.585   3.464  15.776 -1.2798  0.3606 -0.0965
20152TIP3   OH281946   3.884   0.417   0.698  0.7002 -0.2805 -0.2995
20152TIP3    H181947   3.817   0.481   0.724  1.9799  0.2396  2.0050
20152TIP3    H281948   3.859   0.391   0.609 -1.6345  1.0668 -0.1245
20153TIP3   OH281949   6.021   0.190  11.772  0.6174 -0.1433 -0.7076
20153TIP3    H181950   6.071   0.269  11.749  1.8831 -0.4567  0.7772
20153TIP3    H281951   5.986   0.208  11.859 -0.9154 -0.4066 -1.2467
20154TIP3   OH281952   4.810   4.816  14.826 -0.1095  0.1308 -0.4099
20154TIP3    H181953   4.738   4.875  14.804 -0.8459 -1.5445 -2.8733
20154TIP3    H281954   4.887   4.873  14.833 -0.9643  1.5248 -1.8075
20155TIP3   OH281955   4.750   3.752   5.305  0.1440 -0.1018 -0.4260
20155TIP3    H181956   4.767   3.846   5.295 -0.9301 -0.0236 -1.7387
20155TIP3    H281957   4.769   3.715   5.219  2.7952 -1.5191  0.6314
20156TIP3   OH281958   0.376   3.347  15.088  0.3367 -0.0553  0.2456
20156TIP3    H181959   0.344   3.265  15.126 -0.7076 -0.2740 -1.0585
20156TIP3    H281960   0.299   3.388  15.049  1.5202 -0.5894 -2.9832
20157TIP3   OH281961   5.237   5.045  15.265 -0.2679 -0.3225 -0.3228
20157TIP3    H181962   5.176   5.116  15.287 -0.0538 -0.0046 -0.7374
20157TIP3    H281963   5.214   5.021  15.175  0.6027  0.2064 -0.6940
20158TIP3   OH281964   3.489   6.619  10.936 -0.5213  0.1337  0.4020
20158TIP3    H181965   3.567   6.674  10.938  0.1992 -0.8835  0.6193
20158TIP3    H281966   3.417   6.679  10.956  0.0421  1.3319 -0.9840
20159TIP3   OH281967   4.888   2.815   1.151 -0.2014  0.1625 -0.2637
20159TIP3    H181968   4.939   2.854   1.080  0.4258  1.0417  0.6272
20159TIP3    H281969   4.881   2.885   1.216 -1.6313 -0.2911  0.1149
20160TIP3   OH281970   2.777   0.192  17.061  0.1543 -0.2791  0.4035
20160TIP3    H181971   2.857   0.243  17.052 -0.4334  0.5411 -0.3126
20160TIP3    H281972   2.747   0.177  16.971 -0.5790 -0.4440  0.6659
20161TIP3   OH281973   0.785   6.109   3.080 -0.4734  1.0255  0.2093
20161TIP3    H181974   0.866   6.109   3.132 -0.8067  0.3266  0.7476
20161TIP3    H281975   0.792   6.030   3.025  0.4609  2.4050 -1.7916
20162TIP3   OH281976   1.783   5.827   5.630 -0.0803  0.0453  0.4892
20162TIP3    H181977   1.786   5.820   5.535  0.2122  0.4063  0.4690
20162TIP3    H281978   1.793   5.737   5.662  2.1677  0.1424  0.2323
20163TIP3   OH281979   1.566   3.067  14.654 -0.5038 -0.3851  0.1810
20163TIP3    H181980   1.587   2.982  14.615  0.5589  0.0836 -0.3051
20163TIP3    H281981   1.592   3.131  14.588 -1.7881  0.3212  0.3183
20164TIP3   OH281982   4.904   3.721   2.559  0.0882  0.6757 -0.6248
20164TIP3    H181983   4.859   3.636   2.559  1.4026 -0.0837  0.7929
20164TIP3    H281984   4.836   3.784   2.535 -1.2160 -0.6484 -0.5884
20165TIP3   OH281985   6.449   3.939  15.736 -0.2777 -0.2945  0.1463
20165TIP3    H181986   6.479   3.884  15.808 -0.1488 -0.9931 -0.4245
20165TIP3    H281987   6.470   3.889  15.657 -0.1959  0.5608 -0.3902
20166TIP3   OH281988   2.121   3.364   6.002  0.0953 -0.1763  0.3984
20166TIP3    H181989   2.190   3.329   5.946  0.6934  1.4158  0.0982
20166TIP3    H281990   2.095   3.446   5.961 -1.1884 -0.1765  1.1305
20167TIP3   OH281991   4.673   2.577   1.411  0.1510  0.2079  0.1888
20167TIP3    H181992   4.719   2.599   1.330  1.1707  1.1842  1.0010
20167TIP3    H281993   4.734   2.521   1.459 -0.5812 -0.6428  0.1599
20168TIP3   OH281994   2.352   2.200   4.066  0.4856  0.2490  0.2414
20168TIP3    H181995   2.294   2.221   3.993  1.6233  0.1646 -0.7169
20168TIP3    H281996   2.356   2.280   4.118  3.3930  2.0607 -2.4134
20169TIP3   OH281997   5.576   1.602  17.174  1.0105  0.0002 -0.4659
20169TIP3    H181998   5.582   1.692  17.142 -0.0722  0.9342  1.7259
20169TIP3    H281999   5.583   1.610  17.269  0.7350 -2.2221 -0.2085
20170TIP3   OH282000   1.065   4.758  15.645  0.0119  0.9253 -0.6919
20170TIP3    H182001   1.081   4.848  15.671 -1.2831  1.0392 -0.2210
20170TIP3    H282002   1.071   4.759  15.550 -1.5186  1.8435 -0.7976
20171TIP3   OH282003   5.249   3.461  14.835 -0.8192 -0.0444  0.2051
20171TIP3    H182004   5.292   3.417  14.762 -0.4491 -0.6234  0.7612
20171TIP3    H282005   5.170   3.500  14.797 -1.1920 -1.2509 -0.2933
20172TIP3   OH282006   5.648   3.234   1.963  0.3101 -0.5058 -0.1941
20172TIP3    H182007   5.692   3.167   2.016  1.4614  0.0207 -0.4536
20172TIP3    H282008   5.650   3.199   1.874 -1.0264 -1.0891 -0.0077
20173TIP3   OH282009   3.008   5.177   6.308  0.0824  0.0266 -0.1074
20173TIP3    H182010   2.968   5.095   6.335 -0.6170  0.6968  0.9892
20173TIP3    H282011   3.014   5.171   6.213  0.4680 -1.4641 -0.0113
20174TIP3   OH282012   4.233   2.734  16.420  0.0401 -0.0849 -0.0808
20174TIP3    H182013   4.153   2.702  16.378  0.3838 -2.8515  1.1468
20174TIP3    H282014   4.304   2.696  16.368  0.4687 -1.0729  1.1597
20175TIP3   OH282015   0.177   2.075   0.856  0.5814 -0.4344  0.0472
20175TIP3    H182016   0.258   2.125   0.860  0.0647  0.4438 -0.3193
20175TIP3    H282017   0.184   2.013   0.928  1.9688 -0.9802 -0.5231
20176TIP3   OH282018   5.087   6.295  16.892 -0.0206  0.0333 -0.5945
20176TIP3    H182019   5.008   6.242  16.905  0.1844 -0.7126 -2.1339
20176TIP3    H282020   5.100   6.340  16.976 -3.4300  2.0748 -0.9396
20177TIP3   OH282021   5.333   6.645   4.001 -0.3413  0.0344 -0.2363
20177TIP3    H182022   5.244   6.619   3.981 -0.5618  0.4179  0.2190
20177TIP3    H282023   5.325   6.732   4.039  0.1984 -0.0415  0.0723
20178TIP3   OH282024   3.602   4.958   3.064 -0.3500 -0.5329 -0.3440
20178TIP3    H182025   3.540   4.927   2.998 -0.8948 -1.9684  0.7954
20178TIP3    H282026   3.653   4.880   3.087  2.2309  0.6758 -1.5324
20179TIP3   OH282027   1.736   1.706  14.438 -0.1613  0.1190  0.2831
20179TIP3    H182028   1.743   1.802  14.432 -1.9077  0.2413 -0.3297
20179TIP3    H282029   1.811   1.673  14.388 -0.6923  1.1843 -1.2819
20180TIP3   OH282030   5.453   4.125  12.245 -0.4171  0.3718  0.7228
20180TIP3    H182031   5.438   4.103  12.337  0.8655 -2.0412  0.4345
20180TIP3    H282032   5.407   4.057  12.196  0.4450  0.5439 -0.3635
20181TIP3   OH282033   6.033   4.345   4.641  0.2518 -0.2121 -0.5053
20181TIP3    H182034   6.072   4.379   4.561 -1.3086  0.2152 -1.1369
20181TIP3    H282035   6.058   4.253   4.643  1.2331  0.0343 -0.8776
20182TIP3   OH282036   6.433   2.455   1.893 -0.2928 -0.6127  0.1158
20182TIP3    H182037   6.452   2.361   1.894 -0.8009 -0.7158  0.2275
20182TIP3    H282038   6.391   2.471   1.809  1.1413 -0.2067 -0.5459
20183TIP3   OH282039   6.612   3.225  12.221  0.2603 -0.7351  0.0372
20183TIP3    H182040   6.524   3.234  12.258  0.9330 -4.0335  3.0765
20183TIP3    H282041   6.617   3.133  12.194  1.9341  0.0688 -2.8677
20184TIP3   OH282042   5.802   1.448   2.869 -0.2358 -0.0410  0.3413
20184TIP3    H182043   5.803   1.352   2.868  0.1265 -0.0979 -2.7856
20184TIP3    H282044   5.709   1.470   2.862 -0.2544 -0.2087  0.0150
20185TIP3   OH282045   0.049   2.486  15.033 -0.2137 -0.3473  0.0785
20185TIP3    H182046   0.080   2.539  15.108  0.5013  0.9098 -1.0558
20185TIP3    H282047   0.120   2.423  15.018  0.4632  0.5413 -0.6008
20186TIP3   OH282048   0.030   1.433  11.337 -0.5385  0.2079 -0.7442
20186TIP3    H182049   0.051   1.437  11.431  0.5851  0.1878 -0.9783
20186TIP3    H282050  -0.028   1.357  11.329 -0.5989  0.1769 -0.0673
20187TIP3   OH282051   3.654   3.831  12.740 -0.1146 -0.4795  0.7903
20187TIP3    H182052   3.627   3.917  12.770 -0.6043 -0.4935  0.4158
20187TIP3    H282053   3.748   3.827  12.756  0.4535  1.1538 -1.6140
20188TIP3   OH282054   0.537   1.704  13.988  0.1667  0.1165 -0.5400
20188TIP3    H182055   0.494   1.780  14.029  0.5151  0.8581 -1.5105
20188TIP3    H282056   0.465   1.648  13.959 -0.1037 -0.9493  1.9484
20189TIP3   OH282057   6.086   1.717  13.800 -0.3997  0.0473  0.3444
20189TIP3    H182058   6.017   1.670  13.847  0.4634  0.9113  2.6172
20189TIP3    H282059   6.162   1.659  13.805 -1.0565 -1.3267 -2.9636
20190TIP3   OH282060   1.176   2.381   3.506  0.5014 -0.7619  0.1039
20190TIP3    H182061   1.103   2.332   3.544 -0.2369  0.2566  0.0583
20190TIP3    H282062   1.152   2.473   3.519  1.3552 -0.4043 -0.7178
20191TIP3   OH282063   4.700   5.869   5.904  0.1815  0.2294 -0.4817
20191TIP3    H182064   4.779   5.833   5.944  0.3440  0.8097 -0.2727
20191TIP3    H282065   4.727   5.892   5.815 -0.1085 -0.8086 -0.8512
20192TIP3   OH282066   1.437   3.632   3.066  0.1623  0.1941  0.0500
20192TIP3    H182067   1.441   3.541   3.037  1.6086  0.3083 -0.1592
20192TIP3    H282068   1.483   3.633   3.150 -1.0444  0.5004  0.7398
20193TIP3   OH282069   3.702   6.770   4.187 -1.1471 -0.7209 -0.0679
20193TIP3    H182070   3.731   6.690   4.144 -1.3380 -0.3342 -0.9457
20193TIP3    H282071   3.614   6.785   4.152 -0.7414  0.3903 -0.6535
20194TIP3   OH282072   3.432   6.028  17.180  0.6598  0.0542  0.2189
20194TIP3    H182073   3.402   5.938  17.185  0.9190 -0.1958 -1.8350
20194TIP3    H282074   3.436   6.058  17.271 -1.5740 -1.2749  0.8229
20195TIP3   OH282075   0.782   1.192   2.860 -0.1170  0.5428  0.5088
20195TIP3    H182076   0.712   1.254   2.838 -0.8769 -0.2070  0.7317
20195TIP3    H282077   0.776   1.124   2.793 -0.3403 -0.0987  1.1680
20196TIP3   OH282078   4.055   2.545   5.750  0.0213  0.2408  0.3429
20196TIP3    H182079   4.006   2.600   5.688  0.7904 -1.3787 -1.8396
20196TIP3    H282080   4.146   2.559   5.727  0.4984  0.9864  2.4280
20197TIP3   OH282081   3.425   0.154   3.549 -0.7989  0.1286  0.1685
20197TIP3    H182082   3.357   0.145   3.482 -1.3879 -0.5346  0.8446
20197TIP3    H282083   3.460   0.243   3.536 -0.4055 -0.2331 -1.4751
20198TIP3   OH282084   5.960   3.220  12.173 -0.3928  0.5587  0.0580
20198TIP3    H182085   6.005   3.212  12.089  1.0910 -0.7197  0.9069
20198TIP3    H282086   5.948   3.314  12.186  3.0009  1.1116  0.1800
20199TIP3   OH282087   6.499   6.196   2.124 -0.2681 -0.0976  0.0934
20199TIP3    H182088   6.580   6.213   2.172 -0.2672 -0.3654  0.1894
20199TIP3    H282089   6.511   6.240   2.040  1.2517 -2.6063 -1.1158
20200TIP3   OH282090   1.872   5.525  13.935 -0.1910  0.1697 -0.7303
20200TIP3    H182091   1.786   5.531  13.895 -0.5539 -1.9362 -0.3748
20200TIP3    H282092   1.933   5.551  13.866 -0.9793 -0.5980 -1.7354
20201TIP3   OH282093   6.429   6.144  17.274  0.2454  0.0848 -0.0625
20201TIP3    H182094   6.454   6.075  17.212 -0.8519 -0.4740  0.0981
20201TIP3    H282095   6.512   6.175  17.310  0.7458 -2.5377  1.3437
20202TIP3   OH282096   1.067   5.997  15.433 -0.2333  0.4110 -0.1858
20202TIP3    H182097   1.071   5.903  15.413 -0.5886  0.2151  0.6114
20202TIP3    H282098   0.974   6.015  15.445 -0.0212  0.3454  1.9331
20203TIP3   OH282099   3.246   1.979   2.872 -0.2300  0.5967 -0.1676
20203TIP3    H182100   3.265   1.935   2.789 -1.5682  0.1609 -0.2688
20203TIP3    H282101   3.163   1.940   2.901  0.9380 -0.3900  2.1553
20204TIP3   OH282102   6.253   2.442   3.525 -0.5501 -0.2219  0.0804
20204TIP3    H182103   6.330   2.485   3.487  0.1748  0.4833  2.1931
20204TIP3    H282104   6.289   2.389   3.596 -2.0672  0.7103  1.6024
20205TIP3   OH282105   0.938   6.691  13.312  0.0900  0.1919  0.0545
20205TIP3    H182106   0.844   6.675  13.305 -0.2033  2.1453 -1.2524
20205TIP3    H282107   0.954   6.697  13.406 -1.8761  3.5317  0.3419
20206TIP3   OH282108   1.656   4.545  11.335 -0.2395 -0.1135 -0.0516
20206TIP3    H182109   1.644   4.629  11.380 -0.5360  0.7346 -1.6494
20206TIP3    H282110   1.607   4.483  11.389 -2.5634  1.2863 -0.3973
20207TIP3   OH282111   0.905   4.346  13.047 -0.7492 -0.9795 -0.2290
20207TIP3    H182112   0.914   4.281  13.116 -0.7199 -0.2794  0.4367
20207TIP3    H282113   0.827   4.397  13.072  0.2713  0.4079  0.2512
20208TIP3   OH282114   1.930   2.673  16.101 -0.2494 -0.2780 -0.0988
20208TIP3    H182115   1.911   2.704  16.189 -2.4454  1.7155 -1.1453
20208TIP3    H282116   2.019   2.703  16.083  0.2240 -0.7259  1.4028
20209TIP3   OH282117   5.247   0.863   1.316 -0.0027  0.2130 -0.1624
20209TIP3    H182118   5.184   0.926   1.349  0.1782  0.6070 -0.5641
20209TIP3    H282119   5.285   0.824   1.394 -1.7840 -1.1054  0.1158
20210TIP3   OH282120   6.785   4.131   0.525  0.7049  0.4013 -0.4900
20210TIP3    H182121   6.849   4.094   0.586 -0.7456  1.6001  1.8883
20210TIP3    H282122   6.800   4.225   0.527 -0.6751  0.6473 -0.3771
20211TIP3   OH282123   3.335   0.162   4.364 -0.4326 -0.1272 -0.1520
20211TIP3    H182124   3.240   0.171   4.378 -1.0281 -3.3415 -1.2368
20211TIP3    H282125   3.347   0.070   4.341  2.4233  0.9975 -4.3562
20212TIP3   OH282126   0.596   3.256  10.643  0.0665  0.0524 -0.1372
20212TIP3    H182127   0.583   3.176  10.694 -1.7496  1.2508  1.4592
20212TIP3    H282128   0.661   3.233  10.577  1.3183 -2.0735  1.7061
20213TIP3   OH282129   1.912   5.887  16.512 -0.4014  0.1757 -0.6695
20213TIP3    H182130   1.841   5.837  16.552 -0.4154 -0.1795 -1.1359
20213TIP3    H282131   1.875   5.976  16.502 -0.5797  0.1337 -0.3850
20214TIP3   OH282132   3.669   4.231   3.348  0.2476 -0.4131 -0.5506
20214TIP3    H182133   3.741   4.227   3.411  0.0275  1.0247 -0.1668
20214TIP3    H282134   3.673   4.320   3.313 -1.6958 -0.0926 -0.0717
20215TIP3   OH282135   6.262   1.432   4.077  0.4165 -0.2376 -0.1775
20215TIP3    H182136   6.306   1.432   3.992  0.6689 -2.9515 -0.1191
20215TIP3    H282137   6.170   1.451   4.057  0.6657  0.2531 -0.8994
20216TIP3   OH282138   3.471   5.479   2.679  0.2905 -0.1741  0.0850
20216TIP3    H182139   3.418   5.399   2.683  1.2262 -0.8676 -0.8649
20216TIP3    H282140   3.551   5.457   2.727  0.3996  0.3268  0.1387
20217TIP3   OH282141   2.046   2.974  16.504  0.0331  0.3654 -0.1073
20217TIP3    H182142   2.134   2.946  16.529 -0.2777 -2.1037 -1.3766
20217TIP3    H282143   2.017   3.029  16.576  1.1619 -1.9337  2.3031
20218TIP3   OH282144   2.131   6.632   5.064  0.0590  0.0870 -0.4777
20218TIP3    H182145   2.152   6.578   4.988 -3.3385 -1.8926 -0.2266
20218TIP3    H282146   2.105   6.716   5.027 -0.1974 -0.3967 -1.4337
20219TIP3   OH282147   5.396   5.815   3.689 -0.0255  0.8194  0.4778
20219TIP3    H182148   5.383   5.815   3.783  1.2965 -1.8123  0.7639
20219TIP3    H282149   5.309   5.832   3.652 -0.8354  0.5027  2.1744
20220TIP3   OH282150   4.005   3.694   4.489  0.2858  0.0782  0.1350
20220TIP3    H182151   4.040   3.753   4.556 -0.6090  1.3108 -0.4335
20220TIP3    H282152   3.910   3.702   4.497  0.1632 -0.1477 -0.9327
20221TIP3   OH282153   4.517   0.203   0.479 -0.0790 -0.2404 -0.3180
20221TIP3    H182154   4.460   0.258   0.534 -0.0347 -1.3863  0.9071
20221TIP3    H282155   4.561   0.145   0.540  0.4321 -1.1571 -1.5223
20222TIP3   OH282156   2.274   5.022   2.041  0.3154  0.1856  0.0387
20222TIP3    H182157   2.204   5.066   1.993  1.2540  1.1053 -0.5362
20222TIP3    H282158   2.327   5.093   2.077  1.4841 -0.4732 -0.3279
20223TIP3   OH282159   5.909   1.023   4.316 -0.2463 -0.0468 -0.1695
20223TIP3    H182160   5.897   1.088   4.385  0.4177  1.3867 -1.3565
20223TIP3    H282161   5.954   0.950   4.360 -0.3500  0.5826  1.0219
20224TIP3   OH282162   1.771   1.862   7.178 -0.4589 -0.8738 -0.5344
20224TIP3    H182163   1.805   1.778   7.212  0.5515  0.4829  2.1113
20224TIP3    H282164   1.685   1.871   7.219 -0.1519 -0.2086 -0.0109
20225TIP3   OH282165   0.144   6.246  11.269 -0.3572  0.4206 -0.1064
20225TIP3    H182166   0.215   6.232  11.206  0.6875 -1.2017  1.3638
20225TIP3    H282167   0.130   6.341  11.268  2.0546  0.8384 -0.2346
20226TIP3   OH282168   3.792   5.839   4.308 -0.4009 -0.3849  0.6293
20226TIP3    H182169   3.756   5.793   4.232  1.8041 -0.7258 -0.3008
20226TIP3    H282170   3.748   5.924   4.306 -0.5847 -0.4740 -0.9101
20227TIP3   OH282171   6.294   5.520  14.268  0.5434 -0.6608  0.4705
20227TIP3    H182172   6.263   5.448  14.323  1.7545 -0.7593  1.0582
20227TIP3    H282173   6.312   5.591  14.330  1.2111 -0.5210  0.1223
20228TIP3   OH282174   5.146   4.012  14.399  0.8365  0.3507  0.4727
20228TIP3    H182175   5.065   3.964  14.415 -0.8965  2.4411 -1.4412
20228TIP3    H282176   5.198   3.955  14.342 -0.1734 -0.1895  0.0847
20229TIP3   OH282177   2.017   1.516   1.227  0.0376 -0.9454 -0.4491
20229TIP3    H182178   1.949   1.505   1.161 -1.0098  0.5163  0.3341
20229TIP3    H282179   2.064   1.433   1.228 -0.3119 -1.2169 -2.5739
20230TIP3   OH282180   1.562   4.541   4.262  0.3260 -0.2725  0.3958
20230TIP3    H182181   1.489   4.538   4.324 -0.7382 -1.3782 -0.8545
20230TIP3    H282182   1.551   4.624   4.215 -0.7562 -0.8827 -0.4766
20231TIP3   OH282183   0.720   4.027   4.478  0.4587  0.8903 -0.7575
20231TIP3    H182184   0.704   4.062   4.390 -1.2870  0.1316 -0.7754
20231TIP3    H282185   0.657   4.073   4.534  0.8670  0.6405 -0.0854
20232TIP3   OH282186   5.266   6.528  11.642 -0.2495  0.3762  0.2211
20232TIP3    H182187   5.360   6.509  11.634 -0.0395  1.4284  0.0514
20232TIP3    H282188   5.258   6.566  11.730 -0.3535  1.1397 -0.1103
20233TIP3   OH282189   5.654   0.209   2.733 -0.2902  0.2487  0.0610
20233TIP3    H182190   5.717   0.273   2.765  1.0484 -0.4548 -1.0812
20233TIP3    H282191   5.582   0.213   2.796  1.7134 -0.3391  2.5451
20234TIP3   OH282192   1.525   3.967  16.282  0.0190  0.1552 -0.2815
20234TIP3    H182193   1.499   3.891  16.334  0.4418 -0.8236 -1.4744
20234TIP3    H282194   1.451   3.981  16.222 -0.8455  1.7964  1.0703
20235TIP3   OH282195   3.376   5.516   1.575  0.2344 -0.2168  0.2284
20235TIP3    H182196   3.395   5.512   1.481 -2.4676  2.4925 -0.6101
20235TIP3    H282197   3.293   5.469   1.585 -0.2529  0.7561  0.9459
20236TIP3   OH282198   4.519   4.307  13.959 -0.3801  0.3293 -0.2778
20236TIP3    H182199   4.452   4.321  14.025 -0.9275 -0.4838 -0.6396
20236TIP3    H282200   4.586   4.373  13.978 -0.6295  0.2654  0.9412
20237TIP3   OH282201   2.769   3.950  16.959 -0.0652 -0.2008  0.2908
20237TIP3    H182202   2.826   3.874  16.949 -0.9907 -0.6310 -2.2203
20237TIP3    H282203   2.684   3.922  16.926 -0.5184  1.8193 -0.4033
20238TIP3   OH282204   3.861   1.238  15.556  0.2394 -0.2492 -0.4939
20238TIP3    H182205   3.837   1.327  15.531  0.5652  0.0536  0.2600
20238TIP3    H282206   3.794   1.183  15.515  0.5222  0.2557 -1.6920
20239TIP3   OH282207   5.031   4.481  15.674 -0.3103 -0.4680 -0.4759
20239TIP3    H182208   5.046   4.495  15.767  0.3569 -3.0016 -0.1497
20239TIP3    H282209   5.099   4.532  15.630  0.3755 -0.5381  0.4845
20240TIP3   OH282210   0.513   2.210   5.075 -0.3444  0.1696  0.3548
20240TIP3    H182211   0.599   2.248   5.059  0.4671 -1.7588 -0.1680
20240TIP3    H282212   0.531   2.125   5.115 -1.9135 -0.8734 -0.9887
20241TIP3   OH282213   4.062   1.545   0.084  0.1577  0.2026  0.2862
20241TIP3    H182214   4.126   1.536   0.155  1.0442 -3.8332 -0.7527
20241TIP3    H282215   4.109   1.590   0.014  1.4424 -1.2931  0.1296
20242TIP3   OH282216   3.556   0.738   0.138  0.2823  0.1651 -0.3938
20242TIP3    H182217   3.546   0.643   0.141 -2.5936  0.3019 -2.2650
20242TIP3    H282218   3.651   0.752   0.132  0.7434 -2.5996 -0.7383
20243TIP3   OH282219   1.811   3.017  16.777 -0.2667 -0.6359 -0.5416
20243TIP3    H182220   1.824   3.111  16.762  2.1747 -0.9855 -0.9964
20243TIP3    H282221   1.718   3.009  16.800 -0.7093  1.7787 -1.2269
20244TIP3   OH282222   4.925   1.376   3.433  0.9528  0.5232  0.0874
20244TIP3    H182223   4.997   1.436   3.415  0.3711  1.5184  0.9637
20244TIP3    H282224   4.846   1.428   3.416  0.3547  1.1563  4.0130
20245TIP3   OH282225   3.771   5.987   1.228 -0.5883 -0.0279 -0.0862
20245TIP3    H182226   3.799   6.044   1.300  2.7881  0.1090 -1.2987
20245TIP3    H282227   3.769   6.044   1.152 -0.3826 -0.8891 -0.7469
20246TIP3   OH282228   0.523   3.209  11.330  0.2489 -0.0965  0.3106
20246TIP3    H182229   0.500   3.226  11.238 -2.9554  0.2845  1.0723
20246TIP3    H282230   0.599   3.265  11.346  0.6777  0.1091 -1.9856
20247TIP3   OH282231   6.289   3.303   3.252  0.2603 -0.3022  0.5021
20247TIP3    H182232   6.338   3.223   3.269  0.7624  0.2544  1.8429
20247TIP3    H282233   6.357   3.366   3.225 -0.1369 -0.3319 -0.6075
20248TIP3   OH282234   4.879   2.824  15.773 -0.5762  0.0788  0.2060
20248TIP3    H182235   4.853   2.741  15.814  2.0474 -0.1490  1.5905
20248TIP3    H282236   4.964   2.844  15.810  0.9166  1.1854 -3.3556
20249TIP3   OH282237   2.819   3.979  13.279  0.0355  0.1998 -0.1520
20249TIP3    H182238   2.889   3.919  13.254 -0.2412 -0.1209 -0.1694
20249TIP3    H282239   2.844   4.063  13.242  0.4484  0.1026 -0.0920
20250TIP3   OH282240   0.048   4.640  11.229 -0.2773 -0.1229 -0.5097
20250TIP3    H182241   0.116   4.573  11.222 -1.3007 -1.1761 -0.6060
20250TIP3    H282242   0.088   4.718  11.189  1.5251 -0.1711  1.0324
20251TIP3   OH282243   0.572   4.918   6.144  0.2359 -0.3981 -0.7739
20251TIP3    H182244   0.585   5.008   6.175 -0.0515 -0.6534  0.1364
20251TIP3    H282245   0.484   4.918   6.106 -0.0831 -0.4763 -0.0520
20252TIP3   OH282246   5.337   2.476   2.484  0.0165 -0.0180 -0.1650
20252TIP3    H182247   5.336   2.500   2.392  0.6950  1.7092  0.2325
20252TIP3    H282248   5.263   2.524   2.522 -0.8107 -1.4138  0.0684
20253TIP3   OH282249   3.527   5.095   3.815  0.1558  0.1520 -0.5596
20253TIP3    H182250   3.598   5.075   3.754  0.3383 -1.9056  0.2677
20253TIP3    H282251   3.570   5.132   3.892  0.3297 -0.9163 -0.1347
20254TIP3   OH282252   4.824   6.550   2.592 -0.2819 -0.3190  0.0363
20254TIP3    H182253   4.808   6.627   2.646 -0.4639  1.6484 -2.5995
20254TIP3    H282254   4.853   6.483   2.653 -1.0188  1.5444  2.5856
20255TIP3   OH282255   3.944   2.206  16.817 -0.6277 -0.3612 -0.6968
20255TIP3    H182256   3.899   2.188  16.899  0.7231  0.5666  0.3088
20255TIP3    H282257   3.895   2.157  16.751 -1.4972 -1.4965  0.7186
20256TIP3   OH282258   2.521   4.630  12.466 -0.5726  0.0165  0.6952
20256TIP3    H182259   2.525   4.598  12.376 -0.7489 -1.2190  1.1000
20256TIP3    H282260   2.470   4.711  12.461  2.2770  1.8590 -0.7805
20257TIP3   OH282261   2.370   6.725   5.139  0.7744 -0.7403 -0.0087
20257TIP3    H182262   2.417   6.693   5.216 -0.1271 -0.1623  0.8084
20257TIP3    H282263   2.294   6.668   5.132 -1.6742  1.9176  2.3544
20258TIP3   OH282264   6.370   0.290  16.896  0.0793  0.1855  0.5033
20258TIP3    H182265   6.391   0.363  16.955 -0.9772 -2.0693  4.0026
20258TIP3    H282266   6.427   0.219  16.926  0.1685 -0.8513 -1.9290
20259TIP3   OH282267   0.486   4.853  14.230  0.0707 -0.2056 -0.2278
20259TIP3    H182268   0.433   4.913  14.178 -1.0184  0.3390  1.4152
20259TIP3    H282269   0.473   4.767  14.190 -0.9047  0.1635 -0.7159
20260LIG      O82270   3.444   3.255  16.334  0.3803  0.2543 -0.2297
20260LIG      N82271   3.065   3.541  16.236 -0.0524 -0.2070  0.0725
20260LIG     C182272   3.490   3.467  16.237  0.1119  0.5821 -0.2091
20260LIG     C282273   3.403   3.394  16.344  0.1011  0.0593  0.3331
20260LIG     C382274   3.642   3.446  16.258  0.3164 -0.8423  0.0731
20260LIG     C482275   3.458   3.408  16.093 -0.5466 -0.2619 -0.8096
20260LIG     C582276   3.254   3.401  16.314 -0.5335 -0.4648 -0.0002
20260LIG     C682277   3.720   3.507  16.140 -0.2101  0.5598 -0.3184
20260LIG     C782278   3.543   3.454  15.980  0.2591 -0.0078 -0.3042
20260LIG     C882279   3.693   3.443  16.004  0.9551  0.5537 -0.2166
20260LIG     C982280   3.205   3.545  16.285  0.5834 -0.9526  0.5054
20260LIG    C1082281   3.413   3.458  16.491 -0.1178  0.1805 -0.2202
20260LIG    C1182282   3.010   3.674  16.243  0.4971 -0.1603  0.4500
20260LIG    C1282283   3.039   3.471  16.109 -0.3340 -0.2734  0.3031
20260LIG    C1382284   3.052   3.754  16.117 -0.2408 -0.0628  0.1802
20260LIG    C1482285   3.090   3.550  15.990 -0.6161 -0.4621  0.4123
20260LIG    C1582286   3.028   3.685  15.984 -0.5053  0.5241  0.7232
20260LIG    C1682287   3.437   3.598  16.512 -0.0643  0.1915 -0.8059
20260LIG    C1782288   3.401   3.374  16.603 -0.0871  0.3918  0.7402
20260LIG    C1882289   3.467   3.645  16.645 -0.6384  0.3060  0.4617
20260LIG    C1982290   3.425   3.425  16.739  0.8320  0.4869 -0.5359
20260LIG    C2082291   3.457   3.560  16.757 -0.3748 -0.4615  0.0098
20260LIG     H182292   3.457   3.573  16.241 -2.7988 -0.2040 -0.8289
20260LIG     H282293   3.681   3.344  16.279  0.6719 -0.3893  1.7972
20260LIG     H382294   3.670   3.493  16.355 -2.0577 -1.6621  1.2573
20260LIG     H482295   3.352   3.415  16.062 -1.1491  0.6312  1.3048
20260LIG     H582296   3.483   3.300  16.084  1.2876  0.1228 -0.7244
20260LIG     H682297   3.195   3.366  16.402  1.7703  2.2687  2.8740
20260LIG     H782298   3.235   3.334  16.227 -1.4851 -0.7202  0.3863
20260LIG     H882299   3.830   3.497  16.154 -0.4672 -1.3097  0.6914
20260LIG     H982300   3.691   3.614  16.134  2.6011  1.4867  0.7863
20260LIG    H1082301   3.512   3.560  15.964 -0.8297 -0.1184  0.9668
20260LIG    H1182302   3.514   3.385  15.898 -2.5546  1.7715 -0.9203
20260LIG    H1282303   3.719   3.336  16.021 -0.9051  0.4132  2.2646
20260LIG    H1382304   3.744   3.481  15.913  0.2193  1.3164 -0.3174
20260LIG    H1482305   3.210   3.605  16.378  0.4641 -0.4449  0.1921
20260LIG    H1582306   3.272   3.597  16.212  0.7252 -0.3806  1.0363
20260LIG    H1682307   3.025   3.734  16.336 -1.2437  0.2204  0.5192
20260LIG    H1782308   2.901   3.660  16.231  0.6997  0.4747 -3.0277
20260LIG    H1882309   2.930   3.477  16.089  0.0211 -0.3828 -1.9165
20260LIG    H1982310   3.060   3.362  16.097 -5.1687 -1.1226 -3.3577
20260LIG    H2082311   3.437   3.232  16.241  2.6731  0.9476 -0.6432
20260LIG    H2182312   3.158   3.786  16.120 -0.4726  0.8150 -0.4996
20260LIG    H2282313   2.988   3.844  16.114  0.6210  0.5631 -2.8526
20260LIG    H2382314   3.068   3.503  15.892  0.3520  0.4148 -0.2497
20260LIG    H2482315   3.200   3.568  15.987 -0.9897  2.8632  1.9819
20260LIG    H2582316   3.072   3.737  15.896  0.1598 -1.0405  0.0866
20260LIG    H2682317   2.921   3.668  15.958 -0.3387  0.1574  0.2461
20260LIG    H2782318   3.451   3.666  16.429  2.3441 -0.5519 -1.0724
20260LIG    H2882319   3.370   3.272  16.584  1.3142 -0.1567  1.2905
20260LIG    H2982320   3.488   3.750  16.664  0.4924  0.1197  0.3212
20260LIG    H3082321   3.412   3.348  16.814 -0.3723 -0.5075 -1.7062
20260LIG    H3182322   3.476   3.600  16.856 -0.8918 -1.5741  0.5779
   6.82541   6.82541  17.30579
